24
Lattice="10.607222834841558 7.141297752160957e-13 5.404637150202107e-14 5.303611417420161 9.186124438575535 -8.272925921889693e-14 5.303611417420529 3.06204147952552 8.685653007359754" Properties=species:S:1:pos:R:3 unique_starting_index=24 config_type=initial n_minim_iter=1 energy=-3939.6549859857587 free_energy=-3939.6549859857587 pbc="T T T"
Si      12.10436926       4.72021689       8.25339595
Si      11.07443225       8.12258284       8.25339595
Si       8.64286541       5.52944824       8.25339595
Si      11.91621184       4.53988798       6.35176926
Si      11.32468037       8.04979819       6.35176926
Si       8.58077470       5.78256180       6.35176926
Si      13.56074966       5.40871308       1.92268643
Si       9.74998686       9.03959716       1.92268643
Si       8.51093041       3.92393773       1.92268643
Si      11.43611097       8.03957812       2.32928689
Si       8.53391024       5.88417356       2.32928689
Si      11.85164571       4.44849628       2.32928689
Si      12.72878048       8.47591875       7.48620376
Si       7.50969342       6.78548788       7.48620376
Si      11.58319302       3.11084134       7.48620376
Si      14.34208406       3.42000056       6.97542167
Si      11.08159522      10.71060886       6.97542167
Si       6.39798764       4.24163854       6.97542167
Si      11.66789722      11.79150285       6.15942777
Si       5.16875498       4.20894398       6.15942777
Si      14.98501471       2.37180114       6.15942777
Si       5.30922784       1.90673538       0.94763588
Si       6.30132658       3.64455849       0.94763588
Si       4.30027825       3.63482965       0.94763588
24
Lattice="10.605745241249464 7.150862534567425e-13 5.401065326677476e-14 5.302872620624113 9.18484480498831 -8.275838724183344e-14 5.302872620624481 3.061614934996445 8.684897647783798" Properties=species:S:1:pos:R:3 unique_starting_index=24 config_type=initial n_minim_iter=2 stress="-0.0008732040755880218 2.8661903585063353e-15 -1.153510061410681e-16 2.8661903585063353e-15 -0.0008732040755930841 -1.9107060857951669e-16 -1.153510061410681e-16 -1.9107060857951669e-16 0.00017858435667456293" pbc="T T T"
Si      12.10268680       4.71957245       8.25267149
Si      11.07287639       8.12144800       8.25267149
Si       8.64167095       5.52866824       8.25267149
Si      11.91455074       4.53924858       6.35121337
Si      11.32310947       8.04867933       6.35121337
Si       8.57957392       5.78176079       6.35121337
Si      13.55886863       5.40795292       1.92250474
Si       9.74863050       9.03834822       1.92250474
Si       8.50973501       3.92338755       1.92250474
Si      11.43452459       8.03844544       2.32909582
Si       8.53272917       5.88336606       2.32909582
Si      11.84998038       4.44787720       2.32909582
Si      12.72701013       8.47472578       7.48556196
Si       7.50865655       6.78455120       7.48556196
Si      11.58156746       3.11041172       7.48556196
Si      14.34011156       3.41951751       6.97481525
Si      11.08004461      10.70914215       6.97481525
Si       6.39707797       4.24102904       6.97481525
Si      11.66625245      11.78986508       6.15890748
Si       5.16804053       4.20833845       6.15890748
Si      14.98294115       2.37148517       6.15890748
Si       5.30849664       1.90645635       0.94754180
Si       6.30045623       3.64406478       0.94754180
Si       4.29966340       3.63432277       0.94754180
24
Lattice="10.605880913537712 7.151779060672082e-13 5.401053850895852e-14 5.302940456768237 9.184962300636528 -8.275213319295716e-14 5.302940456768606 3.0616541002125164 8.680598088777671" Properties=species:S:1:pos:R:3 unique_starting_index=24 config_type=initial n_minim_iter=3 stress="-0.0004680147618433542 6.033761329830518e-15 -1.3681225914985511e-15 6.033761329830518e-15 -0.00046801476185206987 -5.58185614678383e-16 -1.3681225914985511e-15 -5.58185614678383e-16 -0.0008127617359999651" pbc="T T T"
Si      12.10288506       4.71975197       8.24851786
Si      11.07289313       8.12152994       8.24851786
Si       8.64186296       5.52864178       8.24851786
Si      11.91467813       4.53924710       6.34802707
Si      11.32331840       8.04879039       6.34802707
Si       8.57964463       5.78188620       6.34802707
Si      13.55914943       5.40797876       1.92141658
Si       9.74873907       9.03857848       1.92141658
Si       8.50975266       3.92336645       1.92141658
Si      11.43476520       8.03841029       2.32805907
Si       8.53291065       5.88359200       2.32805907
Si      11.84996530       4.44792139       2.32805907
Si      12.72720941       8.47471207       7.48194485
Si       7.50884012       6.78473064       7.48194485
Si      11.58159162       3.11048098       7.48194485
Si      14.34050086       3.41950649       6.97136595
Si      11.08013085      10.70948481       6.97136595
Si       6.39700944       4.24093239       6.97136595
Si      11.66645220      11.78996638       6.15599719
Si       5.16812428       4.20846079       6.15599719
Si      14.98306468       2.37149653       6.15599719
Si       5.30863628       1.90624963       0.94697182
Si       6.30070110       3.64428907       0.94697182
Si       4.29948239       3.63442269       0.94697182
24
Lattice="10.604539031528809 7.137433071836572e-13 5.400529062180877e-14 5.302269515763788 9.183800196727935 -8.275306730535075e-14 5.302269515764154 3.0612667322429847 8.685213470049392" Properties=species:S:1:pos:R:3 unique_starting_index=24 config_type=initial n_minim_iter=4 stress="-0.00036759953961505785 8.721887815364389e-15 -2.024672392714874e-15 8.721887815364389e-15 -0.0003675995396208499 -4.775709377908703e-16 -2.024672392714874e-15 -4.775709377908703e-16 0.0001217837870893378" pbc="T T T"
Si      12.10162261       4.71958665       8.25259161
Si      11.07098376       8.12051928       8.25259161
Si       8.64100913       5.52749354       8.25259161
Si      11.91306853       4.53844472       6.35116250
Si      11.32213431       8.04779763       6.35116250
Si       8.57841266       5.78135713       6.35116250
Si      13.55773013       5.40709005       1.92197754
Si       9.74753460       9.03779369       1.92197754
Si       8.50835077       3.92271574       1.92197754
Si      11.43359115       8.03688994       2.32972715
Si       8.53213057       5.88333543       2.32972715
Si      11.84789378       4.44737411       2.32972715
Si      12.72574387       8.47318067       7.48628027
Si       7.50821536       6.78422714       7.48628027
Si      11.57965628       3.11019167       7.48628027
Si      14.33934806       3.41889717       6.97508776
Si      11.07855117      10.70879111       6.97508776
Si       6.39571628       4.23991120       6.97508776
Si      11.66500910      11.78837389       6.15981100
Si       5.16754120       4.20800727       6.15981100
Si      14.98106521       2.37121832       6.15981100
Si       5.30818172       1.90563100       0.94714404
Si       6.30012226       3.64420472       0.94714404
Si       4.29850298       3.63396357       0.94714404
24
Lattice="10.603591393394025 7.148891034166853e-13 5.4002795147589715e-14 5.301795696696396 9.182979518029615 -8.27447973309613e-14 5.301795696696761 3.060993172676877 8.68560298510785" Properties=species:S:1:pos:R:3 unique_starting_index=24 config_type=initial n_minim_iter=5 stress="-0.0002496820039086581 1.036199239997503e-14 -3.2084304332398773e-15 1.036199239997503e-14 -0.00024968200391913887 -3.0494594723686573e-16 -3.2084304332398773e-15 -3.0494594723686573e-16 5.149163900004453e-05" pbc="T T T"
Si      12.10088054       4.71964995       8.25255717
Si      11.06940470       8.11984498       8.25255717
Si       8.64048735       5.52646319       8.25255717
Si      11.91189275       4.53774857       6.35119645
Si      11.32142982       8.04712745       6.35119645
Si       8.57745002       5.78108211       6.35119645
Si      13.55661877       5.40623677       1.92159072
Si       9.74693396       9.03725786       1.92159072
Si       8.50721986       3.92246349       1.92159072
Si      11.43266088       8.03575066       2.33028081
Si       8.53168708       5.88309942       2.33028081
Si      11.84642464       4.44710804       2.33028081
Si      12.72474174       8.47191269       7.48703745
Si       7.50791925       6.78399326       7.48703745
Si      11.57811161       3.11005217       7.48703745
Si      14.33825974       3.41854882       6.97547708
Si      11.07750174      10.70802277       6.97547708
Si       6.39501112       4.23938653       6.97547708
Si      11.66433911      11.78708817       6.16067519
Si       5.16709438       4.20806991       6.16067519
Si      14.97933910       2.37080005       6.16067519
Si       5.30796573       1.90574133       0.94677991
Si       6.29918707       3.64396251       0.94677991
Si       4.29823270       3.63327477       0.94677991
24
Lattice="10.60675036491966 7.127890487210596e-13 5.4019346020809334e-14 5.303375182459216 9.185715267620646 -8.276583377858045e-14 5.30337518245958 3.06190508920722 8.683537658994016" Properties=species:S:1:pos:R:3 unique_starting_index=24 config_type=initial n_minim_iter=6 stress="0.0012938377374254087 1.2294778825332933e-14 -1.8097307644213644e-15 1.2294778825332933e-14 0.001293837737417933 -5.350719448863834e-16 -1.8097307644213644e-15 -5.350719448863834e-16 4.741128037147956e-05" pbc="T T T"
Si      12.10688172       4.72426562       8.24769435
Si      11.06872477       8.12273432       8.24769435
Si       8.64464302       5.52442968       8.24769435
Si      11.91465879       4.53703606       6.34804292
Si      11.32698180       8.04987916       6.34804292
Si       8.57860892       5.78451440       6.34804292
Si      13.56047760       5.40483940       1.91817296
Si       9.75253265       9.04129839       1.91817296
Si       8.50723926       3.92529184       1.91817296
Si      11.43590171       8.03590974       2.33258750
Si       8.53624684       5.88582653       2.33258750
Si      11.84810096       4.44969336       2.33258750
Si      12.72927845       8.47113548       7.48813055
Si       7.51264192       6.78831077       7.48813055
Si      11.57832914       3.11198337       7.48813055
Si      14.34161849       3.41989524       6.97456717
Si      11.08097427      10.71025832       6.97456717
Si       6.39765675       4.24127606       6.97456717
Si      11.66713324      11.79054161       6.16306214
Si       5.16902449       4.20876298       6.16306214
Si      14.98409177       2.37212504       6.16306214
Si       5.31136009       1.90682135       0.94372452
Si       6.29971353       3.64636209       0.94372452
Si       4.29905034       3.63253091       0.94372452
24
Lattice="10.60442804707263 7.148453836103722e-13 5.400520802793173e-14 5.302214023535702 9.183704081369461 -8.275935842319201e-14 5.3022140235360675 3.0612346937901593 8.687038432459111" Properties=species:S:1:pos:R:3 unique_starting_index=24 config_type=initial n_minim_iter=7 stress="0.0016715654132776312 1.837352190485389e-14 -1.1065975534796117e-15 1.837352190485389e-14 0.0016715654132731274 -3.5202465902271666e-16 -1.1065975534796117e-15 -3.5202465902271666e-16 0.0003828409770875295" pbc="T T T"
Si      12.10538386       4.72480827       8.24953507
Si      11.06435912       8.12116581       8.24953507
Si       8.64353958       5.52143317       8.24953507
Si      11.91167684       4.53491213       6.34975852
Si      11.32566751       8.04835869       6.34975852
Si       8.57593820       5.78413643       6.34975852
Si      13.55680608       5.40181498       1.91764383
Si       9.75234300       9.03963097       1.91764383
Si       8.50413348       3.92596130       1.91764383
Si      11.43283165       8.03342307       2.33482902
Si       8.53529075       5.88441111       2.33482902
Si      11.84516015       4.44957307       2.33482902
Si      12.72652534       8.46795313       7.49260360
Si       7.51212983       6.78751769       7.49260360
Si      11.57462738       3.11193643       7.49260360
Si      14.33792317       3.41932945       6.97787679
Si      11.07866729      10.70734098       6.97787679
Si       6.39669210       4.24073682       6.97787679
Si      11.66500601      11.78763741       6.16748312
Si       5.16795859       4.20837283       6.16748312
Si      14.98031796       2.37139701       6.16748312
Si       5.31127226       1.90571705       0.94254587
Si       6.29839148       3.64683819       0.94254587
Si       4.29697674       3.63114794       0.94254587
24
Lattice="10.603080440573589 7.186307412068156e-13 5.400032510974609e-14 5.301540220286179 9.182537019906988 -8.274810277118014e-14 5.301540220286548 3.060845673302669 8.69027279744844" Properties=species:S:1:pos:R:3 unique_starting_index=24 config_type=initial n_minim_iter=8 stress="-0.0014585570009248458 2.152417635153602e-14 -1.2852467560156508e-15 2.152417635153602e-14 -0.0014585570009276465 -5.432283379177942e-17 -1.2852467560156508e-15 -5.432283379177942e-17 -0.00031744355648960883" pbc="T T T"
Si      12.10656123       4.72859708       8.24686612
Si      11.05779402       8.12029104       8.24686612
Si       8.64488449       5.51618501       8.24686612
Si      11.90792558       4.52970374       6.34939905
Si      11.32935853       8.04771419       6.34939905
Si       8.57195563       5.78765520       6.34939905
Si      13.55366698       5.39590635       1.91479400
Si       9.75633436       9.03986674       1.91479400
Si       8.49923840       3.92930003       1.91479400
Si      11.43234868       8.03082214       2.34027400
Si       8.53508949       5.88529332       2.34027400
Si      11.84180156       4.44895767       2.34027400
Si      12.71980269       8.46753911       7.50051834
Si       7.51315451       6.78190270       7.50051834
Si      11.57628254       3.11563132       7.50051834
Si      14.33611519       3.41893668       6.98406017
Si      11.07721621      10.70597161       6.98406017
Si       6.39590834       4.24016484       6.98406017
Si      11.66356531      11.78643254       6.17596345
Si       5.16702717       4.20772760       6.17596345
Si      14.97864725       2.37091300       6.17596345
Si       5.31669166       1.90560776       0.93545446
Si       6.29442883       3.65158617       0.93545446
Si       4.29349859       3.62534218       0.93545446
24
Lattice="10.604080186291636 7.185040926270715e-13 5.400509359958603e-14 5.302040093145202 9.183402825096136 -8.275438564716443e-14 5.302040093145572 3.061134275032387 8.687972801603044" Properties=species:S:1:pos:R:3 unique_starting_index=24 config_type=initial n_minim_iter=9 stress="-0.0021477002736420584 1.7506931560976527e-14 -1.0009153635456215e-15 1.7506931560976527e-14 -0.002147700273646895 -4.789696593826967e-18 -1.0009153635456215e-15 -4.789696593826967e-18 -0.000400472246021371" pbc="T T T"
Si      12.11202034       4.73123592       8.23851460
Si      11.05477865       8.12369935       8.23851460
Si       8.64543998       5.51186947       8.23851460
Si      11.90873144       4.52660463       6.34631336
Si      11.33363899       8.04996164       6.34631336
Si       8.56986854       5.79023847       6.34631336
Si      13.55410147       5.39304056       1.91238310
Si       9.76059845       9.04167592       1.91238310
Si       8.49753905       3.93208825       1.91238310
Si      11.43496687       8.03162263       2.34236280
Si       8.53508665       5.88716049       2.34236280
Si      11.84218545       4.44802162       2.34236280
Si      12.71650369       8.46991722       7.50255474
Si       7.51474399       6.77785664       7.50255474
Si      11.58099129       3.11903088       7.50255474
Si      14.33817567       3.41994341       6.98440822
Si      11.07731361      10.70725267       6.98440822
Si       6.39674969       4.23960865       6.98440822
Si      11.66479911      11.78817925       6.17806747
Si       5.16689706       4.20792273       6.17806747
Si      14.98054280       2.37070275       6.17806747
Si       5.31944906       1.90587255       0.93202039
Si       6.29382055       3.65384175       0.93202039
Si       4.29284907       3.62368761       0.93202039
24
Lattice="10.608855599480997 7.158467360228531e-13 5.4027560804463446e-14 5.3044277997398845 9.187538454231689 -8.279188235106584e-14 5.304427799740253 3.06251281807757 8.686985772837895" Properties=species:S:1:pos:R:3 unique_starting_index=24 config_type=initial n_minim_iter=10 stress="-0.0003196406934009153 1.815414425529282e-14 -6.396755054021655e-16 1.815414425529282e-14 -0.00031964069340561786 -2.6683194701104986e-17 -6.396755054021655e-16 -2.6683194701104986e-17 -4.634828481551161e-05" pbc="T T T"
Si      12.11786504       4.73462913       8.23743143
Si      11.05846852       8.12706440       8.23743143
Si       8.65023166       5.51338246       8.23743143
Si      11.91543298       4.52756192       6.34476614
Si      11.33901001       8.05528669       6.34476614
Si       8.57212222       5.79222738       6.34476614
Si      13.55961729       5.39469222       1.91256269
Si       9.76596099       9.04562693       1.91256269
Si       8.50098693       3.93475684       1.91256269
Si      11.44106308       8.03647586       2.34228270
Si       8.53738635       5.89001335       2.34228270
Si      11.84811578       4.44858679       2.34228270
Si      12.72098007       8.47480423       7.50339944
Si       7.51782435       6.77928979       7.50339944
Si      11.58776079       3.12098197       7.50339944
Si      14.34559588       3.42227823       6.98316501
Si      11.08113231      10.71251135       6.98316501
Si       6.39983702       4.24028641       6.98316501
Si      11.66989501      11.79417613       6.17800993
Si       5.16870649       4.20933748       6.17800993
Si      14.98796370       2.37156239       6.17800993
Si       5.32310140       1.90719790       0.93041339
Si       6.29562201       3.65634210       0.93041339
Si       4.29455840       3.62399755       0.93041339
24
Lattice="10.609666863506536 7.123616204381773e-13 5.4034085995373123e-14 5.304833431752656 9.188241029486981 -8.279912512553514e-14 5.304833431753023 3.0627470098293332 8.68849553229879" Properties=species:S:1:pos:R:3 unique_starting_index=24 config_type=initial n_minim_iter=11 stress="0.0008416018119707025 1.3200917497514836e-14 3.374616433060465e-16 1.3200917497514836e-14 0.0008416018119682026 -4.821067873682809e-16 3.374616433060465e-16 -4.821067873682809e-16 0.00028103959995779207" pbc="T T T"
Si      12.12068488       4.73794270       8.23795101
Si      11.05581149       8.12784967       8.23795101
Si       8.65250263       5.51068878       8.23795101
Si      11.91846529       4.52616096       6.34382147
Si      11.34032965       8.05861324       6.34382147
Si       8.57020406       5.79170695       6.34382147
Si      13.56057581       5.39363114       1.91296911
Si       9.76802318       9.04698757       1.91296911
Si       8.50040001       3.93586243       1.91296911
Si      11.44484977       8.03839709       2.34337310
Si       8.53545170       5.89233210       2.34337310
Si      11.84869754       4.44575196       2.34337310
Si      12.71918902       8.47694325       7.50838109
Si       7.51848996       6.77666918       7.50838109
Si      11.59132003       3.12286871       7.50838109
Si      14.34649698       3.42410088       6.98406207
Si      11.08072583      10.71238040       6.98406207
Si       6.40177619       4.23999986       6.98406207
Si      11.67117040      11.79580093       6.18054774
Si       5.16828421       4.20962959       6.18054774
Si      14.98954440       2.37105063       6.18054774
Si       5.32549099       1.90730774       0.92795204
Si       6.29514336       3.65835661       0.92795204
Si       4.29386436       3.62257576       0.92795204
24
Lattice="10.613772531620862 7.1275356341498e-13 5.4051586963901894e-14 5.306886265809819 9.191796642373495 -8.283154912612964e-14 5.306886265810188 3.0639322141248377 8.68383059741017" Properties=species:S:1:pos:R:3 unique_starting_index=24 config_type=initial n_minim_iter=12 stress="0.0009702909532816197 1.6487608775695804e-14 9.920294914080884e-17 1.6487608775695804e-14 0.0009702909532762604 -5.347392786909782e-16 9.920294914080884e-17 -5.347392786909782e-16 0.00015881721386899164" pbc="T T T"
Si      12.12791713       4.74277244       8.23181068
Si      11.05622402       8.13169811       8.23181068
Si       8.65717485       5.50912182       8.23181068
Si      11.92362396       4.52694121       6.33834030
Si      11.34528593       8.06269065       6.33834030
Si       8.57240611       5.79396051       6.33834030
Si      13.56456542       5.39329205       1.91208170
Si       9.77453337       9.05061223       1.91208170
Si       8.50221721       3.93968810       1.91208170
Si      11.45079633       8.04308844       2.34257085
Si       8.53662693       5.89513630       2.34257085
Si      11.85389275       4.44536764       2.34257085
Si      12.72150033       8.48060337       7.50808624
Si       7.52237588       6.77684078       7.50808624
Si      11.59743980       3.12614822       7.50808624
Si      14.35352382       3.42591521       6.98033925
Si      11.08385249      10.71755866       6.98033925
Si       6.40393969       4.24011851       6.98033925
Si      11.67546404      11.80096297       6.17876764
Si       5.16987827       4.21076697       6.17876764
Si      14.99597370       2.37186243       6.17876764
Si       5.32902751       1.90851573       0.92534886
Si       6.29643461       3.66081533       0.92534886
Si       4.29519509       3.62246466       0.92534886
24
Lattice="10.611343801559451 7.157278851626632e-13 5.404097434611661e-14 5.305671900779112 9.189693300441384 -8.281299908400932e-14 5.3056719007794815 3.0632311001474686 8.681925498330909" Properties=species:S:1:pos:R:3 unique_starting_index=24 config_type=initial n_minim_iter=13 stress="-0.0007989115441291324 1.7378307455630174e-14 1.181537644412794e-16 1.7378307455630174e-14 -0.0007989115441322975 -3.4711766312549006e-16 1.181537644412794e-16 -3.4711766312549006e-16 -0.00021169152779402267" pbc="T T T"
Si      12.12805742       4.74522145       8.22879605
Si      11.04917551       8.13059510       8.22879605
Si       8.65679689       5.50356914       8.22879605
Si      11.92019767       4.52718499       6.33500187
Si      11.34193051       8.05960150       6.33500187
Si       8.57190165       5.79259920       6.33500187
Si      13.56105184       5.38963445       1.91224283
Si       9.77460028       9.04939817       1.91224283
Si       8.49837770       3.94035307       1.91224283
Si      11.45060403       8.04161008       2.34161027
Si       8.53314592       5.89570894       2.34161027
Si      11.85027987       4.44206667       2.34161027
Si      12.71488045       8.47690304       7.51014470
Si       7.52403294       6.77295796       7.51014470
Si      11.59511642       3.12952469       7.51014470
Si      14.35010399       3.42561907       6.97898644
Si      11.08096141      10.71474507       6.97898644
Si       6.40296441       4.23902155       6.97898644
Si      11.67270373      11.79770174       6.17750767
Si       5.16922527       4.21000710       6.17750767
Si      14.99210082       2.37167685       6.17750767
Si       5.32844872       1.90788162       0.92418875
Si       6.29484443       3.66063115       0.92418875
Si       4.29372096       3.62117962       0.92418875
24
Lattice="10.613140686021488 7.119134610390942e-13 5.4047563489005476e-14 5.306570343010133 9.191249448033174 -8.282746427648657e-14 5.3065703430105025 3.0637498160113963 8.6830777911586" Properties=species:S:1:pos:R:3 unique_starting_index=24 config_type=initial n_minim_iter=14 stress="7.654156085166505e-05 1.1718318513098869e-14 3.417111067274642e-16 1.1718318513098869e-14 7.654156084685305e-05 -3.4374276079508047e-16 3.417111067274642e-16 -3.4374276079508047e-16 6.177752860088578e-05" pbc="T T T"
Si      12.13321582       4.75114532       8.22882435
Si      11.04505986       8.13210047       8.22882435
Si       8.66114479       5.49925219       8.22882435
Si      11.92413634       4.52889865       6.33428167
Si      11.34207086       8.06215567       6.33428167
Si       8.57321327       5.79144367       6.33428167
Si      13.56274705       5.38694844       1.91416958
Si       9.77967259       9.05220927       1.91416958
Si       8.49700083       3.94334027       1.91416958
Si      11.45657972       8.04334878       2.34132613
Si       8.53224608       5.90001469       2.34132613
Si      11.85059467       4.43913451       2.34132613
Si      12.71004144       8.47674624       7.51653435
Si       7.53018201       6.76884565       7.51653435
Si      11.59919702       3.13690609       7.51653435
Si      14.35302519       3.42878704       6.97924608
Si      11.08035103      10.71569092       6.97924608
Si       6.40604424       4.23802002       6.97924608
Si      11.67413941      11.79873720       6.17794266
Si       5.17120446       4.21073270       6.17794266
Si      14.99407659       2.37302808       6.17794266
Si       5.33225985       1.90832878       0.92151690
Si       6.29434850       3.66370810       0.92151690
Si       4.29310109       3.61921165       0.92151690
24
Lattice="10.617098391449822 7.150922664846372e-13 5.4056730983986755e-14 5.308549195724299 9.194676921474805 -8.286053514041532e-14 5.308549195724669 3.064892307158608 8.683291608642655" Properties=species:S:1:pos:R:3 unique_starting_index=24 config_type=initial n_minim_iter=15 stress="0.0003210540922377659 6.99529615796887e-15 8.316819060681955e-17 6.99529615796887e-15 0.0003210540922339289 7.989385239395264e-18 8.316819060681955e-17 7.989385239395264e-18 4.32865521180361e-05" pbc="T T T"
Si      12.14058467       4.75570806       8.22891265
Si      11.04533939       8.13620072       8.22891265
Si       8.66536952       5.49744415       8.22891265
Si      11.93091922       4.53540872       6.33678460
Si      11.34095695       8.06477478       6.33678460
Si       8.57941741       5.78916943       6.33678460
Si      13.56694474       5.38521533       1.91615918
Si       9.78699008       9.05671114       1.91615918
Si       8.49735877       3.94742647       1.91615918
Si      11.46123303       8.04313160       2.34010312
Si       8.53802292       5.90415317       2.34010312
Si      11.85203763       4.44206816       2.34010312
Si      12.70790039       8.47649541       7.51784710
Si       7.53938517       6.76711686       7.51784710
Si      11.60400802       3.14574066       7.51784710
Si      14.35992158       3.43252092       6.97944234
Si      11.08158462      10.71979642       6.97944234
Si       6.40978739       4.23703559       6.97944234
Si      11.67634568      11.79925524       6.17504464
Si       5.17756810       4.21238437       6.17504464
Si      14.99737980       2.37771332       6.17504464
Si       5.33711593       1.90950274       0.92054327
Si       6.29486149       3.66732662       0.92054327
Si       4.29366858       3.61784666       0.92054327
24
Lattice="10.623850539270409 7.164691176173602e-13 5.407449888810085e-14 5.311925269634591 9.200524453017545 -8.291690505893042e-14 5.311925269634961 3.0668414843395206 8.679865341805966" Properties=species:S:1:pos:R:3 unique_starting_index=24 config_type=initial n_minim_iter=16 stress="8.006332299341947e-05 9.07897878985368e-15 -1.0208289642497632e-15 9.07897878985368e-15 8.00633229867488e-05 4.318338138731212e-17 -1.0208289642497632e-15 4.318338138731212e-17 -2.5578006839902486e-05" pbc="T T T"
Si      12.15834280       4.76687441       8.22523823
Si      11.04029428       8.14599653       8.22523823
Si       8.67291295       5.48817705       8.22523823
Si      11.94638365       4.54569083       6.33366082
Si      11.33782446       8.07302631       6.33366082
Si       8.58734192       5.78233085       6.33366082
Si      13.57410425       5.38151776       1.91503667
Si       9.80011681       9.06476024       1.91503667
Si       8.49732897       3.95476999       1.91503667
Si      11.47052731       8.04475945       2.33927889
Si       8.54547032       5.91138832       2.33927889
Si      11.85555240       4.44490022       2.33927889
Si      12.70627403       8.48174133       7.51943446
Si       7.54915954       6.76308543       7.51943446
Si      11.61611646       3.15622123       7.51943446
Si      14.37151192       3.43909098       6.97867408
Si      11.08360391      10.72654893       6.97867408
Si       6.41643420       4.23540809       6.97867408
Si      11.68105942      11.80242210       6.17203995
Si       5.18597295       4.21488315       6.17203995
Si      15.00451766       2.38374274       6.17203995
Si       5.34646853       1.91151835       0.91552684
Si       6.29519176       3.67441840       0.91552684
Si       4.29411392       3.61458679       0.91552684
24
Lattice="10.623426592804348 7.172073436679935e-13 5.4072418115688765e-14 5.311713296401559 9.20015730460809 -8.291430797321204e-14 5.311713296401928 3.066719101536369 8.683841077247362" Properties=species:S:1:pos:R:3 unique_starting_index=24 config_type=initial n_minim_iter=17 stress="-0.0006848337312514429 3.085398014592621e-15 -1.8840457711526487e-15 3.085398014592621e-15 -0.0006848337312512116 2.956289275015612e-16 -1.8840457711526487e-15 2.956289275015612e-16 4.795995804451755e-05" pbc="T T T"
Si      12.15546389       4.76484847       8.23239554
Si      11.04264037       8.14451629       8.23239554
Si       8.67217393       5.49094894       8.23239554
Si      11.94875222       4.55218569       6.33946330
Si      11.33016757       8.07183012       6.33946330
Si       8.59135841       5.77629788       6.33946330
Si      13.57324071       5.38445149       1.91360007
Si       9.79716000       9.06254552       1.91360007
Si       8.49987748       3.95331669       1.91360007
Si      11.46845308       8.04451903       2.33857032
Si       8.54586775       5.90971219       2.33857032
Si      11.85595736       4.44608247       2.33857032
Si      12.70577732       8.48156591       7.51724871
Si       7.54871193       6.76274298       7.51724871