6
Lattice="5.4916132539711 -3.832266059211484e-16 1.6392145731851144e-13 2.636974689995452e-16 3.778768210316166 3.458948827271465e-14 -2.2516028663429918e-13 -6.90445466437385e-14 7.543205353197001" Properties=species:S:1:pos:R:3 unique_starting_index=12 config_type=initial n_minim_iter=10 energy=-979.5774208352028 free_energy=-979.5774208352028 pbc="T T T"
Si       1.75858032       1.88938411       6.12028820
Si       1.75858032       1.88938411       1.42291715
Si       1.75862067       0.88981853       3.77160268
Si       1.75862067       2.88894968       3.77160268
Si       0.99091336      -0.00000000       0.00000000
Si       2.52606387      -0.00000000       0.00000000
