8
Lattice="5.32808366626851 0.0 0.0 0.0 7.876172656666726 -2.3238218684457294e-16 0.0 1.5530528827219184e-16 5.22347727593702" Properties=species:S:1:pos:R:3 unique_starting_index=2 config_type=initial n_minim_iter=19 energy=-1300.7678343302255 free_energy=-1300.7678343302255 pbc="T T T"
Si       2.66397139       2.77507822       3.62609506
Si       2.66411228       2.77507822       1.59738222
Si       3.66777649       5.49148706       2.61158451
Si       1.66030717       5.49148706       2.61189277
Si       5.32815411       5.10109444       1.01435642
Si      -0.00007045       5.10109444       4.20912086
Si       4.32434901       2.38468559       5.22332315
Si       1.00373466       2.38468559       0.00015413
