12
Lattice="5.884077335266948 1.5659059350164821 -1.7045306480742954 0.45452271494216445 8.017189181346119 0.44124818770955615 -2.8921112518148573 -2.2770053464935067 11.396133143888092" Properties=species:S:1:pos:R:3 unique_starting_index=44 config_type=initial n_minim_iter=1 energy=-2129.5439680212517 free_energy=-2129.5439680212517 pbc="T T T"
Si      -1.42107949       1.80197803       9.33664413
Si      -0.36247927       4.77431400       3.89287291
Si      -1.60644887       4.43324899      10.08101742
Si       3.23543707       3.44949824       7.46919836
Si       3.99871644       6.06453604       7.47468834
Si       4.03777233       3.42469630       6.70555620
Si       6.43494740       5.65439200      -2.93059476
Si       1.64243111       3.99593413      -1.05685147
Si      -2.18190972      -0.86310717       9.93852795
Si       5.68021283       4.24582561       1.98613000
Si      -2.49723254      -0.78914058       8.92079491
Si      -1.45970194      -0.86902589       9.15457160
12
Lattice="5.885125147712221 1.5658750844755944 -1.705004997245452 0.45463334431325797 8.016610306575439 0.44108677912068395 -2.8936433629045286 -2.2770025987042906 11.395754818199604" Properties=species:S:1:pos:R:3 unique_starting_index=44 config_type=initial n_minim_iter=2 stress="0.00024386319213298992 -0.00022980420630775342 -0.0002069553053657216 -0.00022980420630775342 -0.003703526610184434 -0.0002071961030661155 -0.0002069553053657216 -0.0002071961030661155 -6.02450822092678e-05" pbc="T T T"
Si      -1.42221272       1.80166301       9.33610976
Si      -0.36282466       4.77394914       3.89261135
Si      -1.60767565       4.43278801      10.08049798
Si       3.23537825       3.44918446       7.46843009
Si       3.99862125       6.06408971       7.47386941
Si       4.03776427       3.42440597       6.70470004
Si       6.43642029       5.65403957      -2.93118757
Si       1.64277203       3.99563756      -1.05686349
Si      -2.18315985      -0.86311497       9.93827339
Si       5.68080363       4.24563545       1.98545017
Si      -2.49837877      -0.78920202       8.92041969
Si      -1.46090533      -0.86912551       9.15414299
12
Lattice="5.886202903646493 1.5661337339592423 -1.705458799479491 0.4548319751052059 8.017265483655006 0.44098788834165503 -2.8951996981291437 -2.2772891372491295 11.395327273978832" Properties=species:S:1:pos:R:3 unique_starting_index=44 config_type=initial n_minim_iter=3 stress="0.0009626460990795999 5.361572451384466e-05 -0.0005848685136349802 5.361572451384466e-05 0.0006824166520670014 -9.778089445092824e-06 -0.0005848685136349802 -9.778089445092824e-06 -2.074904385707832e-05" pbc="T T T"
Si      -1.42332817       1.80167182       9.33555284
Si      -0.36311184       4.77434679       3.89237548
Si      -1.60886345       4.43306547      10.07998962
Si       3.23539252       3.44949081       7.46767157
Si       3.99859637       6.06467561       7.47308771
Si       4.03780348       3.42473531       6.70384571
Si       6.43800119       5.65459134      -2.93173697
Si       1.64315234       3.99595560      -1.05681761
Si      -2.18441472      -0.86319108       9.93800509
Si       5.68143493       4.24618623       1.98480736
Si      -2.49952293      -0.78933917       8.91999848
Si      -1.46213511      -0.86930911       9.15367900
12
Lattice="5.885119287015992 1.5662553378980242 -1.7047296615316194 0.4549778224935971 8.017293968159857 0.44104576771159953 -2.8936850338523694 -2.2772810668714776 11.394012330786783" Properties=species:S:1:pos:R:3 unique_starting_index=44 config_type=initial n_minim_iter=4 stress="-0.00042860918071047554 -9.485771925081814e-05 -0.00016283056474812065 -9.485771925081814e-05 0.0003214590361690906 3.871238839317303e-05 -0.00016283056474812065 3.871238839317303e-05 0.00010189560835864227" pbc="T T T"
Si      -1.42220726       1.80156092       9.33445179
Si      -0.36249463       4.77446268       3.89199505
Si      -1.60770582       4.43307992      10.07903771
Si       3.23603292       3.44960491       7.46730710
Si       3.99864188       6.06484049       7.47290260
Si       4.03779439       3.42487174       6.70348536
Si       6.43733197       5.65463278      -2.93101035
Si       1.64276134       3.99591208      -1.05621476
Si      -2.18306934      -0.86306193       9.93717572
Si       5.68047839       4.24656980       1.98528221
Si      -2.49811547      -0.78931441       8.91874066
Si      -1.46135211      -0.86939306       9.15267047
12
Lattice="5.886479619962226 1.5668114659582695 -1.7036699170365015 0.45590987444391406 8.017221881410773 0.44094420794077743 -2.8929356537543263 -2.2776836548461112 11.39219514255949" Properties=species:S:1:pos:R:3 unique_starting_index=44 config_type=initial n_minim_iter=5 stress="0.0003545959950832581 0.0002466645788731803 0.00023768648440968882 0.0002466645788731803 0.0003643751982663531 -5.784500437688778e-05 0.00023768648440968882 -5.784500437688778e-05 0.0006764691519303597" pbc="T T T"
Si      -1.42083530       1.80122507       9.33312028
Si      -0.36147183       4.77441878       3.89135764
Si      -1.60629320       4.43270141      10.07767474
Si       3.23848111       3.44977292       7.46672913
Si       4.00113793       6.06492377       7.47237686
Si       4.04007509       3.42514621       6.70295129
Si       6.43939361       5.65517945      -2.92986409
Si       1.64339361       3.99599736      -1.05576442
Si      -2.18224672      -0.86350637       9.93578563
Si       5.68221176       4.24728995       1.98591335
Si      -2.49748257      -0.78968367       8.91715058
Si      -1.46060305      -0.86972600       9.15132437
12
Lattice="5.886750722095472 1.5666726261486912 -1.7029920516316432 0.4557796068062597 8.017282961886847 0.4409558929674196 -2.8929621211497776 -2.2774103631176597 11.388097291379067" Properties=species:S:1:pos:R:3 unique_starting_index=44 config_type=initial n_minim_iter=6 stress="9.561301062835296e-05 0.0001636126209514205 0.00014219356180505388 0.0001636126209514205 0.0004272145623309508 2.0708835232094024e-07 0.00014219356180505388 2.0708835232094024e-07 -0.0005119521331344995" pbc="T T T"
Si      -1.42066219       1.80141288       9.32986163
Si      -0.36146739       4.77465703       3.89005307
Si      -1.60646463       4.43293795      10.07431499
Si       3.23877254       3.44991465       7.46412354
Si       4.00116922       6.06496660       7.46983308
Si       4.04031024       3.42523648       6.70052118
Si       6.43985112       5.65503901      -2.92870324
Si       1.64342415       3.99593362      -1.05525983
Si      -2.18235466      -0.86338874       9.93232459
Si       5.68208220       4.24751545       1.98545179
Si      -2.49755004      -0.78946182       8.91392662
Si      -1.46069872      -0.86960522       9.14804737
12
Lattice="5.886996782627214 1.5654734715685212 -1.7033736935348942 0.4542517582433981 8.017274057435438 0.4413469010089271 -2.894178682517946 -2.276140235229651 11.386431703615296" Properties=species:S:1:pos:R:3 unique_starting_index=44 config_type=initial n_minim_iter=7 stress="0.00015761412874027957 -0.0005571332912737609 4.433555224624266e-05 -0.0005571332912737609 0.0005223975195946074 2.222476841251499e-05 4.433555224624266e-05 2.222476841251499e-05 0.00020919019389850402" pbc="T T T"
Si      -1.42160087       1.80216024       9.32833328
Si      -0.36262325       4.77537202       3.88972290
Si      -1.60879212       4.43377113      10.07345902
Si       3.23748474       3.44982244       7.46245039
Si       3.99905379       6.06467183       7.46828966
Si       4.03923622       3.42487736       6.69860822
Si       6.43999479       5.65363756      -2.92855854
Si       1.64312859       3.99540429      -1.05475004
Si      -2.18395640      -0.86261971       9.93114522
Si       5.68024714       4.24739230       1.98504409
Si      -2.49881041      -0.78843290       8.91267413
Si      -1.46195786      -0.86894617       9.14656719
12
Lattice="5.887132215274394 1.5665180655724136 -1.703604571251203 0.4558079418478481 8.017115173982097 0.44168336755886656 -2.895897617826977 -2.2759387665999937 11.383851801772463" Properties=species:S:1:pos:R:3 unique_starting_index=44 config_type=initial n_minim_iter=8 stress="-0.00019512139921488956 0.00028116124972117526 -0.00012380907020506017 0.00028116124972117526 0.0002046529438053806 5.813278644455005e-05 -0.00012380907020506017 5.813278644455005e-05 3.272334009497314e-05" pbc="T T T"
Si      -1.42165175       1.80234077       9.32596777
Si      -0.36183569       4.77579744       3.88907702
Si      -1.60910161       4.43374833      10.07162098
Si       3.23717316       3.45063349       7.46015284
Si       3.99897185       6.06569395       7.46623571
Si       4.03904903       3.42591286       6.69626578
Si       6.44143277       5.65433508      -2.92816634
Si       1.64424138       3.99534262      -1.05418666
Si      -2.18557326      -0.86259143       9.92911262
Si       5.67928716       4.24937303       1.98453990
Si      -2.50010734      -0.78845929       8.91071072
Si      -1.46333090      -0.86861958       9.14442954
12
Lattice="5.887560425445883 1.5656514443577842 -1.7025501840098225 0.45474325339066984 8.017119125555496 0.44170065506813366 -2.894920915013216 -2.2753882993860435 11.380248562187594" Properties=species:S:1:pos:R:3 unique_starting_index=44 config_type=initial n_minim_iter=9 stress="4.316818670509421e-05 -5.5231276161214184e-05 0.00027094525220418736 -5.5231276161214184e-05 2.6563940068953236e-05 -0.0002383953827794841 0.00027094525220418736 -0.0002383953827794841 -0.0002412331748495913" pbc="T T T"
Si      -1.42054200       1.80257159       9.32288910
Si      -0.36181020       4.77671639       3.88794675
Si      -1.60893282       4.43380301      10.06849826
Si       3.23817790       3.44992157       7.45799154
Si       3.99948718       6.06519241       7.46450069
Si       4.03987535       3.42529365       6.69439210
Si       6.44138408       5.65286773      -2.92665482
Si       1.64423102       3.99464585      -1.05354445
Si      -2.18490841      -0.86208827       9.92615511
Si       5.67770336       4.24991397       1.98527372
Si      -2.49988502      -0.78806126       8.90767565
Si      -1.46272668      -0.86832499       9.14190780
12
Lattice="5.887813693908853 1.5639606911578248 -1.7031710299641707 0.45344302508170325 8.01697002441311 0.4451208322677615 -2.897260896142817 -2.2698460398186535 11.37958438925085" Properties=species:S:1:pos:R:3 unique_starting_index=44 config_type=initial n_minim_iter=10 stress="0.00012526515059325767 -3.508454373849751e-05 0.0002098641555335446 -3.508454373849751e-05 -0.0004565069295751016 0.001025162113371597 0.0002098641555335446 0.001025162113371597 -0.00012698654822413085" pbc="T T T"
Si      -1.42230000       1.80685169       9.32356317
Si      -0.36268945       4.77992330       3.89002819
Si      -1.61146364       4.43809684      10.07051724
Si       3.23685484       3.45208013       7.45823167
Si       3.99729536       6.06730700       7.46568479
Si       4.03808914       3.42734331       6.69456225
Si       6.44160954       5.64968162      -2.92583006
Si       1.64432378       3.99320092      -1.05230910
Si      -2.18699846      -0.85780775       9.92606893
Si       5.67310341       4.25215874       1.98721404
Si      -2.50213241      -0.78431944       8.90720561
Si      -1.46511662      -0.86428869       9.14205330
12
Lattice="5.887396641543608 1.5633768022296042 -1.7054431699298243 0.452007568257183 8.017102373435762 0.4437328798506364 -2.9003835818081405 -2.271251547885218 11.381217045227093" Properties=species:S:1:pos:R:3 unique_starting_index=44 config_type=initial n_minim_iter=11 stress="-0.0002185170726123507 -5.1653689373225986e-05 -9.398974558835619e-05 -5.1653689373225986e-05 -0.0007700550284981091 -0.00027475470399285055 -9.398974558835619e-05 -0.00027475470399285055 -7.937459624885243e-05" pbc="T T T"
Si      -1.42498025       1.80568809       9.32390479
Si      -0.36389059       4.78134723       3.88951893
Si      -1.61481678       4.43636380      10.07061402
Si       3.23432014       3.45001976       7.45649879
Si       3.99377644       6.06540827       7.46320798
Si       4.03499304       3.42574211       6.69266641
Si       6.44130171       5.64856749      -2.92926233
Si       1.64417878       3.99264668      -1.05374431
Si      -2.18981405      -0.85990614       9.92720367
Si       5.66717872       4.25364856       1.98623936
Si      -2.50479597      -0.78588238       8.90800294
Si      -1.46819035      -0.86563393       9.14331547
12
Lattice="5.887485879508742 1.5620523301233522 -1.7055797282066185 0.4507819012412718 8.017088208520164 0.44572999173634564 -2.9011465829328955 -2.267908569715452 11.380949361035837" Properties=species:S:1:pos:R:3 unique_starting_index=44 config_type=initial n_minim_iter=12 stress="-0.0001896687458509703 -0.00011376372545860317 -0.00017860452379972705 -0.00011376372545860317 -0.0009631445287194176 7.455197674500867e-05 -0.00017860452379972705 7.455197674500867e-05 6.209945292912269e-05" pbc="T T T"
Si      -1.42597177       1.80772103       9.32458999
Si      -0.36420416       4.78446248       3.89078584
Si      -1.61615722       4.43825643      10.07158581
Si       3.23376276       3.45075521       7.45681567
Si       3.99276096       6.06609790       7.46443760
Si       4.03411354       3.42662508       6.69289543
Si       6.44145985       5.64633651      -2.92859193
Si       1.64385308       3.99185214      -1.05288363
Si      -2.19057454      -0.85793717       9.92701349
Si       5.66277532       4.25561068       1.98822268
Si      -2.50519264      -0.78346591       8.90796606
Si      -1.46854817      -0.86285848       9.14323365
12
Lattice="5.8877544620737305 1.5613359906372797 -1.7040797526077154 0.45018120095526337 8.017076005583492 0.4465545091476508 -2.8994469094755533 -2.266430854190235 11.377644471067205" Properties=species:S:1:pos:R:3 unique_starting_index=44 config_type=initial n_minim_iter=13 stress="-1.8502631892992734e-05 -0.00015189021074504502 3.2548146100171404e-05 -0.00015189021074504502 -0.0010490600838803362 5.600660120093828e-06 3.2548146100171404e-05 5.600660120093828e-06 -8.14027584632722e-05" pbc="T T T"
Si      -1.42483236       1.80814566       9.32228175
Si      -0.36329151       4.78731046       3.89033857
Si      -1.61482750       4.43923902      10.06936564
Si       3.23518741       3.45050769       7.45577838
Si       3.99425588       6.06657345       7.46392695
Si       4.03557195       3.42682278       6.69217677
Si       6.44162730       5.64467025      -2.92641059
Si       1.64364667       3.99126246      -1.05177606
Si      -2.18901318      -0.85759815       9.92402086
Si       5.65965012       4.25754336       1.99042720
Si      -2.50337538      -0.78281850       8.90542899
Si      -1.46651559      -0.86213898       9.14057327
12
Lattice="5.887964206398916 1.561185144973388 -1.7021563512338862 0.450278629753375 8.017023010170945 0.44699781009181877 -2.8976978072603523 -2.2655952793163956 11.37174494308804" Properties=species:S:1:pos:R:3 unique_starting_index=44 config_type=initial n_minim_iter=14 stress="0.0001730818525369342 -0.0001862051657752857 4.267784958550778e-05 -0.0001862051657752857 -0.0010876328476970036 -1.1132933946190358e-05 4.267784958550778e-05 -1.1132933946190358e-05 -0.0002507015373597711" pbc="T T T"
Si      -1.42350101       1.80820345       9.31747988
Si      -0.36144403       4.79176057       3.88881661
Si      -1.61271370       4.43888844      10.06491583
Si       3.23652170       3.45020618       7.45308279
Si       3.99623083       6.06607144       7.46101592
Si       4.03771203       3.42724442       6.68986622
Si       6.44200677       5.64304265      -2.92364920
Si       1.64378286       3.99053078      -1.05041546
Si      -2.18700494      -0.85734489       9.91893206
Si       5.65480673       4.26098742       1.99271466
Si      -2.50081770      -0.78287615       8.90057584
Si      -1.46380653      -0.86258493       9.13541979
12
Lattice="5.887265389632795 1.562394733119039 -1.7021571784389151 0.4518039569329948 8.016928063917275 0.4466733584809978 -2.898296277504938 -2.266414668397323 11.369361928356003" Properties=species:S:1:pos:R:3 unique_starting_index=44 config_type=initial n_minim_iter=15 stress="8.423944530401907e-05 -0.0001544256130800544 -0.00010742443617893082 -0.0001544256130800544 -0.0010373060849466853 -6.147438773654456e-05 -0.00010742443617893082 -6.147438773654456e-05 -0.00010738872809662254" pbc="T T T"
Si      -1.42320113       1.80696852       9.31569726
Si      -0.35964612       4.79526826       3.88783979
Si      -1.61196266       4.43765275      10.06232237
Si       3.23555254       3.45039194       7.45098860
Si       3.99652040       6.06593746       7.45892671
Si       4.03759953       3.42737834       6.68729731
Si       6.44213399       5.64362538      -2.92325460
Si       1.64452941       3.98988906      -1.05035079
Si      -2.18651266      -0.85852027       9.91708276
Si       5.65033095       4.26449872       1.99324247
Si      -2.49999726      -0.78424880       8.89788529
Si      -1.46356983      -0.86405949       9.13301454
12
Lattice="5.887348158051801 1.5649068740532273 -1.7018852421308344 0.4551803689699329 8.016776426237104 0.44628128489032337 -2.8997828209582113 -2.2678024103094594 11.364633648165826" Properties=species:S:1:pos:R:3 unique_starting_index=44 config_type=initial n_minim_iter=16 stress="0.000247847832368412 -0.00015130689068546313 -3.651018592507961e-05 -0.00015130689068546313 -0.0006712663209580569 -2.302493395297628e-05 -3.651018592507961e-05 -2.302493395297628e-05 -0.0002869779141825656" pbc="T T T"
Si      -1.42299427       1.80469919       9.31136465
Si      -0.35660284       4.79987280       3.88606215
Si      -1.61027524       4.43574042      10.05826091
Si       3.23576860       3.45136690       7.44701335
Si       3.99820996       6.06654804       7.45471674
Si       4.03823769       3.42750237       6.68375803
Si       6.44370728       5.64616841      -2.92224174
Si       1.64656028       3.98894238      -1.04982478
Si      -2.18604196      -0.86049995       9.91295162
Si       5.64677904       4.26964225       1.99345653
Si      -2.49984439      -0.78566837       8.89315354
Si      -1.46370086      -0.86578313       9.12903670
12
Lattice="5.887508773488134 1.569411165144375 -1.7030170630145558 0.4610756725344242 8.016527976496775 0.4454681753740544 -2.903708093073738 -2.270663967385325 11.362311401974992" Properties=species:S:1:pos:R:3 unique_starting_index=44 config_type=initial n_minim_iter=17 stress="0.0002639529436402694 1.113892580602949e-05 -4.989946315763986e-05 1.113892580602949e-05 -0.00010033265636583422 9.044520391178781e-05 -4.989946315763986e-05 9.044520391178781e-05 -0.00015055693965733858" pbc="T T T"
Si      -1.42373756       1.80162563       9.30904958
Si      -0.35243399       4.80510197       3.88460663
Si      -1.60845967       4.43205744      10.05551129
Si       3.23597968       3.45313445       7.44332459
Si       4.00041747       6.06808796       7.45084305
Si       4.03764147       3.42823608       6.68001098
Si       6.44702935       5.65119858      -2.92331959
Si       1.64981154       3.98831903      -1.04967044
Si      -2.18794044      -0.86336280       9.91031892
Si       5.64358674       4.27686863       1.99277981
Si      -2.50191534      -0.78866375       8.89095294
Si      -1.46519633      -0.86978750       9.12674868
12
Lattice="5.887451484775859 1.571766856074986 -1.704374747953087 0.46378715297356415 8.016482312730782 0.44407315829306865 -2.9062296677257575 -2.273513425341063 11.363116004966054" Properties=species:S:1:pos:R:3 unique_starting_index=44 config_type=initial n_minim_iter=18 stress="2.680626398315702e-05 7.25882476180407e-05 -0.00025789391499612805 7.25882476180407e-05 0.00024080036356151629 -6.147157365742641e-06 -0.00025789391499612805 -6.147157365742641e-06 3.108585080219697e-05" pbc="T T T"
Si      -1.42458387       1.79849548       9.30906954
Si      -0.35070725       4.80739499       3.88372588
Si      -1.60814065       4.42965826      10.05498264
Si       3.23545703       3.45310515       7.44194336
Si       4.00076875       6.06743237       7.44883733
Si       4.03670750       3.42779643       6.67834421
Si       6.44858388       5.65370734      -2.92545248
Si       1.65119241       3.98796888      -1.05050455
Si      -2.18970777      -0.86584320       9.91053826
Si       5.64188585       4.28028874       1.99167562
Si      -2.50350307      -0.79108810       8.89158749
Si      -1.46652845      -0.87269983       9.12698725
12
Lattice="5.887877830405531 1.5738015142922073 -1.7035845730633472 0.4663134116125376 8.016413064400174 0.4428420733420654 -2.904772635579491 -2.2762735359380835 11.363768527492434" Properties=species:S:1:pos:R:3 unique_starting_index=44 config_type=initial n_minim_iter=19 stress="-0.00018250489884774453 0.00012137970839897067 6.620641492697953e-05 0.00012137970839897067 0.0005190648534766917 -2.8429077487087766e-05 6.620641492697953e-05 -2.8429077487087766e-05 0.0001962452132162069" pbc="T T T"
Si      -1.42184031       1.79496561       9.30894829
Si      -0.34759278       4.81073035       3.88281832
Si      -1.60451278       4.42660564      10.05444911
Si       3.23812239       3.45294408       7.44276775
Si       4.00460749       6.06653751       7.44912306
Si       4.03947760       3.42688385       6.67937592
Si       6.45013552       5.65601577      -2.92538990
Si       1.65205157       3.98765703      -1.05117994
Si      -2.18829138      -0.86845376       9.91101398
Si       5.64227285       4.28440411       1.99269010
Si      -2.50213088      -0.79440334       8.89214890
Si      -1.46519899      -0.87557854       9.12739531
12
Lattice="5.888338511281946 1.5756159332793707 -1.7024341612374534 0.46865349081320296 8.016327895752578 0.44188714393931566 -2.902615848655379 -2.2786175335999954 11.364574471903598" Properties=species:S:1:pos:R:3 unique_starting_index=44 config_type=initial n_minim_iter=20 stress="-0.0004509952541266218 0.00022910962498658925 0.00036325607571294845 0.00022910962498658925 0.0007328120244675476 -4.907201676268003e-05 0.00036325607571294845 -4.907201676268003e-05 0.0003826394929140222" pbc="T T T"
Si      -1.41833196       1.79209707       9.30904612
Si      -0.34400393       4.81585600       3.88193972
Si      -1.60051078       4.42378324      10.05418528
Si       3.24120951       3.45172961       7.44428162
Si       4.00887573       6.06523777       7.45029341
Si       4.04276875       3.42545985       6.68105293
Si       6.45157480       5.65759608      -2.92497230
Si       1.65274532       3.98725997      -1.05167311
Si      -2.18635892      -0.87154956       9.91194431
Si       5.64284103       4.29004109       1.99426287
Si      -2.50031086      -0.79661492       8.89280025
Si      -1.46370807      -0.87895807       9.12794926
12
Lattice="5.889037678276913 1.5753407292543384 -1.7030352363545804 0.46820205737516346 8.016398274383725 0.4416570136169255 -2.9043093067564802 -2.2786487026821134 11.363537302802388" Properties=species:S:1:pos:R:3 unique_starting_index=44 config_type=initial n_minim_iter=21 stress="-3.936668880992166e-05 0.00010231900847673145 0.00017111212827041868 0.00010231900847673145 0.0011176274385279708 0.00018034388729707828 0.00017111212827041868 0.00018034388729707828 0.00047796309329011736" pbc="T T T"
Si      -1.41872863       1.79006651       9.30826110
Si      -0.34216427       4.82745417       3.88033036
Si      -1.60240326       4.42151818      10.05353474
Si       3.24063287       3.44875501       7.44300763
Si       4.00726276       6.06333388       7.44832803
Si       4.04194304       3.42223803       6.67942066
Si       6.45270684       5.65524050      -2.92582901
Si       1.65242656       3.98517642      -1.05208077
Si      -2.18805903      -0.87324917       9.91129104
Si       5.64065972       4.29955635       1.99405509
Si      -2.50201804      -0.79859071       8.89235455
Si      -1.46554721      -0.88094597       9.12674305
