24
Lattice="5.175236044239713 1.358349277631903 -0.5319753158862065 6.042395277707321 11.036449440220322 5.37251004059111 4.00005001437686 11.06934525322398 23.018803485024623" Properties=species:S:1:pos:R:3 unique_starting_index=5 config_type=initial n_minim_iter=1 energy=-4329.097252827305 free_energy=-4329.097252827305 pbc="T T T"
Si       6.20217740      11.55234429      13.39904703
Si       9.01550393      11.91179968      14.46029118
Si       6.45450526      10.81493830      13.92972984
Si       8.76317608      12.64920567      13.92960837
Si      16.19264467      22.77482474      26.96024784
Si      -0.97496333       0.68931923       0.89909037
Si       6.92644690      15.77724092      24.61442180
Si       8.29123444       7.68690305       3.24491641
Si       3.75913727       7.69829309       6.11530186
Si      11.45854406      15.76585088      21.74403635
Si       9.04285099      11.52193024      13.61965577
Si       6.17483034      11.94221373      14.23968244
Si       7.88231338      14.06485648      22.67433255
Si       7.33536795       9.39928749       5.18500566
Si      11.84631548      14.92929050      22.46542256
Si       3.37136586       8.53485348       5.39391565
Si       3.47882710       4.04302642       2.18422215
Si      11.73885424      19.42111756      25.67511606
Si       2.56795453       7.01782415       6.44587772
Si      12.64972681      16.44631982      21.41346048
Si       6.44372498      11.24980850      14.71054776
Si       8.77395636      12.21433547      13.14879045
Si       2.98386955       5.46057160       4.43337833
Si      12.23381178      18.00357237      23.42595988
24
Lattice="5.168333567448183 1.3597525917367632 -0.5864091292577571 5.981037522702292 11.049130160972494 5.407004271655501 3.720477654884186 11.239576485756322 23.111774447112442" Properties=species:S:1:pos:R:3 unique_starting_index=5 config_type=initial n_minim_iter=2 stress="-0.0024459820693875063 -0.009062148965915841 -0.0036075703758344487 -0.009062148965915841 0.04049638972369585 0.08249323225842775 -0.0036075703758344487 0.08249323225842775 0.09314224269844155" pbc="T T T"
Si       6.03934720      11.63485449      13.45487181
Si       8.83050154      12.01360474      14.47749778
Si       6.28092638      10.91049824      13.96874828
Si       8.58892236      12.73796100      13.96362131
Si      15.85356500      22.95419388      27.01168332
Si      -0.98371625       0.69426536       0.92068626
Si       6.62887295      15.94558999      24.71537758
Si       8.24097579       7.70286925       3.21699201
Si       3.68628467       7.72569778       6.15034900
Si      11.18356408      15.92276146      21.78202059
Si       8.86630804      11.61356920      13.63987943
Si       6.00354071      12.03489003      14.29249016
Si       7.60178659      14.22838346      22.74311852
Si       7.26806216       9.42007578       5.18925107
Si      11.55991255      15.09372120      22.49405521
Si       3.30993620       8.55473804       5.43831438
Si       3.44764670       4.05353661       2.17793529
Si      11.42220204      19.59492263      25.75443430
Si       2.49473307       7.05279949       6.48898195
Si      12.37511568      16.59565975      21.44338764
Si       6.25842758      11.34615092      14.76074681
Si       8.61142116      12.30230832      13.17162278
Si       2.93151059       5.48630847       4.45126218
Si      11.93833815      18.16215077      23.48110741
24
Lattice="5.166778464413967 1.3639069263372852 -0.6218765114521659 5.958485018537005 10.979549861911432 5.299607237811718 3.5772826528324226 11.125388102317169 22.88709444077108" Properties=species:S:1:pos:R:3 unique_starting_index=5 config_type=initial n_minim_iter=3 stress="0.002757830123563574 0.014071573006710438 -0.0371029516032669 0.014071573006710438 -0.06140597265035827 -0.0016558655313778892 -0.0371029516032669 -0.0016558655313778892 -0.0554205053958073" pbc="T T T"
Si       5.96025190      11.54249237      13.28963968
Si       8.74229424      11.92635252      14.27518549
Si       6.19597557      10.82559324      13.79231601
Si       8.50657057      12.64325165      13.77250915
Si      15.69206637      22.78065139      26.64387413
Si      -0.98952023       0.68819350       0.92095104
Si       6.48076955      15.80277974      24.44667696
Si       8.22177658       7.66606515       3.11814821
Si       3.65312942       7.66813683       6.06188251
Si      11.04941671      15.80070806      21.50294266
Si       8.78034051      11.52615849      13.45441799
Si       5.92220563      11.94268640      14.11040718
Si       7.46143161      14.10589067      22.48547097
Si       7.24111453       9.36295422       5.07935419
Si      11.41945678      14.97159844      22.21125338
Si       3.28308935       8.49724645       5.35357178
Si       3.43419200       4.03106587       2.12545670
Si      11.26835414      19.43777902      25.43936846
Si       2.46156658       7.00084346       6.40611291
Si      12.24097956      16.46800143      21.15871226
Si       6.16728399      11.25189031      14.58209155
Si       8.53526215      12.21695458      12.98273361
Si       2.90872773       5.45092758       4.38188744
Si      11.79381840      18.01791731      23.18293772
24
Lattice="5.130364708079974 1.3837103205087804 -0.6461158148387334 5.898621793626484 11.091689426426953 5.251130230629124 3.490093088200606 11.128527798467358 22.957481591943765" Properties=species:S:1:pos:R:3 unique_starting_index=5 config_type=initial n_minim_iter=4 stress="-0.3489234317275361 -0.06777025609494995 0.016148741582136767 -0.06777025609494995 0.04528264448710589 -0.02251674180996389 0.016148741582136767 -0.02251674180996389 0.006660152159584265" pbc="T T T"
Si       5.86686204      11.60247208      13.31067399
Si       8.65221755      12.00145547      14.25182202
Si       6.10787230      10.88490816      13.78616059
Si       8.41120729      12.71901938      13.77633542
Si      15.52075808      22.89562709      26.62645537
Si      -1.00167849       0.70830046       0.93604064
Si       6.36864576      15.85054594      24.48238073
Si       8.15043383       7.75338160       3.08011528
Si       3.59960736       7.71506618       6.05217758
Si      10.91947223      15.88886136      21.51031843
Si       8.66861325      11.57001889      13.48132038
Si       5.85046634      12.03390866      14.08117563
Si       7.34505009      14.15896827      22.51541431
Si       7.17402950       9.44495928       5.04708170
Si      11.29367070      15.01177200      22.24464045
Si       3.22540889       8.59215554       5.31785556
Si       3.39510831       4.07172642       2.09158231
Si      11.12397128      19.53220112      25.47091370
Si       2.42849159       7.06622174       6.39281659
Si      12.09058800      16.53770581      21.16967942
Si       6.07805929      11.29038042      14.60201524
Si       8.44102030      12.31354712      12.96048076
Si       2.87981732       5.51533639       4.35031772
Si      11.63926227      18.08859116      23.21217829
24
Lattice="5.149528696425343 1.3897336817158685 -0.6493206894065696 5.925812308392521 11.108616273026232 5.2486023099938235 3.503287179084364 11.135440121728937 22.972731707894646" Properties=species:S:1:pos:R:3 unique_starting_index=5 config_type=initial n_minim_iter=5 stress="-0.06983122878599995 0.0034065727369918925 -0.015351137591136692 0.0034065727369918925 0.08626708452498508 -0.029548082882459897 -0.015351137591136692 -0.029548082882459897 0.030552972011005482" pbc="T T T"
Si       5.89007405      11.61512439      13.31810436
Si       8.68855414      12.01866569      14.25390897
Si       6.13238295      10.89811964      13.79017524
Si       8.44624523      12.73567044      13.78183809
Si      15.58589438      22.92350526      26.63351608
Si      -1.00726620       0.71028481       0.93849725
Si       6.39511806      15.86440401      24.49466613
Si       8.18351013       7.76938607       3.07734719
Si       3.61469082       7.72314599       6.05392079
Si      10.96393737      15.91064409      21.51809254
Si       8.70201235      11.58310279      13.48908769
Si       5.87661583      12.05068729      14.08292564
Si       7.37395059      14.17426514      22.52594928
Si       7.20467759       9.45952494       5.04606405
Si      11.33967010      15.02806482      22.25560986
Si       3.23895808       8.60572525       5.31640347
Si       3.40833591       4.07899086       2.08850768
Si      11.17029227      19.55479921      25.48350565
Si       2.44063653       7.07630279       6.39390909
Si      12.13799166      16.55748728      21.17810424
Si       6.10291024      11.30136760      14.60931849
Si       8.47571795      12.33242247      12.96269484
Si       2.89329164       5.52556963       4.34815566
Si      11.68533654      18.10822044      23.22385767
24
Lattice="5.170019134904095 1.3365011239386126 -0.5981464341263972 5.945899146700773 10.938711876751976 5.364994024609953 3.6483847837826375 11.10279220230738 23.04018546216365" Properties=species:S:1:pos:R:3 unique_starting_index=5 config_type=initial n_minim_iter=6 stress="-0.07340415288412462 -0.023205537646754846 0.04463893084236305 -0.023205537646754846 -0.003715491385122409 0.016714887210945554 0.04463893084236305 0.016714887210945554 -0.016752076328264108" pbc="T T T"
Si       5.96472863      11.48838403      13.43084254
Si       8.79957443      11.88962118      14.37619051
Si       6.22185265      10.79156700      13.88757199
Si       8.54245041      12.58643820      13.91946106
Si      15.78782868      22.65434609      26.86462654
Si      -1.02352561       0.72365911       0.94240651
Si       6.54616682      15.75037354      24.61231242
Si       8.21813625       7.62763167       3.19472063
Si       3.63685004       7.61394417       6.13169074
Si      11.12745302      15.76406103      21.67534231
Si       8.80032587      11.44135346      13.62347182
Si       5.96397720      11.93665175      14.18356123
Si       7.52294409      14.07632344      22.63851892
Si       7.24135898       9.30168176       5.16851414
Si      11.52188101      14.87808325      22.41823990
Si       3.24242205       8.49992195       5.38879315
Si       3.42002331       4.01335520       2.13275016
Si      11.34427975      19.36465000      25.67428289
Si       2.47179365       7.00615634       6.44829912
Si      12.29250942      16.37184887      21.35873393
Si       6.20419806      11.19223072      14.71137017
Si       8.56010500      12.18577448      13.09566288
Si       2.92060346       5.46716415       4.38853892
Si      11.84369960      17.91084106      23.41849414
24
Lattice="5.172647192034104 1.3006481490887767 -0.6525765182248129 5.85219090009848 10.78045506480363 5.312934533739637 3.416307737867118 10.846342347626347 23.209121944629313" Properties=species:S:1:pos:R:3 unique_starting_index=5 config_type=initial n_minim_iter=7 stress="-0.05675172884075478 -0.053499373215734246 0.017298465417106588 -0.053499373215734246 -0.022185224709630788 -0.01944270811647437 0.017298465417106588 -0.01944270811647437 0.011398159696516332" pbc="T T T"
Si       5.80818927      11.27372331      13.46584476
Si       8.63295656      11.65372225      14.40363520
Si       6.06114697      10.57199216      13.93770806
Si       8.37999886      12.35545341      13.93177190
Si      15.50426980      22.18530030      26.89689330
Si      -1.06312397       0.74214526       0.97258666
Si       6.27950694      15.42566061      24.75018471
Si       8.16163889       7.50178495       3.11929525
Si       3.53736952       7.47396633       6.13508674
Si      10.90377631      15.45347923      21.73439322
Si       8.64218037      11.20256598      13.63742935
Si       5.79896546      11.72487959      14.23205061
Si       7.27993708      13.78664192      22.74001084
Si       7.16120875       9.14080364       5.12946912
Si      11.30650818      14.53105860      22.50566193
Si       3.13463765       8.39638696       5.36381803
Si       3.37732651       3.95178452       2.09552577
Si      11.06381932      18.97566104      25.77395419
Si       2.39166736       6.90851094       6.45399562
Si      12.04947847      16.01893462      21.41548434
Si       6.04822561      10.97779035      14.75336860
Si       8.39292022      11.94965522      13.11611136
Si       2.86694198       5.39892414       4.35678492
Si      11.57420385      17.52852143      23.51269504
24
Lattice="5.156111494855165 1.374949096249131 -0.6428077025117616 5.963938579963378 10.92533511293547 5.317693853755194 3.5556242559946023 11.005753736765183 23.127062763604002" Properties=species:S:1:pos:R:3 unique_starting_index=5 config_type=initial n_minim_iter=8 stress="-0.10557611827816919 0.026392140025746587 0.04984250193193926 0.026392140025746587 -0.01785829851736818 -0.009579498689701427 0.04984250193193926 -0.009579498689701427 -0.045058965719453066" pbc="T T T"
Si       5.92876776      11.44021256      13.43223561
Si       8.74690657      11.86582539      14.36971330
Si       6.16406112      10.73155853      13.90806593
Si       8.51161321      12.57447941      13.89388298
Si      15.74865525      22.54746964      26.81790025
Si      -1.07298092       0.75856830       0.98404866
Si       6.46254731      15.64490674      24.67924537
Si       8.21312702       7.66113120       3.12270354
Si       3.60452747       7.55983850       6.13227512
Si      11.07114686      15.74619944      21.66967379
Si       8.74419403      11.40406612      13.59864327
Si       5.93148030      11.90197183      14.20330565
Si       7.43126346      14.02028922      22.65733377
Si       7.24441087       9.28574872       5.14461514
Si      11.46549391      14.79463692      22.44734822
Si       3.21018042       8.51140103       5.35460069
Si       3.40440844       4.02561002       2.08952861
Si      11.27126590      19.28042793      25.71242031
Si       2.47838625       7.00299351       6.43572892
Si      12.19728808      16.30304443      21.36622000
Si       6.17227665      11.15878859      14.70160915
Si       8.50339768      12.14724936      13.10033976
Si       2.92956209       5.49100435       4.32797917
Si      11.74611224      17.81503360      23.47396975
24
Lattice="5.162980441186107 1.3472143592384018 -0.6563995035109459 5.8583464707155954 11.054512973585629 5.2549367786657335 3.356257839308482 11.216012882623557 22.838014277059678" Properties=species:S:1:pos:R:3 unique_starting_index=5 config_type=initial n_minim_iter=9 stress="-0.08025398093008686 -0.01606023885870981 0.033398926147312276 -0.01606023885870981 0.012570434570289451 -0.0009419830068412449 0.033398926147312276 -0.0009419830068412449 -0.08104684291098882" pbc="T T T"
Si       5.76826653      11.60448920      13.27069423
Si       8.60931823      12.01325101      14.16585732
Si       6.02137670      10.87714790      13.73156326
Si       8.35620805      12.74059231      13.70498829
Si      15.49481266      22.80973077      26.44499632
Si      -1.11722790       0.80800944       0.99155523
Si       6.21671915      15.89766908      24.38089548
Si       8.16086560       7.72007114       3.05565607
Si       3.50224916       7.65531404       6.05895145
Si      10.87533559      15.96242617      21.37760010
Si       8.61330696      11.54778597      13.40808809
Si       5.76427779      12.06995424      14.02846346
Si       7.21668499      14.24443071      22.35661411
Si       7.16089976       9.37330950       5.07993744
Si      11.27843420      14.97497922      22.14029009
Si       3.09915055       8.64276100       5.29626146
Si       3.37045397       4.06330338       2.06020832
Si      11.00713079      19.55443684      25.37634324
Si       2.39660813       7.11232319       6.35742667
Si      11.98097662      16.50541702      21.07912488
Si       6.01414949      11.32885141      14.50349083
Si       8.36343526      12.28888880      12.93306072
Si       2.87047114       5.56883466       4.25927219
Si      11.50711361      18.04890555      23.17727936
24
Lattice="5.159633829589642 1.3630876734096395 -0.6628449517886246 5.879637348443178 11.063703724724 5.259324810073116 3.374058510107051 11.191407835164636 22.92212786187696" Properties=species:S:1:pos:R:3 unique_starting_index=5 config_type=initial n_minim_iter=10 stress="-0.08329798173015347 -0.011438487076931752 0.02939105226323891 -0.011438487076931752 -0.004079619695809224 -0.0056180084298285814 0.02939105226323891 -0.0056180084298285814 -0.07301799614291474" pbc="T T T"
Si       5.78829022      11.60029094      13.31918920
Si       8.62503947      12.01790830      14.19941852
Si       6.05045448      10.87255558      13.76910518
Si       8.36287521      12.74564365      13.74950254
Si      15.55655246      22.79006486      26.51204252
Si      -1.14322277       0.82813437       1.00656520
Si       6.23452309      15.87085615      24.47281967
Si       8.17880660       7.74734309       3.04578805
Si       3.50182829       7.65619018       6.07043196
Si      10.91150140      15.96200905      21.44817576
Si       8.62744842      11.55595015      13.44813885
Si       5.78588126      12.06224909      14.07046887
Si       7.23527910      14.23472443      22.42739856
Si       7.17805059       9.38347481       5.09120916
Si      11.30982259      14.96619487      22.21151078
Si       3.10350710       8.65200436       5.30709694
Si       3.38332893       4.07141753       2.07219604
Si      11.03000076      19.54678171      25.44641168
Si       2.41556896       7.10888279       6.37125246
Si      11.99776073      16.50931644      21.14735526
Si       6.03019399      11.33545472      14.54405525
Si       8.38313570      12.28274451      12.97455247
Si       2.87946821       5.57523320       4.26269631
Si      11.53386147      18.04296603      23.25591141
24
Lattice="5.159375894898785 1.3699777198500147 -0.6670823657500686 5.900696699724675 11.030278749622642 5.28163179672101 3.394113911926775 11.144268712382168 23.038794352245702" Properties=species:S:1:pos:R:3 unique_starting_index=5 config_type=initial n_minim_iter=11 stress="-0.07234053800408356 -0.010403038014882007 0.026613080572116015 -0.010403038014882007 -0.01837025004296879 -0.015645939841840928 0.026613080572116015 -0.015645939841840928 -0.04830896171765217" pbc="T T T"
Si       5.81401807      11.55501856      13.38582829
Si       8.64016843      11.98950662      14.26751550
Si       6.06838092      10.83446699      13.83878912
Si       8.38580559      12.71005819      13.81455467
Si      15.62528146      22.69899723      26.63140122
Si      -1.17109495       0.84552795       1.02194256
Si       6.25467992      15.80289971      24.59773661
Si       8.19950659       7.74162548       3.05560717
Si       3.50149561       7.63685375       6.09054761
Si      10.95269089      15.90767143      21.56279617
Si       8.65935239      11.51668466      13.51228242
Si       5.79483412      12.02784052      14.14106136
Si       7.25826623      14.18688566      22.53791095
Si       7.19592028       9.35763952       5.11543283
Si      11.34183941      14.92207211      22.32024243
Si       3.11234709       8.62245307       5.33310135
Si       3.40258487       4.06527319       2.09356331
Si      11.05160164      19.47925199      25.55978048
Si       2.43398060       7.07577550       6.39899677
Si      12.02020590      16.46874969      21.25434701
Si       6.05062494      11.29428873      14.61176673
Si       8.40356157      12.25023645      13.04157706
Si       2.88605992       5.57004886       4.28153805
Si      11.56812659      17.97447633      23.37180573
24
Lattice="5.162754497585825 1.3663861457029451 -0.6683773855667834 5.870595064635231 11.12300147567701 5.2747661803872194 3.314515272028471 11.339104645006442 22.867292220411805" Properties=species:S:1:pos:R:3 unique_starting_index=5 config_type=initial n_minim_iter=12 stress="-0.046938452905536346 -0.021989149470685893 0.017734924826717055 -0.021989149470685893 0.01604088480258584 -0.00673232290897498 0.017734924826717055 -0.00673232290897498 -0.05110516929501215" pbc="T T T"
Si       5.77151620      11.69576166      13.30187050
Si       8.57634864      12.13273061      14.17181052
Si       6.02394272      10.96774370      13.75202387
Si       8.32392212      12.86074856      13.72165715
Si      15.55623483      22.94700541      26.44404502
Si      -1.20837000       0.88148686       1.02963599
Si       6.15712271      16.02459135      24.43394111
Si       8.19074212       7.80390091       3.03973991
Si       3.45741609       7.72573684       6.05197159
Si      10.89044875      16.10275543      21.42170943
Si       8.61018398      11.63981279      13.42196558
Si       5.73768085      12.18867947      14.05171543
Si       7.17720393      14.39586125      22.37573360
Si       7.17066090       9.43263102       5.09794742
Si      11.26792605      15.12733075      22.15199252
Si       3.07993878       8.70116151       5.32168850
Si       3.40630827       4.10523275       2.09668287
Si      10.94155656      19.72325952      25.37699815
Si       2.41005078       7.14295007       6.36702601
Si      11.93781405      16.68554220      21.10665500
Si       6.00406509      11.43613570      14.50905834
Si       8.34379974      12.39235656      12.96462268
Si       2.86094177       5.64468283       4.25981038
Si      11.48692306      18.18380944      23.21387063
24
Lattice="5.175979238508802 1.3343417706476113 -0.6757026650407418 5.84606676134481 11.011590311069757 5.340233722332461 3.2461961798802754 11.315198805287174 23.025927186447305" Properties=species:S:1:pos:R:3 unique_starting_index=5 config_type=initial n_minim_iter=13 stress="0.006005748162735834 -0.03208024365864464 0.022897157576487304 -0.03208024365864464 -0.00029452202040624475 -0.03834379957598159 0.022897157576487304 -0.03834379957598159 -0.004541890066537074" pbc="T T T"
Si       5.72058299      11.62391685      13.41039045
Si       8.54765919      12.03721404      14.28006779
Si       5.99324491      10.86767149      13.87129042
Si       8.27499727      12.79345940      13.81916782
Si      15.55331873      22.74220209      26.63064328
Si      -1.28507655       0.91892880       1.05981496
Si       6.06687149      15.93444451      24.64545441
Si       8.20137069       7.72668638       3.04500383
Si       3.39372481       7.69629890       6.08017760
Si      10.87451737      15.96483199      21.61028064
Si       8.56984233      11.53454233      13.52895812
Si       5.69839985      12.12658855      14.16150012
Si       7.11868799      14.34142379      22.53367672
Si       7.14955419       9.31970710       5.15678153
Si      11.20602549      15.05464902      22.31522034
Si       3.06221669       8.60648187       5.37523791
Si       3.43237525       4.09563435       2.14116872
Si      10.83586693      19.56549654      25.54928953
Si       2.39265522       7.05898845       6.42833440
Si      11.87558696      16.60214244      21.26212384
Si       5.95384584      11.37078620      14.61871817
Si       8.31439634      12.29034469      13.07174007
Si       2.82514243       5.65488836       4.29005034
Si      11.44309975      18.00624253      23.40040791
24
Lattice="5.1880191076230835 1.3104521247517256 -0.6845770040877676 5.804575826364385 10.999446244669262 5.354075399127287 3.1665560100678407 11.331946516017807 23.084486087241903" Properties=species:S:1:pos:R:3 unique_starting_index=5 config_type=initial n_minim_iter=14 stress="0.040756664761719234 -0.022200356319970707 0.0027305716981674837 -0.022200356319970707 0.016224357603907558 -0.04210980170159489 0.0027305716981674837 -0.04210980170159489 0.03029865508682462" pbc="T T T"
Si       5.67044214      11.61129116      13.45368727
Si       8.48870880      12.03055372      14.30029721
Si       5.93440908      10.85300610      13.90835978
Si       8.22474186      12.78883878      13.84562470
Si      15.50860342      22.69287611      26.68130387
Si      -1.34945248       0.94896877       1.07268061
Si       5.94863774      15.91355843      24.73272836
Si       8.21051320       7.72828646       3.02125612
Si       3.31693731       7.72694628       6.07122117
Si      10.84221364      15.91489861      21.68276331
Si       8.52210384      11.51429162      13.56072100
Si       5.63704710      12.12755327      14.19326348
Si       7.04697595      14.36380518      22.58543365
Si       7.11217499       9.27803971       5.16855083
Si      11.11600444      15.04793529      22.38194460
Si       3.04314650       8.59390959       5.37203989
Si       3.45102223       4.11173056       2.15629435
Si      10.70812871      19.53011433      25.59769013
Si       2.36431478       7.03634037       6.45342042
Si      11.79483616      16.60550451      21.30056406
Si       5.90080598      11.38161958      14.64382549
Si       8.25834496      12.26022531      13.11015899
Si       2.77634568       5.69442627       4.28211250
Si      11.38280526      17.94741862      23.47187198
24
Lattice="5.204588286556576 1.2879386832313804 -0.6444859529511133 5.832472919700369 10.973690642612748 5.433684911073832 3.302112048655869 11.381535225710543 23.138956227138856" Properties=species:S:1:pos:R:3 unique_starting_index=5 config_type=initial n_minim_iter=15 stress="0.06156490119719341 -0.008530593625391124 -0.009075841158860556 -0.008530593625391124 0.012616065182297223 -0.031605132813263354 -0.009075841158860556 -0.031605132813263354 0.03661460885307271" pbc="T T T"
Si       5.76589054      11.60690218      13.52641172
Si       8.57328271      12.03626237      14.40174346
Si       6.02537716      10.86034793      13.99076225
Si       8.31379610      12.78281662      13.93739294
Si      15.71429601      22.68435913      26.85993783
Si      -1.37512276       0.95880542       1.06821736
Si       6.06608045      15.93350959      24.84145532
Si       8.27309281       7.70965496       3.08669987
Si       3.32316127       7.73812855       6.11590311
Si      11.01601198      15.90503600      21.81225208
Si       8.61395397      11.50292916      13.65485077
Si       5.72521928      12.14023539      14.27330441
Si       7.19293529      14.40516738      22.68376641
Si       7.14623796       9.23799717       5.24438877
Si      11.25406289      15.06070608      22.51743899
Si       3.08511037       8.58245847       5.41071619
Si       3.49322953       4.11699329       2.19991275
Si      10.84594373      19.52617126      25.72824244
Si       2.40716408       7.02944246       6.49766520
Si      11.93200918      16.61372209      21.43048999
Si       5.97222484      11.38841533      14.71699444
Si       8.36694842      12.25474922      13.21116075
Si       2.77989854       5.70621483       4.29361911
Si      11.55927471      17.93694973      23.63453607
24
Lattice="5.245990144813096 1.2312008801176333 -0.539479002698217 5.919844136020649 10.85503744860419 5.627041242690573 3.688620491630015 11.409455696179018 23.295927141595044" Properties=species:S:1:pos:R:3 unique_starting_index=5 config_type=initial n_minim_iter=16 stress="0.19971947213799657 0.009155258961534254 0.002912113472245789 0.009155258961534254 0.018195049136995774 -0.043903863405104784 0.002912113472245789 -0.043903863405104784 0.05778410518492201" pbc="T T T"
Si       6.04196427      11.55099822      13.72489616
Si       8.81249050      11.94469580      14.65859323
Si       6.26992118      10.80070835      14.19896450
Si       8.58453359      12.69498567      14.18452489
Si      16.25174135      22.54051341      27.31924113
Si      -1.39728658       0.95518061       1.06424825
Si       6.43529247      15.85760639      25.11565176
Si       8.41916231       7.63808763       3.26783762
Si       3.39734589       7.69213026       6.24518694
Si      11.45710889      15.80356377      22.13830244
Si       8.88874924      11.42311895      13.91715118
Si       5.96570553      12.07257507      14.46633820
Si       7.60280267      14.38957022      22.95477202
Si       7.25165210       9.10612381       5.42871736
Si      11.65971767      14.98191128      22.87296427
Si       3.19473710       8.51378275       5.51052511
Si       3.58030779       4.09816821       2.28247030
Si      11.27414698      19.39752581      26.10101908
Si       2.52456390       6.97161759       6.60534847
Si      12.32989088      16.52407644      21.77814091
Si       6.20086419      11.33760299      14.91780651
Si       8.65359058      12.15809104      13.46568288
Si       2.79885959       5.68994467       4.35077788
Si      12.05559519      17.80574935      24.03271150
24
Lattice="5.251332268706192 1.224203162343151 -0.527099719379489 5.93526875925541 10.82507979755808 5.660080412470621 3.733928636812295 11.415924328804358 23.32300003265625" Properties=species:S:1:pos:R:3 unique_starting_index=5 config_type=initial n_minim_iter=17 stress="0.1846397176551184 0.024471516328376856 -0.003745625874072576 0.024471516328376856 0.01853901221915008 -0.04746829116951886 -0.003745625874072576 -0.04746829116951886 0.053307388539622164" pbc="T T T"
Si       6.07415363      11.52902259      13.75053131
Si       8.84637604      11.93618469      14.70544942
Si       6.30089738      10.79226196      14.23000318
Si       8.61963228      12.67294533      14.22597755
Si      16.33120160      22.52383164      27.39060080
Si      -1.41067194       0.94137565       1.06537993
Si       6.46478140      15.83587334      25.17849789
Si       8.45574827       7.62933395       3.27748283
Si       3.40438674       7.68232639       6.26740042
Si      11.51614293      15.78288090      22.18858031
Si       8.92490405      11.40603059      13.95677978
Si       5.99562562      12.05917670      14.49920094
Si       7.65355207      14.39002157      23.00618750
Si       7.26697760       9.07518572       5.44979322
Si      11.70323233      14.95900448      22.93955177
Si       3.21729733       8.50620281       5.51642896
Si       3.59143457       4.10471634       2.28051267
Si      11.32909510      19.36049095      26.17546805
Si       2.54346192       6.94652322       6.63097717
Si      12.37706775      16.51868407      21.82500355
Si       6.23303235      11.32506533      14.95548340
Si       8.68749731      12.14014196      13.50049732