12
Lattice="5.880968672356105 1.516397339209922 -1.7093607073397348 0.3948926040149596 8.018900185812575 0.4718518789742684 -2.880919855645951 -2.2162562629117244 11.45167424586407" Properties=species:S:1:pos:R:3 unique_starting_index=44 config_type=initial n_minim_iter=1 energy=-2129.4920851986026 free_energy=-2129.4920851986026 pbc="T T T"
Si      -1.43014452       1.91178936       9.39118377
Si      -0.53983755       4.47948308       3.96557889
Si      -1.62506863       4.53795255      10.14762686
Si       3.22182999       3.50158035       7.52947583
Si       3.95380544       6.12227114       7.54448255
Si       4.01792505       3.48563727       6.75797589
Si       6.41887491       5.64296821      -2.92737568
Si       1.63226078       4.04167064      -1.05980076
Si      -2.17361636      -0.76196738       9.98794639
Si       5.71355074       3.95523956       1.97296088
Si      -2.49035429      -0.68560502       8.97310037
Si      -1.45288414      -0.75930134       9.20446152
12
Lattice="5.883351763505257 1.5169162771859734 -1.7087939659179774 0.39617948832005156 8.017790720387586 0.47215371167449527 -2.8816058509829543 -2.2158803951284174 11.45053996439487" Properties=species:S:1:pos:R:3 unique_starting_index=44 config_type=initial n_minim_iter=2 stress="0.0005929346693046806 0.00012180124717907977 -0.0002992859855372862 0.00012180124717907977 -0.006389345621509121 -0.00012928090473801452 -0.0002992859855372862 -0.00012928090473801452 0.0002872496063573136" pbc="T T T"
Si      -1.42989704       1.91139132       9.39009703
Si      -0.53924254       4.47905169       3.96539345
Si      -1.62464231       4.53761409      10.14680933
Si       3.22421709       3.50132737       7.52913588
Si       3.95664529       6.12211935       7.54463588
Si       4.02042020       3.48604767       6.75805656
Si       6.42234681       5.64297507      -2.92657408
Si       1.63330444       4.04111070      -1.05921680
Si      -2.17391489      -0.76151627       9.98745171
Si       5.71629085       3.95557028       1.97330393
Si      -2.49077799      -0.68542127       8.97198767
Si      -1.45299875      -0.75890282       9.20351479
12
Lattice="5.884253533321461 1.5173858257263741 -1.708482238124168 0.3967001480146567 8.018764458747949 0.47231172581186626 -2.8817466893625627 -2.21606803826821 11.449929182634323" Properties=species:S:1:pos:R:3 unique_starting_index=44 config_type=initial n_minim_iter=3 stress="0.001310506516693226 0.0006959013193766081 -0.0003276366368996372 0.0006959013193766081 0.00034935835132249694 0.0003735012243659915 -0.0003276366368996372 0.0003735012243659915 0.0005831189305156374" pbc="T T T"
Si      -1.42968919       1.91159735       9.38954601
Si      -0.53896457       4.47970071       3.96529204
Si      -1.62436861       4.53832991      10.14638343
Si       3.22524277       3.50185746       7.52896703
Si       3.95783349       6.12317506       7.54469735
Si       4.02146529       3.48687197       6.75808390
Si       6.42369897       5.64397189      -2.92613473
Si       1.63369632       4.04158686      -1.05892400
Si      -2.17392007      -0.76141401       9.98714874
Si       5.71736354       3.95641589       1.97349677
Si      -2.49083279      -0.68542499       8.97140999
Si      -1.45295078      -0.75883602       9.20301494
12
Lattice="5.882415008394493 1.5166895222183896 -1.7072171899053523 0.39544144979077445 8.018926210494973 0.47146673619023133 -2.8788641891394215 -2.2168193832657233 11.44670330169185" Properties=species:S:1:pos:R:3 unique_starting_index=44 config_type=initial n_minim_iter=4 stress="-0.0006598186628788687 -2.5703082556732444e-05 6.09407561867809e-05 -2.5703082556732444e-05 -5.638658795112105e-05 0.00016589729653605792 6.09407561867809e-05 0.00016589729653605792 -0.000520191935420693" pbc="T T T"
Si      -1.42806586       1.91070862       9.38647493
Si      -0.53898240       4.47974737       3.96369192
Si      -1.62323874       4.53777092      10.14304171
Si       3.22541548       3.50035806       7.52712187
Si       3.95716125       6.12200171       7.54291512
Si       4.02112990       3.48588747       6.75675649
Si       6.42138326       5.64361108      -2.92495073
Si       1.63240274       4.04143409      -1.05859373
Si      -2.17167244      -0.76193313       9.98462073
Si       5.71559448       3.95553322       1.97351523
Si      -2.48852644      -0.68591284       8.96856179
Si      -1.45116653      -0.75957881       9.20033055
12
Lattice="5.883309060875674 1.5164017370852705 -1.7071246691042437 0.3947421448140394 8.018951184962988 0.4702009354711168 -2.8782181164907032 -2.218488442323522 11.447959295321386" Properties=species:S:1:pos:R:3 unique_starting_index=44 config_type=initial n_minim_iter=5 stress="2.9431418896124016e-05 -0.0003176945975790681 0.00045832905408378405 -0.0003176945975790681 -1.8970803087225802e-05 -0.0004289847196915045 0.00045832905408378405 -0.0004289847196915045 0.0011606849819373384" pbc="T T T"
Si      -1.42745799       1.90921273       9.38697240
Si      -0.53934503       4.47951408       3.96319829
Si      -1.62329709       4.53626639      10.14337017
Si       3.22651474       3.49850339       7.52757967
Si       3.95782714       6.12039110       7.54291734
Si       4.02219460       3.48468299       6.75702192
Si       6.42238490       5.64379927      -2.92572209
Si       1.63214473       4.04149028      -1.05905008
Si      -2.17121284      -0.76343569       9.98582248
Si       5.71623182       3.95479851       1.97354337
Si      -2.48793508      -0.68736561       8.96922882
Si      -1.45085368      -0.76116278       9.20108091
12
Lattice="5.884642069917198 1.516566563827025 -1.7070687946471141 0.3950151957628903 8.018988512651283 0.4700768648843796 -2.880027528673193 -2.2184437104449994 11.44385979157328" Properties=species:S:1:pos:R:3 unique_starting_index=44 config_type=initial n_minim_iter=6 stress="0.00019402347366418923 6.06750206840108e-05 -0.00010779597617141979 6.06750206840108e-05 -2.3216982849615136e-05 -0.00016900793402821685 -0.00010779597617141979 -0.00016900793402821685 -0.00023929951806050037" pbc="T T T"
Si      -1.42824887       1.90926395       9.38362449
Si      -0.53991794       4.47995110       3.96166764
Si      -1.62468331       4.53633449      10.13994966
Si       3.22659331       3.49833941       7.52451058
Si       3.95777630       6.12044465       7.53965556
Si       4.02242522       3.48515309       6.75389204
Si       6.42462679       5.64423908      -2.92536112
Si       1.63261203       4.04160304      -1.05867422
Si      -2.17279787      -0.76345281       9.98241625
Si       5.71683246       3.95516293       1.97225317
Si      -2.48908798      -0.68764603       8.96601508
Si      -1.45244754      -0.76127178       9.19754444
12
Lattice="5.884109928645044 1.5160446509431087 -1.7066114174778693 0.3946964413615412 8.018913290151568 0.47135853693956686 -2.8793279599067088 -2.2164835663575166 11.443367804058784" Properties=species:S:1:pos:R:3 unique_starting_index=44 config_type=initial n_minim_iter=7 stress="-0.00033680211484038664 0.00016624044010885624 0.000221731349520717 0.00016624044010885624 -0.00011959598731189567 0.0006006541438577772 0.000221731349520717 0.0006006541438577772 0.00033472753490277235" pbc="T T T"
Si      -1.42739390       1.91077805       9.38370512
Si      -0.54012094       4.48096362       3.96216675
Si      -1.62441590       4.53797051      10.14073444
Si       3.22662342       3.49910642       7.52515188
Si       3.95740735       6.12108328       7.54073624
Si       4.02230535       3.48594941       6.75437074
Si       6.42413634       5.64337237      -2.92423099
Si       1.63242693       4.04140298      -1.05772498
Si      -2.17238970      -0.76179417       9.98221601
Si       5.71589850       3.95539321       1.97314783
Si      -2.48855129      -0.68625595       8.96582433
Si      -1.45210054      -0.75971734       9.19732459
12
Lattice="5.885118076211899 1.514676986040739 -1.7072761692628982 0.39209889162497213 8.019089795205453 0.46894492457954967 -2.881138324485664 -2.218730719178526 11.439525164777894" Properties=species:S:1:pos:R:3 unique_starting_index=44 config_type=initial n_minim_iter=8 stress="-4.440775574541218e-05 6.225767567164656e-05 -9.231261210283701e-05 6.225767567164656e-05 4.856325595662581e-05 -0.0002442254817868516 -9.231261210283701e-05 -0.0002442254817868516 -0.0001190846757341513" pbc="T T T"
Si      -1.42819214       1.90886628       9.37882640
Si      -0.54312318       4.48193208       3.95867436
Si      -1.62801084       4.53597503      10.13575871
Si       3.22533187       3.49551179       7.52037492
Si       3.95468971       6.11755781       7.53536352
Si       4.02109323       3.48264028       6.74942293
Si       6.42485103       5.64173989      -2.92554188
Si       1.63216242       4.04160172      -1.05793778
Si      -2.17472670      -0.76405098       9.97853605
Si       5.71377352       3.95402203       1.97057916
Si      -2.49060656      -0.68817339       8.96267859
Si      -1.45385818      -0.76152078       9.19389894
12
Lattice="5.886032352248534 1.5123251460026352 -1.70693829699493 0.3891143247177356 8.01912726316972 0.46943831128535063 -2.881388764999976 -2.2167810157379497 11.43662125159912" Properties=species:S:1:pos:R:3 unique_starting_index=44 config_type=initial n_minim_iter=9 stress="0.00021569172494588225 -0.00020571558702601138 0.00012432897240084023 -0.00020571558702601138 7.172500114912703e-05 0.00019724486079749712 0.00012432897240084023 0.00019724486079749712 -0.00026409468855317914" pbc="T T T"
Si      -1.42818993       1.91024370       9.37653283
Si      -0.54589254       4.48425398       3.95729358
Si      -1.63030995       4.53739126      10.13395637
Si       3.22525556       3.49422324       7.51841814
Si       3.95294988       6.11688065       7.53390171
Si       4.02058143       3.48094032       6.74791804
Si       6.42517709       5.63845885      -2.92454976
Si       1.63134149       4.04135355      -1.05729231
Si      -2.17547564      -0.76265031       9.97633687
Si       5.71170404       3.95304712       1.97062923
Si      -2.49170957      -0.68732519       8.96017564
Si      -1.45434704      -0.76031164       9.19187555
12
Lattice="5.88591986543414 1.5120625667835292 -1.7082322423771648 0.3882616756334129 8.019271530964179 0.4682477679873658 -2.8829101983512198 -2.2182348356348 11.438235751196762" Properties=species:S:1:pos:R:3 unique_starting_index=44 config_type=initial n_minim_iter=10 stress="-0.00027986935757103666 0.00043520731651029785 9.258234348600028e-05 0.00043520731651029785 9.745631350603114e-05 -0.00013541146506838048 9.258234348600028e-05 -0.00013541146506838048 -3.741957669661889e-05" pbc="T T T"
Si      -1.42907872       1.90935716       9.37712764
Si      -0.54762022       4.48544592       3.95627544
Si      -1.63199126       4.53576912      10.13437623
Si       3.22443510       3.49235043       7.51777825
Si       3.95107581       6.11504087       7.53287816
Si       4.01898251       3.47910687       6.74753081
Si       6.42556723       5.63787010      -2.92669145
Si       1.63118920       4.04184175      -1.05824341
Si      -2.17683115      -0.76411317       9.97773178
Si       5.70895179       3.95340337       1.96979094
Si      -2.49313597      -0.68892950       8.96095330
Si      -1.45601489      -0.76132480       9.19325631
12
Lattice="5.88681761879895 1.5092362599955287 -1.7097654637698845 0.3842692927933176 8.019495719798668 0.4681855752625351 -2.8850853007624315 -2.216948783222005 11.440013576447317" Properties=species:S:1:pos:R:3 unique_starting_index=44 config_type=initial n_minim_iter=11 stress="0.00018558222862018295 -0.0004270273980368621 -0.0003244365921416111 -0.0004270273980368621 0.0001937535346366037 0.00019814172238454082 -0.0003244365921416111 0.00019814172238454082 8.034692360730502e-05" pbc="T T T"
Si      -1.43210972       1.91012616       9.37837956
Si      -0.55150314       4.48749336       3.95605137
Si      -1.63657481       4.53682262      10.13550852
Si       3.22240855       3.49034786       7.51783441
Si       3.94744879       6.11272900       7.53272448
Si       4.01654289       3.47673856       6.74742478
Si       6.42526084       5.63462125      -2.92869866
Si       1.63002163       4.04141017      -1.05869861
Si      -2.17899068      -0.76340527       9.97919646
Si       5.70587747       3.95197817       1.96924811
Si      -2.49526900      -0.68817041       8.96216919
Si      -1.45848388      -0.76069840       9.19490926
12
Lattice="5.88656275029734 1.5093019471426123 -1.709458873678036 0.38398627630145704 8.01963973950894 0.46700573176377813 -2.883930687850467 -2.2186333702677525 11.440093192771059" Properties=species:S:1:pos:R:3 unique_starting_index=44 config_type=initial n_minim_iter=12 stress="-3.4083336640725135e-05 0.00010412498037620129 5.176656034152012e-05 0.00010412498037620129 0.00018051384173079705 -6.262147177912543e-05 5.176656034152012e-05 -6.262147177912543e-05 2.2852726366541094e-05" pbc="T T T"
Si      -1.43116046       1.90864869       9.37806026
Si      -0.55178051       4.48829330       3.95477535
Si      -1.63546657       4.53569101      10.13445887
Si       3.22336355       3.48845118       7.51773828
Si       3.94823615       6.11135180       7.53209567
Si       4.01699914       3.47530265       6.74726893
Si       6.42493895       5.63465802      -2.92914954
Si       1.63002413       4.04168062      -1.05908095
Si      -2.17787896      -0.76521853       9.97895817
Si       5.70428485       3.95267982       1.96972816
Si      -2.49415148      -0.69000236       8.96204286
Si      -1.45777349      -0.76197684       9.19520920
12
Lattice="5.8862997833470745 1.5074836887061085 -1.7092306775907105 0.3811666882563747 8.019836858268215 0.46600746572943036 -2.882761212869726 -2.2191149299225477 11.439360093746831" Properties=species:S:1:pos:R:3 unique_starting_index=44 config_type=initial n_minim_iter=13 stress="0.00010015758853768032 -0.00012096814826484511 3.230672846421306e-05 -0.00012096814826484511 0.00014588035634414666 0.00010024815903586162 3.230672846421306e-05 0.00010024815903586162 -3.1661071156727607e-06" pbc="T T T"
Si      -1.43153569       1.90748371       9.37720617
Si      -0.55409067       4.49093703       3.95284123
Si      -1.63592661       4.53453392      10.13262825
Si       3.22287121       3.48496026       7.51724862
Si       3.94751742       6.10867763       7.53045455
Si       4.01671428       3.47257802       6.74645165
Si       6.42348193       5.63282620      -2.92933678
Si       1.62921401       4.04155664      -1.05937411
Si      -2.17736661      -0.76580117       9.97812640
Si       5.69984108       3.95334208       1.97076764
Si      -2.49302588      -0.69140991       8.96146878
Si      -1.45634075      -0.76257576       9.19461880
12
Lattice="5.885552312730959 1.5072708215518933 -1.709546352676881 0.3802455305463385 8.019940253868016 0.46418840679923423 -2.882474557482046 -2.2213974134588192 11.438900563203054" Properties=species:S:1:pos:R:3 unique_starting_index=44 config_type=initial n_minim_iter=14 stress="-0.00015971180191727896 -8.767808632366283e-05 -0.000196989999887911 -8.767808632366283e-05 8.486151529711767e-05 -3.804437710785154e-06 -0.000196989999887911 -3.804437710785154e-06 0.00016105176159350086" pbc="T T T"
Si      -1.43199486       1.90535244       9.37587168
Si      -0.55521309       4.49258075       3.95074557
Si      -1.63601186       4.53265024      10.13053314
Si       3.22178697       3.48220352       7.51556184
Si       3.94682692       6.10592604       7.52793157
Si       4.01626229       3.47026862       6.74508592
Si       6.42264030       5.63271651      -2.92989558
Si       1.62897963       4.04180910      -1.06026483
Si      -2.17728085      -0.76838628       9.97760378
Si       5.69593955       3.95483595       1.97087178
Si      -2.49229886      -0.69397654       8.96071513
Si      -1.45534788      -0.76518180       9.19385021
12
Lattice="5.8861963340461525 1.508051197467138 -1.7072025303404619 0.3810867107872891 8.019986121724072 0.4626664903022804 -2.8795325165826884 -2.2237051903409752 11.433370273777294" Properties=species:S:1:pos:R:3 unique_starting_index=44 config_type=initial n_minim_iter=15 stress="0.0003621092265004108 -0.00013652458977168316 0.0004378813276077352 -0.00013652458977168316 -1.3434331061916453e-05 -1.656716530427453e-05 0.0004378813276077352 -1.656716530427453e-05 -0.00031784525214411725" pbc="T T T"
Si      -1.42921888       1.90298251       9.37118607
Si      -0.55410278       4.49419844       3.94750560
Si      -1.63269029       4.53040083      10.12473073
Si       3.22469773       3.48082091       7.51243124
Si       3.95060547       6.10416264       7.52455980
Si       4.01978298       3.46849701       6.74238175
Si       6.42353799       5.63337572      -2.92703437
Si       1.62965164       4.04207291      -1.06013155
Si      -2.17396398      -0.77044772       9.97261845
Si       5.69545366       3.95729387       1.97240835
Si      -2.48907392      -0.69608102       8.95563054
Si      -1.45217147      -0.76770107       9.18949629
12
Lattice="5.8855272522184645 1.5099560663781715 -1.7082836884919788 0.383096315087106 8.019988643480081 0.46109961926821513 -2.881465125154272 -2.2265364594058807 11.432794759290065" Properties=species:S:1:pos:R:3 unique_starting_index=44 config_type=initial n_minim_iter=16 stress="-8.503593123824552e-05 -2.9552529486503038e-05 -0.00017233474020795112 -2.9552529486503038e-05 -0.00016159664244956893 -6.798398036259013e-06 -0.00017233474020795112 -6.798398036259013e-06 8.531149647657639e-05" pbc="T T T"
Si      -1.43026776       1.90001696       9.36968850
Si      -0.55378749       4.49612162       3.94576048
Si      -1.63294738       4.52764831      10.12306493
Si       3.22336024       3.48019300       7.51032721
Si       3.95009696       6.10352831       7.52168741
Si       4.01907088       3.46704820       6.73960799
Si       6.42423116       5.63522194      -2.92847416
Si       1.63101159       4.04241837      -1.06080619
Si      -2.17472591      -0.77294257       9.97180683
Si       5.69221982       3.96109654       1.97202412
Si      -2.48910532      -0.69885091       8.95431389
Si      -1.45308475      -0.77067057       9.18853456
12
Lattice="5.885482341559834 1.5118754174435738 -1.707148086058086 0.38544099604891197 8.019942940499963 0.459818734282767 -2.8802509918847203 -2.22906339702513 11.42953522426596" Properties=species:S:1:pos:R:3 unique_starting_index=44 config_type=initial n_minim_iter=17 stress="4.488070537248587e-05 -3.2116084027429934e-05 0.0001155536011448085 -3.2116084027429934e-05 -0.0002302919773665969 -1.2933424442491609e-05 0.0001155536011448085 -1.2933424442491609e-05 -0.00015320170246648006" pbc="T T T"
Si      -1.42848216       1.89750211       9.36642490
Si      -0.55196659       4.49780889       3.94366504
Si      -1.63019656       4.52518950      10.11961975
Si       3.22575339       3.48012680       7.50839601
Si       3.95290099       6.10288709       7.51919657
Si       4.02097583       3.46616621       6.73747264
Si       6.42511550       5.63758060      -2.92783781
Si       1.63232852       4.04250592      -1.06066268
Si      -2.17302709      -0.77544239       9.96875858
Si       5.69163370       3.96432969       1.97302199
Si      -2.48756243      -0.70129906       8.95097847
Si      -1.45098644      -0.77335631       9.18575746
12
Lattice="5.885515041214506 1.5154622692958841 -1.7084258479259693 0.3897124426313674 8.019845041295838 0.4579462119763371 -2.8825558138643466 -2.233228142852275 11.431176835238215" Properties=species:S:1:pos:R:3 unique_starting_index=44 config_type=initial n_minim_iter=18 stress="-7.653305468246942e-05 4.7166797755469806e-05 -0.00010147771538514003 4.7166797755469806e-05 -0.0002078833970919607 -3.726172006878986e-05 -0.00010147771538514003 -3.726172006878986e-05 7.686400493698515e-05" pbc="T T T"
Si      -1.42834614       1.89317235       9.36694189
Si      -0.54968098       4.50061592       3.94286923
Si      -1.62891594       4.52135920      10.11959148
Si       3.22657268       3.47999092       7.50718095
Si       3.95507753       6.10242428       7.51779211
Si       4.02094039       3.46549519       6.73608599
Si       6.42766623       5.64188910      -2.93024819
Si       1.63436518       4.04219908      -1.06213058
Si      -2.17458238      -0.77894661       9.96925009
Si       5.69048377       3.96945536       1.97329017
Si      -2.48858847      -0.70492365       8.95192095
Si      -1.45166571      -0.77773603       9.18650382
12
Lattice="5.886111129829767 1.5176545575994715 -1.7077749219731515 0.3925622295260325 8.019733839898056 0.45705032689415076 -2.88200266129042 -2.235491485959638 11.430558305595879" Properties=species:S:1:pos:R:3 unique_starting_index=44 config_type=initial n_minim_iter=19 stress="9.559084070232385e-05 4.163105269797377e-05 1.347510811164885e-05 4.163105269797377e-05 -0.00012937499004958718 -2.2063479370769193e-05 1.347510811164885e-05 -2.2063479370769193e-05 -1.6778231230242728e-05" pbc="T T T"
Si      -1.42630885       1.89070896       9.36550208
Si      -0.54717500       4.50336887       3.94223625
Si      -1.62607784       4.51883915      10.11855438
Si       3.22891471       3.48008382       7.50660250
Si       3.95893277       6.10225494       7.51698750
Si       4.02336441       3.46523100       6.73607757
Si       6.42931347       5.64455398      -2.92989834
Si       1.63566697       4.04175163      -1.06250302
Si      -2.17366685      -0.78095261       9.96814006
Si       5.69108330       3.97301621       1.97475723
Si      -2.48766219      -0.70726108       8.95122965
Si      -1.45093229      -0.78043715       9.18605030
12
Lattice="5.885413868247142 1.5196469676610544 -1.7071202209053988 0.3951551339751644 8.019577299062481 0.45646583693448556 -2.8804192354202303 -2.237341209220768 11.431387080753165" Properties=species:S:1:pos:R:3 unique_starting_index=44 config_type=initial n_minim_iter=20 stress="-7.45079749798781e-05 6.441147588343063e-05 3.533084746924097e-05 6.441147588343063e-05 6.917932645768059e-06 -4.101599361318061e-05 3.533084746924097e-05 -4.101599361318061e-05 0.00011324786397826729" pbc="T T T"
Si      -1.42331281       1.88827607       9.36575203
Si      -0.54407164       4.50741240       3.94248221
Si      -1.62283429       4.51657690      10.11852561
Si       3.23034391       3.48018578       7.50778088
Si       3.96238538       6.10190303       7.51767779
Si       4.02538031       3.46490306       6.73691256
Si       6.42919663       5.64655724      -2.92984109
Si       1.63617997       4.04109717      -1.06319812
Si      -2.17206834      -0.78315459       9.96913083
Si       5.69049779       3.97703493       1.97692988
Si      -2.48605252      -0.70934300       8.95124709
Si      -1.44959086      -0.78264845       9.18661516
12
Lattice="5.885925552807664 1.5197857869738411 -1.7064175131934167 0.3956381710873195 8.019501048562377 0.4570966502251355 -2.8800052701411967 -2.236523990443644 11.429870927258845" Properties=species:S:1:pos:R:3 unique_starting_index=44 config_type=initial n_minim_iter=21 stress="4.425748985437664e-06 7.041861451748309e-06 -1.2175180597289682e-05 7.041861451748309e-06 0.00010776925393921284 -4.5680464660756056e-05 -1.2175180597289682e-05 -4.5680464660756056e-05 4.9589605895660476e-05" pbc="T T T"
Si      -1.42278954       1.88790030       9.36473178
Si      -0.54221192       4.51243210       3.94289613
Si      -1.62228221       4.51655962      10.11792298
Si       3.23136299       3.48041993       7.50751077
Si       3.96396724       6.10192542       7.51687717
Si       4.02656986       3.46475539       6.73674316
Si       6.42970459       5.64533638      -2.92904069
Si       1.63576091       4.04029287      -1.06271223
Si      -2.17178708      -0.78336514       9.96805411
Si       5.69053648       3.98027655       1.97844598
Si      -2.48545044      -0.70903625       8.95021251
Si      -1.44907986      -0.78271274       9.18522389
