24
Lattice="10.150483294908586 0.21416227661203088 -3.209514927946165 -4.706208157827992 6.715433883615438 3.3409746416141064 -3.269897947417048 1.8263492429600214 12.998229499522088" Properties=species:S:1:pos:R:3 unique_starting_index=90 config_type=initial n_minim_iter=1 energy=-3944.662819809094 free_energy=-3944.662819809094 pbc="T T T"
Si       5.73445300       1.64194891       6.44465261
Si      -1.05516477       2.37558057       2.44613108
Si       5.19397382       6.46556192       4.22353702
Si       0.06898542       1.89616577       3.12773811
Si       3.41754846       4.01015331      11.76764777
Si      -6.13201015       6.83057650      13.21154008
Si      -0.84217009       2.17585978       4.26956596
Si       0.88630756       5.71694629      10.03893937
Si      -5.58045035       8.63937996      12.59353973
Si       5.60413709       4.25895173       5.97302098
Si       0.58102221       4.38836616       3.70600997
Si       3.25167730       6.21753602       4.55657397
Si       4.29179129       7.94635698       1.89586394
Si       5.50808907       3.37858752       9.57741888
Si      -2.38941638       3.65788792       1.64101618
Si      -7.37886752       8.43141133      13.44678863
Si      -1.94766545       1.71610512       3.31441529
Si       2.86234240       5.46830294      10.48636630
Si       0.15497633       3.40863149      10.19608850
Si      -2.86223693       4.65619970       8.48657802
Si       0.24019671       6.95875665       8.60017110
Si       7.08861147       0.53262601      -0.09224981
Si       5.91483407       3.76253618       4.63006023
Si       0.10992217       5.34801270       5.40841038
24
Lattice="10.164180640062698 0.23773276428796714 -3.1913702633985004 -4.699808427538984 6.674158468518459 3.3103395949157863 -3.2497932735706785 1.7732202131953263 12.985326112445776" Properties=species:S:1:pos:R:3 unique_starting_index=90 config_type=initial n_minim_iter=2 stress="0.003985048162370438 -0.0008022991528583862 0.004375474294338692 -0.0008022991528583862 -0.0008163834418423435 -0.0033569270624031738 0.004375474294338692 -0.0033569270624031738 0.0006934791146950306" pbc="T T T"
Si       5.75869731       1.62334989       6.44936949
Si      -1.04964853       2.35886950       2.43610838
Si       5.22113613       6.43580977       4.21191260
Si       0.07745457       1.87962259       3.12154546
Si       3.45123024       3.96352882      11.76009592
Si      -6.11165272       6.75442515      13.17798032
Si      -0.83225644       2.15327978       4.26064601
Si       0.91408121       5.66545451      10.02151186
Si      -5.55655002       8.56012895      12.55439605
Si       5.63200853       4.23207102       5.96914229
Si       0.59432097       4.36179425       3.69346077
Si       3.27467216       6.18502514       4.54196052
Si       4.31479999       7.91717011       1.87927413
Si       5.54068754       3.34276782       9.57470779
Si      -2.38565789       3.63600658       1.62495183
Si      -7.35567798       8.34619443      13.40519627
Si      -1.94284325       1.69676065       3.30488404
Si       2.89458816       5.41953117      10.47255888
Si       0.17862303       3.36323854      10.18452086
Si      -2.84632944       4.60814189       8.46506414
Si       0.26632617       6.90568577       8.57761608
Si       7.10227681       0.54079062      -0.08129465
Si       5.93959666       3.74270764       4.62850846
Si       0.12800945       5.31050871       5.38903386
24
Lattice="10.160320160810553 0.24578882560857723 -3.1987810689563654 -4.694116189726714 6.663027098666924 3.3127967240534164 -3.256785934952571 1.7677659234158238 12.984342724304401" Properties=species:S:1:pos:R:3 unique_starting_index=90 config_type=initial n_minim_iter=3 stress="-0.004628405344330736 0.0037735665658912973 0.00011526064604502763 0.0037735665658912973 -0.01325981198066192 0.0025210957901551302 0.00011526064604502763 0.0025210957901551302 -0.005601568281912936" pbc="T T T"
Si       5.75035843       1.62599869       6.44285888
Si      -1.04933608       2.35654200       2.43599637
Si       5.22002769       6.43254729       4.20621287
Si       0.07615415       1.87765498       3.12043140
Si       3.44302199       3.96218892      11.75413769
Si      -6.11424657       6.74050383      13.17980951
Si      -0.83285768       2.15032537       4.25995139
Si       0.90993804       5.65960890      10.01780299
Si      -5.55670996       8.54561443      12.55491500
Si       5.62727768       4.23167134       5.96272604
Si       0.59419894       4.35714084       3.69139284
Si       3.27367627       6.18068708       4.53752765
Si       4.31720635       7.91150671       1.87548717
Si       5.53190700       3.34259104       9.56717582
Si      -2.38223937       3.62994963       1.62638092
Si      -7.35428817       8.32925589      13.40721680
Si      -1.94299560       1.69348036       3.30507647
Si       2.88842958       5.41582389      10.46668740
Si       0.17294352       3.35863643      10.18138906
Si      -2.84829784       4.60033483       8.46424929
Si       0.26507087       6.89700643       8.57492512
Si       7.09776620       0.54601358      -0.08744186
Si       5.93490624       3.74330148       4.62234248
Si       0.12812822       5.30414939       5.38641564
24
Lattice="10.168779232142391 0.26027151709171775 -3.2262414160081256 -4.695892884995552 6.666093970530959 3.3180683646412827 -3.2843509069064356 1.7488348514019596 13.00749065578884" Properties=species:S:1:pos:R:3 unique_starting_index=90 config_type=initial n_minim_iter=4 stress="-0.0024449726694104213 0.007624613187017798 -0.0033388717344503467 0.007624613187017798 0.00181743756387975 -0.004041901699148726 -0.0033388717344503467 -0.004041901699148726 0.003254852532845043" pbc="T T T"
Si       5.73586473       1.62580907       6.43697832
Si      -1.05329291       2.36041480       2.43807802
Si       5.21920541       6.44230135       4.19149496
Si       0.07020959       1.87734223       3.12161222
Si       3.42229796       3.95893324      11.75843251
Si      -6.14245453       6.72475137      13.20520068
Si      -0.83829007       2.14854757       4.26440611
Si       0.89319207       5.65682400      10.02226354
Si      -5.57885141       8.53768517      12.57242422
Si       5.62012173       4.23616993       5.95277050
Si       0.58947267       4.35945365       3.68746604
Si       3.26926621       6.18845378       4.52718003
Si       4.32237589       7.92559285       1.85946325
Si       5.51413009       3.33865717       9.56318152
Si      -2.38199433       3.63194563       1.62914838
Si      -7.37454389       8.31407526      13.43124609
Si      -1.94925111       1.69117460       3.31031372
Si       2.87010340       5.41509221      10.46600257
Si       0.15350655       3.34856430      10.19055672
Si      -2.86540197       4.59370140       8.47399499
Si       0.25367847       6.89422266       8.57739249
Si       7.09791376       0.55408621      -0.10536171
Si       5.92869309       3.74939821       4.61088251
Si       0.12222447       5.30495573       5.38382669
24
Lattice="10.190999054125756 0.21997263445434603 -3.23328370274241 -4.734118680864053 6.686651377287359 3.322778113556722 -3.3092859527465737 1.7664678898798445 13.003897342909031" Properties=species:S:1:pos:R:3 unique_starting_index=90 config_type=initial n_minim_iter=5 stress="-0.0014943808967140212 -0.0035395297472258025 -0.0012580472668135968 -0.0035395297472258025 -0.0036286059963218146 -0.0023543589291076293 -0.0012580472668135968 -0.0023543589291076293 0.003617935489215503" pbc="T T T"
Si       5.73063396       1.60869175       6.42915545
Si      -1.06681584       2.37308167       2.43900179
Si       5.20449582       6.42410473       4.18757939
Si       0.05872288       1.87965008       3.12013921
Si       3.40552146       3.95812239      11.75222022
Si      -6.20109071       6.74832429      13.21143173
Si      -0.84764001       2.15641927       4.26288253
Si       0.86416438       5.65952792      10.01928722
Si      -5.63788005       8.56490330      12.57360609
Si       5.61292611       4.21838128       5.94656425
Si       0.56973563       4.35772576       3.68302479
Si       3.24708690       6.17901904       4.52312904
Si       4.30161370       7.90794441       1.86129907
Si       5.50352984       3.31905662       9.55502442
Si      -2.40203090       3.64278592       1.63236359
Si      -7.42827317       8.34142928      13.43515779
Si      -1.96251777       1.70259941       3.30856031
Si       2.84510516       5.41249564      10.45773278
Si       0.13195272       3.34959321      10.18608052
Si      -2.90079784       4.60835743       8.47005266
Si       0.22235797       6.89153566       8.57678088
Si       7.10724776       0.52846117      -0.11453324
Si       5.92190992       3.72985275       4.60593168
Si       0.09953984       5.30551601       5.37874620
24
Lattice="10.20782449931085 0.22418006302841476 -3.2187202243174293 -4.7359272926494835 6.697389804775097 3.31848295024449 -3.304717694273523 1.7795412029797006 12.974984457172495" Properties=species:S:1:pos:R:3 unique_starting_index=90 config_type=initial n_minim_iter=6 stress="0.007715444164314397 0.0012599818786425579 -0.0013829523124424148 0.0012599818786425579 -7.524610370352659e-05 0.0009008305441025257 -0.0013829523124424148 0.0009008305441025257 -0.002635456223802624" pbc="T T T"
Si       5.74500659       1.62256309       6.42095029
Si      -1.06469644       2.38152293       2.43591337
Si       5.22237819       6.44217239       4.18860737
Si       0.06141672       1.88594857       3.11497312
Si       3.42289706       3.98016158      11.73372040
Si      -6.20157333       6.76602066      13.18643051
Si      -0.84248970       2.16434905       4.25467487
Si       0.87727848       5.67906944      10.00465828
Si      -5.63483111       8.58648095      12.55031583
Si       5.63216008       4.23535650       5.94190201
Si       0.57658511       4.36816444       3.67757458
Si       3.26090725       6.19587305       4.52085815
Si       4.31765729       7.92425816       1.86874918
Si       5.52318924       3.33587554       9.54275707
Si      -2.40221837       3.65009450       1.63081543
Si      -7.42483747       8.35949946      13.40972696
Si      -1.96174709       1.70803630       3.30093950
Si       2.86104448       5.43371351      10.44180995
Si       0.14206996       3.36362720      10.16731041
Si      -2.89868320       4.62172222       8.45239336
Si       0.23482777       6.90847167       8.56514352
Si       7.11953189       0.53519284      -0.11053759
Si       5.93880171       3.74476539       4.60425603
Si       0.10854802       5.31856284       5.37046375
24
Lattice="10.171582470609025 0.22516091654512851 -3.1890711540206307 -4.713624790326745 6.713412828921029 3.304027969808688 -3.262646010012737 1.7865029547197864 12.95094790792513" Properties=species:S:1:pos:R:3 unique_starting_index=90 config_type=initial n_minim_iter=7 stress="-0.0053795048997771384 0.00020999475945023056 0.003526947695622277 0.00020999475945023056 0.007747337808208347 -0.0015689149343137373 0.003526947695622277 -0.0015689149343137373 -0.004727316794738681" pbc="T T T"
Si       5.74134413       1.63107771       6.42787192
Si      -1.05326840       2.39315526       2.43252537
Si       5.21839465       6.45980214       4.19872260
Si       0.06691354       1.89136230       3.11117798
Si       3.44225575       3.99598496      11.73021556
Si      -6.15609588       6.78256601      13.15818784
Si      -0.82487864       2.17182443       4.24693666
Si       0.90219495       5.69437157       9.99926648
Si      -5.58913708       8.60805642      12.52228285
Si       5.63510422       4.24887735       5.95014845
Si       0.58572030       4.37866891       3.67092712
Si       3.26610511       6.21285717       4.52316790
Si       4.31373269       7.94183735       1.88112907
Si       5.53258410       3.34368205       9.54831064
Si      -2.38960621       3.66231546       1.62456241
Si      -7.36718592       8.37545197      13.37916198
Si      -1.94535933       1.71396154       3.29144013
Si       2.87771905       5.44942081      10.43671335
Si       0.16796735       3.37158669      10.15589844
Si      -2.87236525       4.63374704       8.43254813
Si       0.25820468       6.92256764       8.55604801
Si       7.09722043       0.53974222      -0.09641271
Si       5.93414460       3.75646501       4.61503704
Si       0.12507824       5.33118712       5.36207372
24
Lattice="10.189393117279975 0.22150032924860039 -3.2008894691839087 -4.722012962909217 6.708416826580117 3.3232438869697885 -3.26849091443146 1.797288667296284 13.001274194713986" Properties=species:S:1:pos:R:3 unique_starting_index=90 config_type=initial n_minim_iter=8 stress="0.0021243398342611795 0.0013918497990114268 0.004616609695341337 0.0013918497990114268 0.004685429380188085 0.002491160979615038 0.004616609695341337 0.002491160979615038 0.007458821570220591" pbc="T T T"
Si       5.74604525       1.63836918       6.45354906
Si      -1.05173861       2.39921572       2.44645348
Si       5.22602687       6.45783455       4.22169945
Si       0.06412503       1.89190817       3.12376031
Si       3.44583811       4.00585938      11.78011745
Si      -6.17314563       6.78633971      13.21536585
Si      -0.82109919       2.17445448       4.26404436
Si       0.90493721       5.69589759      10.04778335
Si      -5.60169751       8.60863899      12.57730530
Si       5.64829492       4.25156762       5.97748476
Si       0.58872439       4.37605353       3.68223271
Si       3.27381141       6.21068671       4.54404275
Si       4.32413680       7.93150514       1.89910944
Si       5.54213246       3.34498504       9.59129155
Si      -2.39200040       3.66397956       1.63623617
Si      -7.37947054       8.37158533      13.44205709
Si      -1.94578131       1.71621812       3.30506997
Si       2.87941153       5.45127509      10.48165632
Si       0.16835496       3.37432177      10.19740029
Si      -2.88172839       4.63553229       8.46486181
Si       0.26014951       6.91755969       8.59354517
Si       7.10656816       0.54214162      -0.10144173
Si       5.94356970       3.75790251       4.63658375
Si       0.12824368       5.32870754       5.38418571
24
Lattice="10.230323112696242 0.20583590137166338 -3.2413098489778394 -4.767409325670522 6.699400132500943 3.3139390274180767 -3.343037108145724 1.7586423771729092 12.977246428466064" Properties=species:S:1:pos:R:3 unique_starting_index=90 config_type=initial n_minim_iter=9 stress="0.0049446457367479536 -0.001313840950479095 -0.0001170390088014467 -0.001313840950479095 0.0010996198476461846 -0.0002452139177862913 -0.0001170390088014467 -0.0002452139177862913 -0.0007385680094899065" pbc="T T T"
Si       5.71701070       1.60367963       6.40410612
Si      -1.06575983       2.40102381       2.44140341
Si       5.20080188       6.42466442       4.16534854
Si       0.04003139       1.87781223       3.10668067
Si       3.38594504       3.95651869      11.72407010
Si      -6.27767708       6.74633422      13.18671600
Si      -0.84036547       2.16024747       4.24774278
Si       0.84576154       5.64886585      10.00757138
Si      -5.70167976       8.56524484      12.54074889
Si       5.62919286       4.21458231       5.92267591
Si       0.56590184       4.35601276       3.64414828
Si       3.24737881       6.17953089       4.49132482
Si       4.31054363       7.89949097       1.85021890
Si       5.50287184       3.28517816       9.53764727
Si      -2.41270239       3.66664748       1.63485399
Si      -7.48572842       8.32228091      13.42207232
Si      -1.96680819       1.70896938       3.29864571
Si       2.81838926       5.39526987      10.42454422
Si       0.11211249       3.32829920      10.15896218
Si      -2.94795169       4.60534069       8.43412319
Si       0.20565762       6.86914139       8.54463597
Si       7.11945282       0.52795573      -0.14444664
Si       5.92540309       3.72391289       4.58484079
Si       0.09525269       5.29914682       5.34405725
24
Lattice="10.251265683693378 0.18076394063834061 -3.2581032982075535 -4.804872995933485 6.71754679218406 3.2973158462565544 -3.389712460512057 1.7394613663502068 12.93196547383949" Properties=species:S:1:pos:R:3 unique_starting_index=90 config_type=initial n_minim_iter=10 stress="0.0009880746927607752 -0.005962355141582142 -0.0015798931989591937 -0.005962355141582142 0.0034081422010495857 -0.0035582674162917614 -0.0015798931989591937 -0.0035582674162917614 0.0005089532951976921" pbc="T T T"
Si       5.67610325       1.58438042       6.35847925
Si      -1.06924605       2.43789069       2.43907047
Si       5.17742500       6.41792068       4.12131460
Si       0.01266519       1.86503483       3.07607789
Si       3.34384828       3.94308906      11.66921327
Si      -6.35869446       6.74008806      13.12581561
Si      -0.83837231       2.15776610       4.22259741
Si       0.78708508       5.62899278       9.97346077
Si      -5.79420597       8.55771431      12.48689203
Si       5.61641893       4.20626663       5.87806519
Si       0.56337953       4.35931360       3.58414485
Si       3.21704673       6.17393683       4.43398253
Si       4.29925252       7.89308589       1.84195449
Si       5.47216407       3.22508539       9.48707870
Si      -2.42614572       3.68611111       1.64428108
Si      -7.57150452       8.31232908      13.39297571
Si      -1.97569830       1.71287035       3.28329095
Si       2.76872961       5.35106013      10.36987484
Si       0.07302268       3.29086896      10.11133715
Si      -3.00615261       4.59523914       8.38077415
Si       0.17095642       6.82807944       8.49001903
Si       7.12068302       0.50751520      -0.18163175
Si       5.89724095       3.70587992       4.54055228
Si       0.08183607       5.28535698       5.28679128
24
Lattice="10.235594738920689 0.20390198778493873 -3.2831113983124247 -4.793067543431801 6.674989573702518 3.2864530122067186 -3.397599615756299 1.6742658281500995 12.974819182304747" Properties=species:S:1:pos:R:3 unique_starting_index=90 config_type=initial n_minim_iter=11 stress="-0.0030812489720547518 -0.0034139804650638148 -0.004471268700917014 -0.0034139804650638148 -0.002519636494771975 -0.004273099532297497 -0.004471268700917014 -0.004273099532297497 -0.001985051484386869" pbc="T T T"
Si       5.63608892       1.56312522       6.36339227
Si      -1.05614665       2.45037656       2.44912165
Si       5.18005324       6.38051045       4.11025866
Si       0.00601678       1.84281427       3.06465829
Si       3.33385002       3.89125721      11.70668873
Si      -6.36012462       6.63839271      13.14856277
Si      -0.82208404       2.13354660       4.22358348
Si       0.76277208       5.56504692      10.00750149
Si      -5.82254795       8.45570632      12.50826890
Si       5.60700306       4.19339396       5.88129679
Si       0.58683251       4.33008589       3.54586128
Si       3.20759145       6.14343104       4.40209909
Si       4.30666303       7.87294285       1.82626808
Si       5.45314910       3.15263592       9.52082866
Si      -2.42833767       3.69217823       1.63683998
Si      -7.57794809       8.21529809      13.43502347
Si      -1.96287832       1.69377476       3.29139277
Si       2.75021752       5.28250751      10.38121271
Si       0.06409500       3.22102135      10.13340276
Si      -3.01455279       4.53414456       8.38064505
Si       0.18025614       6.74117397       8.48736849
Si       7.10741667       0.50665561      -0.20128951
Si       5.86873888       3.68603756       4.53002904
Si       0.09913903       5.23395249       5.25940781
24
Lattice="10.245193753132217 0.23165878277318555 -3.28043189685655 -4.776229726517677 6.643399715698277 3.2908058551514388 -3.370567622533207 1.6514608595405438 13.041922547443928" Properties=species:S:1:pos:R:3 unique_starting_index=90 config_type=initial n_minim_iter=12 stress="-0.005378773786293275 -0.0009564732580861928 -0.0022909358860507055 -0.0009564732580861928 -0.00515869235357051 -0.0008245145056809085 -0.0022909358860507055 -0.0008245145056809085 -0.0004603167693076916" pbc="T T T"
Si       5.64376409       1.56921971       6.40526369
Si      -1.05049923       2.47903487       2.46153595
Si       5.21249793       6.37575380       4.14672628
Si       0.02128145       1.83640667       3.07104780
Si       3.38797959       3.88748627      11.79647822
Si      -6.32715999       6.58399012      13.20031688
Si      -0.79638287       2.12731922       4.23817488
Si       0.78504250       5.54411323      10.08388469
Si      -5.81187759       8.39775247      12.56695882
Si       5.64068138       4.21019489       5.93315702
Si       0.62780495       4.31292660       3.54132891
Si       3.24542714       6.14184796       4.41074044
Si       4.34389990       7.87948913       1.84148051
Si       5.49134777       3.12730786       9.60960618
Si      -2.42428152       3.68145926       1.64705249
Si      -7.55909188       8.16873008      13.51042119
Si      -1.93944832       1.68651313       3.31042707
Si       2.78393002       5.26763394      10.43998107
Si       0.09487893       3.19449847      10.18971568
Si      -2.98838065       4.50013280       8.41250528
Si       0.23055860       6.69646723       8.53107682
Si       7.12323127       0.51747944      -0.19156493
Si       5.88322892       3.68735567       4.56569961
Si       0.14051980       5.20460912       5.26315513
24
Lattice="10.247786746136796 0.2440449531617644 -3.2792681516772695 -4.762635692399359 6.6491652667895975 3.3108579174111146 -3.362047190682788 1.6813321823029888 13.061743154529863" Properties=species:S:1:pos:R:3 unique_starting_index=90 config_type=initial n_minim_iter=13 stress="-0.0012521665869190688 0.0016620644744463446 -0.002380589056466375 0.0016620644744463446 -0.007528591498407666 0.00527625600499579 -0.002380589056466375 0.00527625600499579 0.002077501889412836" pbc="T T T"
Si       5.64359248       1.59402546       6.41377294
Si      -1.04681214       2.50524939       2.47755456
Si       5.23170136       6.41875642       4.16578942
Si       0.03540372       1.84952328       3.07687563
Si       3.41229857       3.93153007      11.83057912
Si      -6.31469454       6.61269318      13.23012208
Si      -0.78887411       2.14810417       4.24008281
Si       0.80123441       5.57781924      10.12348135
Si      -5.80737154       8.42191659      12.60414914
Si       5.65144016       4.24565354       5.96228375
Si       0.64984480       4.31691681       3.55145626
Si       3.26427862       6.17297041       4.41957494
Si       4.36389633       7.91788443       1.87568771
Si       5.50274321       3.15663001       9.62360687
Si      -2.43450844       3.69087920       1.65603889
Si      -7.55732422       8.20101819      13.55748948
Si      -1.91966373       1.70049223       3.32492807
Si       2.79066632       5.30262997      10.47286251
Si       0.10478837       3.22130719      10.20801324
Si      -2.96432821       4.51114513       8.44005850
Si       0.25981189       6.71677785       8.56306673
Si       7.13655633       0.53461336      -0.18773362
Si       5.88730034       3.69838650       4.59501372
Si       0.16320081       5.21120643       5.26721833
24
Lattice="10.232110945420875 0.2540966852814661 -3.2782240989269655 -4.748002624582801 6.64754529309171 3.3119242142840704 -3.3489915749849195 1.677461060511492 13.07685593097384" Properties=species:S:1:pos:R:3 unique_starting_index=90 config_type=initial n_minim_iter=14 stress="-0.0006501725501607355 0.003893064971799773 0.00047123086310284186 0.003893064971799773 -0.0024102063105285853 0.0014942528079744805 0.00047123086310284186 0.0014942528079744805 0.0032971478415512977" pbc="T T T"
Si       5.63715370       1.59581570       6.42081814
Si      -1.04265608       2.51618999       2.48682945
Si       5.24224419       6.42685406       4.17219796
Si       0.04509942       1.85277990       3.07758671
Si       3.41802303       3.93666193      11.84688882
Si      -6.30498492       6.61900574      13.23834599
Si      -0.78415983       2.15619230       4.23871631
Si       0.80917620       5.57892607      10.14234457
Si      -5.79982946       8.41817779      12.62050059
Si       5.64833377       4.25212643       5.97492792
Si       0.66440237       4.31196201       3.55002179
Si       3.26748609       6.18075042       4.41720163
Si       4.36655061       7.93944232       1.87640074
Si       5.50104043       3.15780720       9.63561860
Si      -2.43463852       3.69075483       1.66025280
Si      -7.53377121       8.19309216      13.57075760
Si      -1.90727738       1.70573004       3.33093053
Si       2.79602120       5.29866522      10.49543919
Si       0.10988317       3.21905994      10.21597447
Si      -2.94427891       4.50410382       8.45547263
Si       0.27586169       6.71426359       8.57344414
Si       7.13546228       0.54294886      -0.18276981
Si       5.87982226       3.69530433       4.61400998
Si       0.17485477       5.20508143       5.26750313
24
Lattice="10.241182210038994 0.24046034398240554 -3.2867556398524695 -4.760888573240747 6.658532822786328 3.322618471327465 -3.3633019587111033 1.6937227456696606 13.084236200948643" Properties=species:S:1:pos:R:3 unique_starting_index=90 config_type=initial n_minim_iter=15 stress="-0.0014099584822266711 0.001925984433698119 0.0012367327514739787 0.001925984433698119 0.000395534351512584 0.002754753150933942 0.0012367327514739787 0.002754753150933942 -3.49931365439416e-05" pbc="T T T"
Si       5.63055949       1.59356573       6.41588886
Si      -1.04784724       2.53680285       2.50240513
Si       5.23883005       6.42344337       4.17902907
Si       0.04724979       1.85555684       3.07337660
Si       3.40418946       3.93702127      11.85638835
Si      -6.34934054       6.64337216      13.25245586
Si      -0.78875601       2.17143478       4.23527855
Si       0.78928675       5.58917712      10.15469331
Si      -5.83630488       8.44448331      12.63728526
Si       5.64071958       4.25271961       5.97662722
Si       0.67428890       4.31651400       3.54649755
Si       3.27118300       6.18691710       4.40754538
Si       4.36211314       7.95894858       1.88078102
Si       5.48926809       3.15910341       9.62980576
Si      -2.44544434       3.70450078       1.66873324
Si      -7.56738125       8.21094986      13.59054861
Si      -1.91146297       1.71965587       3.33412061
Si       2.78924708       5.30474928      10.50701830
Si       0.09206270       3.22448501      10.21218922
Si      -2.95104226       4.51083711       8.47329218
Si       0.26940280       6.71522287       8.58070739
Si       7.15125900       0.53745062      -0.18689859
Si       5.86913933       3.68722899       4.62926781
Si       0.17186660       5.19878181       5.26455465
24
Lattice="10.257813995170407 0.24236198095076913 -3.2964817552049737 -4.7664127582991975 6.65634793564764 3.3355350530104557 -3.3718911971965215 1.7005978682071954 13.112782862517584" Properties=species:S:1:pos:R:3 unique_starting_index=90 config_type=initial n_minim_iter=16 stress="0.003714999960057875 -0.0006965631395117821 0.0027362237724844413 -0.0006965631395117821 0.009027387428303873 -0.00017595753326886106 0.0027362237724844413 -0.00017595753326886106 0.0020247323175469683" pbc="T T T"
Si       5.63010487       1.59564599       6.42451973
Si      -1.04511215       2.56794746       2.53417618
Si       5.26159869       6.42960927       4.19678569
Si       0.05092299       1.85053315       3.07011511
Si       3.40460800       3.95404153      11.88339491
Si      -6.39197701       6.63885073      13.29088586
Si      -0.78020576       2.18185383       4.23517138
Si       0.79001797       5.58715888      10.19396149
Si      -5.86883043       8.45628459      12.66970305
Si       5.64836454       4.25691474       5.99242501
Si       0.70624747       4.32390770       3.53776440
Si       3.29138288       6.19142932       4.39675066
Si       4.37822805       7.98877745       1.88333944
Si       5.48710234       3.16067291       9.65117924
Si      -2.45866653       3.71135528       1.67966678
Si      -7.60384592       8.20679437      13.63556646
Si      -1.90908123       1.73019046       3.34093279
Si       2.78412328       5.30722206      10.53540561
Si       0.08035790       3.22069766      10.21946275
Si      -2.95308645       4.50615174       8.50658174
Si       0.28148362       6.69983008       8.59559931
Si       7.18237976       0.53122836      -0.18400298
Si       5.86629989       3.68714708       4.66086257
Si       0.18693217       5.17621484       5.26144343
24
Lattice="10.263615911322004 0.24985312829721004 -3.30600056351984 -4.76664443509808 6.642051472079677 3.3365904844443453 -3.3728066045117147 1.6803377601238825 13.148734432311329" Properties=species:S:1:pos:R:3 unique_starting_index=90 config_type=initial n_minim_iter=17 stress="0.004272678471862639 -0.0021253912603771525 0.002719514827205924 -0.0021253912603771525 0.010271796199367324 -0.003600521384390652 0.002719514827205924 -0.003600521384390652 0.004668051947322532" pbc="T T T"
Si       5.62561322       1.58235790       6.43890180
Si      -1.04077782       2.59178336       2.56300250
Si       5.28285539       6.42668581       4.20636352
Si       0.05232682       1.84261300       3.06751886
Si       3.41495797       3.93287115      11.92610943
Si      -6.41486036       6.60307092      13.32215959
Si      -0.76597766       2.17831139       4.23592388
Si       0.79085298       5.56143227      10.22780104
Si      -5.89628145       8.43121654      12.69627414
Si       5.65446269       4.24638797       6.01038608
Si       0.73137559       4.31583753       3.52257394
Si       3.30314661       6.17910305       4.38337849
Si       4.38937336       7.99997613       1.87616260
Si       5.48223100       3.14108734       9.68017145
Si      -2.46502676       3.70845287       1.68661359
Si      -7.62526757       8.17324013      13.67199099
Si      -1.90546219       1.73052574       3.34387426
Si       2.77676490       5.28310108      10.56093651