20
Lattice="8.271494275271518 1.010335166544656 1.0511307728794836 0.6948066110943415 8.30395318314029 1.0511307728794725 0.6948066110943483 0.72177246838114 8.339038246306774" Properties=species:S:1:pos:R:3 unique_starting_index=58 config_type=initial n_minim_iter=8 energy=-3436.2855117107247 free_energy=-3436.2855117107247 pbc="T T T"
Si       6.21576883       8.62749801       8.67488385
Si       8.38468787       8.40936047       6.87770162
Si       8.08416363       6.52816545       8.96395382
Si       1.57694386       1.33740388       3.56359817
Si       3.44533866       1.70930493       1.47734597
Si       1.27641962       3.49644972       1.76641594
Si       6.19371410       8.56174922       1.02060567
Si       8.31982608       0.76204615       6.55034806
Si       0.44485805       6.21514719       8.59542476
Si       9.21624944       1.69326023       3.89095173
Si       3.46739339       9.35498892       1.84587503
Si       1.34128141       3.52099074       9.42069412
Si       7.42566322       1.11817067       6.15185624
Si       0.83475463       5.85178193       7.70038623
Si       5.81577340       7.65254400       1.36068554
Si       3.84533409       8.97920377       2.74091357
Si       2.23544427       3.93326018       9.08061425
Si       8.82635286       2.57322191       4.28944355
Si       2.67730587       2.78121371       2.89351436
Si       6.98380162       7.25484711       7.54778543
