20
Lattice="5.142182461486218 -3.1490046258746216e-16 3.6642112830797017e-14 3.4428947099371735e-16 5.622091707554691 -4.223749126901457e-15 -1.3887127978810405e-13 1.464129875140156e-14 19.488544850785598" Properties=species:S:1:pos:R:3 unique_starting_index=4 config_type=initial n_minim_iter=1 energy=-3253.1446954023118 free_energy=-3253.1446954023118 pbc="T T T"
Si       3.01274304       3.05893458      12.16886240
Si       3.01274304       2.56315713       7.31968245
Si       2.01670213       2.08233493      10.72682542
Si       2.01670213       3.53975678       8.76171943
Si       2.12943942       0.24788873      17.06395487
Si       2.12943942       5.37420298       2.42458998
Si       3.12548033       4.89338078      18.50599185
Si       3.12548033       0.72871093       0.98255300
Si       2.62347679       4.42098660       4.11823333
Si       2.62347679       1.20110511      15.37031152
Si       2.47735811       4.37176784      15.79295063
Si       2.47735811       1.25032386       3.69559422
Si       2.51870567       1.60994074       5.62603910
Si       2.51870567       4.01215096      13.86250575
Si       2.66482436       1.56072199      13.43986665
Si       2.66482436       4.06136972       6.04867820
Si       4.86437776       3.20918298      18.36782248
Si       4.86437776       2.41290873       1.12072237
Si       0.27780470       5.22395458       8.62355005
Si       0.27780470       0.39813713      10.86499480
20
Lattice="5.13953411004057 -3.1473828104264424e-16 3.662324123430779e-14 3.42999355323064e-16 5.601024700792007 -3.4030522445066254e-15 -1.3831232173937459e-13 1.7367613932410685e-14 19.410103296714848" Properties=species:S:1:pos:R:3 unique_starting_index=4 config_type=initial n_minim_iter=2 stress="-0.010006402919368195 4.3323877170853504e-15 -1.6348286112295447e-15 4.3323877170853504e-15 -0.011101243423795686 4.7638084119450816e-15 -1.6348286112295447e-15 4.7638084119450816e-15 -0.031920251332186525" pbc="T T T"
Si       3.00988177       3.04836943      12.12075192
Si       3.00988177       2.55265527       7.28935138
Si       2.01458434       2.07497257      10.68436443
Si       2.01458434       3.52605213       8.72573887
Si       2.12965234       0.24785708      16.99440302
Si       2.12965234       5.35316762       2.41570027
Si       3.12494977       4.87548492      18.43079052
Si       3.12494977       0.72553978       0.97931278
Si       2.62163747       4.40256373       4.10286834
Si       2.62163747       1.19846097      15.30723496
Si       2.47592428       4.35094779      15.73030680
Si       2.47592428       1.25007691       3.67979650
Si       2.51789664       1.60205138       5.60218331
Si       2.51789664       3.99897332      13.80791999
Si       2.66360983       1.55043544      13.38484815
Si       2.66360983       4.05058926       6.02525515
Si       4.86048604       3.19787722      18.29530822
Si       4.86048604       2.40314748       1.11479507
Si       0.27904807       5.20365983       8.59025657
Si       0.27904807       0.39736487      10.81984672
20
Lattice="5.292044625629493 -3.2407782359448305e-16 3.770999915508297e-14 3.136016415162504e-16 5.120973299459947 -3.1482210827525967e-15 -1.3853950456510499e-13 1.6799392266947524e-14 19.441985070219886" Properties=species:S:1:pos:R:3 unique_starting_index=4 config_type=initial n_minim_iter=3 stress="-0.006336738617945252 2.3317623260601646e-15 -1.027758064825452e-15 2.3317623260601646e-15 -0.09068093563575348 3.9282377700683734e-15 -1.027758064825452e-15 3.9282377700683734e-15 -0.04901751278329646" pbc="T T T"
Si       3.05090297       2.82275085      12.17522146
Si       3.05090297       2.29822245       7.26676361
Si       2.01937276       1.90866437      10.72453618
Si       2.01937276       3.21230893       8.71744889
Si       2.24114166       0.26226420      16.98775614
Si       2.24114166       4.85870910       2.45422893
Si       3.27267187       4.46915102      18.43844143
Si       3.27267187       0.65182228       1.00354364
Si       2.68097390       3.94411973       4.17390313
Si       2.68097390       1.17685357      15.26808194
Si       2.54245269       3.79985595      15.79713299
Si       2.54245269       1.32111735       3.64485208
Si       2.61107072       1.38363308       5.54708940
Si       2.61107072       3.73734022      13.89489567
Si       2.74959193       1.23936930      13.36584462
Si       2.74959193       3.88160400       6.07614046
Si       4.94280371       2.95200763      18.38774971
Si       4.94280371       2.16896567       1.05423536
Si       0.34924091       4.72945232       8.66675717
Si       0.34924091       0.39152098      10.77522790
20
Lattice="5.292709877335328 -3.2411856273039145e-16 3.771473959909591e-14 3.1620849111580307e-16 5.163541977132534 -3.2071535516327317e-15 -1.3750093203130402e-13 1.66283901544292e-14 19.29623666610997" Properties=species:S:1:pos:R:3 unique_starting_index=4 config_type=initial n_minim_iter=4 stress="-0.007829019670934894 -6.134813429978379e-16 -3.131775939636269e-15 -6.134813429978379e-16 -0.05220445525074492 2.484307330231357e-16 -3.131775939636269e-15 2.484307330231357e-16 -0.044070521747771776" pbc="T T T"
Si       3.04045095       2.85283361      12.09168750
Si       3.04045095       2.31070837       7.20454916
Si       2.00910436       1.92758411      10.64936969
Si       2.00910436       3.23595787       8.64686698
Si       2.25225893       0.27106262      16.85266750
Si       2.25225893       4.89247936       2.44356917
Si       3.28360552       4.50935510      18.29498531
Si       3.28360552       0.65418688       1.00125135
Si       2.67731269       3.96119921       4.15533276
Si       2.67731269       1.20234277      15.14090391
Si       2.54161560       3.79576824      15.68810148
Si       2.54161560       1.36777374       3.60813519
Si       2.61539719       1.37942822       5.49278558
Si       2.61539719       3.78411375      13.80345109
Si       2.75109428       1.21399725      13.25625352
Si       2.75109428       3.94954473       6.03998315
Si       4.93066058       2.98218217      18.26285719
Si       4.93066058       2.18135981       1.03337947
Si       0.36204930       4.76313080       8.61473886
Si       0.36204930       0.40041118      10.68149780
20
Lattice="5.258327838924484 -3.220130521069715e-16 3.746974041047528e-14 3.2234532075077446e-16 5.263753635949554 -3.0172783758616967e-15 -1.3717689423295877e-13 1.7557079732554417e-14 19.250762719473602" Properties=species:S:1:pos:R:3 unique_starting_index=4 config_type=initial n_minim_iter=5 stress="-0.00710153981251641 9.751354118256578e-17 -1.1809973320999633e-15 9.751354118256578e-17 0.01657585206790065 8.416012436517756e-16 -1.1809973320999633e-15 8.416012436517756e-16 -0.020614611643050545" pbc="T T T"
Si       3.00090407       2.89440061      12.09455379
Si       3.00090407       2.36935303       7.15620893
Si       1.98248362       1.97098966      10.63035628
Si       1.98248362       3.29276398       8.62040644
Si       2.25742377       0.26252379      16.78159029
Si       2.25742377       5.00122985       2.46917243
Si       3.27584422       4.60286648      18.24578779
Si       3.27584422       0.66088716       1.00497492
Si       2.65502145       4.03007767       4.16378373
Si       2.65502145       1.23367597      15.08697899
Si       2.52263959       3.85371556      15.68616150
Si       2.52263959       1.41003808       3.56460122
Si       2.60330639       1.39820085       5.46159763
Si       2.60330639       3.86555279      13.78916509
Si       2.73568825       1.22183874      13.18998258
Si       2.73568825       4.04191489       6.06078014
Si       4.87969174       3.04760062      18.24071241
Si       4.87969174       2.21615302       1.01005031
Si       0.37863610       4.84802983       8.61533105
Si       0.37863610       0.41572380      10.63543167
20
Lattice="5.243998072195958 -3.211355161180481e-16 3.736762950071307e-14 3.216124104121557e-16 5.251785540831156 -3.189055693124854e-15 -1.3767353297127953e-13 1.696670504799184e-14 19.320458673461857" Properties=species:S:1:pos:R:3 unique_starting_index=4 config_type=initial n_minim_iter=6 stress="-0.019590355261954538 3.401033386287335e-16 3.0739708198452856e-16 3.401033386287335e-16 -0.024936791675702508 2.988944985188102e-17 3.0739708198452856e-16 2.988944985188102e-17 -0.04440440645489728" pbc="T T T"
Si       2.95006055       2.86803929      12.17670015
Si       2.95006055       2.38374625       7.14375852
Si       1.95566369       1.98510818      10.68936000
Si       1.95566369       3.26667736       8.63109868
Si       2.29393752       0.24214652      16.80398786
Si       2.29393752       5.00963902       2.51647081
Si       3.28833438       4.61100095      18.29132801
Si       3.28833438       0.64078459       1.02913066
Si       2.63872543       3.99859299       4.22770243
Si       2.63872543       1.25319255      15.09275625
Si       2.51497843       3.79106770      15.79789803
Si       2.51497843       1.46071784       3.52256064
Si       2.60527265       1.37270022       5.43252691
Si       2.60527265       3.87908532      13.88793176
Si       2.72901964       1.16517493      13.18278998
Si       2.72901964       4.08661061       6.13766869
Si       4.82729337       3.05599377      18.35068499
Si       4.82729337       2.19579177       0.96977369
Si       0.41670470       4.82168454       8.69045565
Si       0.41670470       0.43010100      10.63000302
20
Lattice="5.368001597678009 -3.287293282453467e-16 3.8251252593857174e-14 3.2323840542519065e-16 5.278337305696299 -3.1040373767250703e-15 -1.376474995790467e-13 1.733709313484278e-14 19.316805269151587" Properties=species:S:1:pos:R:3 unique_starting_index=4 config_type=initial n_minim_iter=7 stress="0.03444164821087451 -1.1075358541908898e-16 1.091206799930383e-15 -1.1075358541908898e-16 0.012147033241333075 -1.5249409648065132e-15 1.091206799930383e-15 -1.5249409648065132e-15 -0.005457036902253505" pbc="T T T"
Si       2.99320626       2.87696658      12.19818982
Si       2.99320626       2.40137073       7.11861545
Si       1.98970398       2.01040104      10.69591469
Si       1.98970398       3.26793627       8.62089058
Si       2.37479533       0.23779793      16.77701808
Si       2.37479533       5.04053938       2.53978719
Si       3.37829762       4.64956969      18.27929321
Si       3.37829762       0.62876761       1.03751206
Si       2.69613241       4.02853521       4.25690650
Si       2.69613241       1.24980210      15.05989877
Si       2.57960457       3.78972029      15.81847330
Si       2.57960457       1.48861702       3.49833197
Si       2.67186919       1.38936655       5.40149614
Si       2.67186919       3.88897075      13.91530913
Si       2.78839703       1.15055163      13.15673460
Si       2.78839703       4.12778567       6.16007067
Si       4.91523068       3.08090350      18.37641690
Si       4.91523068       2.19743381       0.94038837
Si       0.45277092       4.83660246       8.71801427
Si       0.45277092       0.44173484      10.59879100
20
Lattice="5.292366948461513 -3.240975622190875e-16 3.771229595992358e-14 3.263161902209716e-16 5.328596142622151 -3.178276849484822e-15 -1.4117108664938887e-13 1.7535303183919405e-14 19.81128897205042" Properties=species:S:1:pos:R:3 unique_starting_index=4 config_type=initial n_minim_iter=8 stress="0.04506198161703326 1.3850565982635303e-16 6.742836063156862e-16 1.3850565982635303e-16 0.070071553950693 -6.299324844326243e-17 6.742836063156862e-16 -6.299324844326243e-17 0.035321575769560305" pbc="T T T"
Si       2.87906724       2.89107026      12.57435732
Si       2.87906724       2.43752589       7.23693165
Si       1.92758809       2.07539491      10.99234390
Si       1.92758809       3.25320123       8.81894508
Si       2.41329970       0.22677219      17.14257613
Si       2.41329970       5.10182396       2.66871284
Si       3.36477886       4.73969298      18.72458956
Si       3.36477886       0.58890316       1.08669941
Si       2.64752966       4.10959714       4.45945144
Si       2.64752966       1.21899900      15.35183753
Si       2.56251847       3.77578047      16.28549209
Si       2.56251847       1.55281567       3.52579688
Si       2.64483729       1.44529907       5.44619305
Si       2.64483729       3.88329708      14.36509592
Si       2.72984848       1.11148240      13.43144137
Si       2.72984848       4.21711374       6.37984761
Si       4.77056663       3.13576051      18.93947775
Si       4.77056663       2.19283563       0.87181122
Si       0.52180032       4.85713370       9.03383327
Si       0.52180032       0.47146244      10.77745571
20
Lattice="5.185144781718345 -3.175314183375818e-16 3.6948253306596536e-14 3.260679270561492e-16 5.324542117164262 -3.734532692207194e-15 -1.4493538578406776e-13 1.5907167302859593e-14 20.33955307842222" Properties=species:S:1:pos:R:3 unique_starting_index=4 config_type=initial n_minim_iter=9 stress="0.023840886711653117 9.114368746724446e-17 5.781124482314306e-16 9.114368746724446e-17 0.09103452006514752 -4.84188482879136e-16 5.781124482314306e-16 -4.84188482879136e-16 0.07967960176827137" pbc="T T T"
Si       2.77626249       2.88306403      12.92507994
Si       2.77626249       2.44147809       7.41447314
Si       1.87034134       2.10482053      11.30128398
Si       1.87034134       3.21972158       9.03826910
Si       2.40888230       0.22079297      17.58424968
Si       2.40888230       5.10374914       2.75530340
Si       3.31480345       4.76709159      19.20804564
Si       3.31480345       0.55745053       1.13150744
Si       2.58853984       4.15815423       4.63916150
Si       2.58853984       1.16638788      15.70039158
Si       2.53028563       3.76150697      16.73536240
Si       2.53028563       1.56303515       3.60419068
Si       2.59660494       1.49588318       5.53061504
Si       2.59660494       3.82865894      14.80893804
Si       2.65485915       1.09923591      13.77396722
Si       2.65485915       4.22530621       6.56558586
Si       4.62585670       3.16013823      19.48420207
Si       4.62585670       2.16440388       0.85535101
Si       0.55928808       4.82667494       9.31442553
Si       0.55928808       0.49786718      11.02512755
20
Lattice="5.1692069387662105 -3.1655540588450536e-16 3.6834683583214354e-14 3.2171921115777183e-16 5.253529548814854 -3.560124968566071e-15 -1.4522867817079207e-13 1.6348911448471714e-14 20.380712358021235" Properties=species:S:1:pos:R:3 unique_starting_index=4 config_type=initial n_minim_iter=10 stress="0.004493638795001427 2.7310736865508977e-16 1.1688554073839206e-15 2.7310736865508977e-16 0.029438080162514948 -1.4352429105597997e-15 1.1688554073839206e-15 -1.4352429105597997e-15 0.06327358535638303" pbc="T T T"
Si       2.75996342       2.85355439      12.94121322
Si       2.75996342       2.39997516       7.43949914
Si       1.84736654       2.08484450      11.31856845
Si       1.84736654       3.16868505       9.06214391
Si       2.40924352       0.22678962      17.62985532
Si       2.40924352       5.02673993       2.75085704
Si       3.32184040       4.71160927      19.25250009
Si       3.32184040       0.54192027       1.12821227
Si       2.58412529       4.13330931       4.67226835
Si       2.58412529       1.12022024      15.70844401
Si       2.54031280       3.70788290      16.75341922
Si       2.54031280       1.54564665       3.62729313
Si       2.58508165       1.50654454       5.51808783
Si       2.58508165       3.74698501      14.86262453
Si       2.62889414       1.08111812      13.81764931
Si       2.62889414       4.17241143       6.56306305
Si       4.58504882       3.13434922      19.53960024
Si       4.58504882       2.11918033       0.84111212
Si       0.58415812       4.74594511       9.34924406
Si       0.58415812       0.50758444      11.03146830
20
Lattice="5.18242459487222 -3.173648376876641e-16 3.6928869826122424e-14 3.21269551232098e-16 5.246186805128316 -2.8827338036245984e-15 -1.4504730537336367e-13 1.8658802440136615e-14 20.355259349286893" Properties=species:S:1:pos:R:3 unique_starting_index=4 config_type=initial n_minim_iter=11 stress="-0.006615714508570596 -5.963190868734855e-17 -8.450779321966552e-17 -5.963190868734855e-17 0.009941271033683233 -1.9058137343307358e-17 -8.450779321966552e-17 -1.9058137343307358e-17 0.021699869544742234" pbc="T T T"
Si       2.77411992       2.85149849      12.89912067
Si       2.77411992       2.39468832       7.45613868
Si       1.85595598       2.08683527      11.29763422
Si       1.85595598       3.15935153       9.05762513
Si       2.40830468       0.22840508      17.63376835
Si       2.40830468       5.01778172       2.72149100
Si       3.32646861       4.70992868      19.23525481
Si       3.32646861       0.53625813       1.12000454
Si       2.59965321       4.15524720       4.65391660
Si       2.59965321       1.09093961      15.70134275
Si       2.56158244       3.72756400      16.70535717
Si       2.56158244       1.51862280       3.64990218
Si       2.58277138       1.53215379       5.52371308
Si       2.58277138       3.71403301      14.83154627
Si       2.62084216       1.10447060      13.82753185
Si       2.62084216       4.14171621       6.52772749
Si       4.59557520       3.13247525      19.50855363
Si       4.59557520       2.11371155       0.84670571
Si       0.58684939       4.73680495       9.33092396
Si       0.58684939       0.50938185      11.02433539
20
Lattice="5.182363543750728 -3.1736109899757457e-16 3.692843478864587e-14 3.182875294914403e-16 5.1974917356806465 -2.643295014556903e-15 -1.4552460788280185e-13 1.9356186144095612e-14 20.422241747496045" Properties=species:S:1:pos:R:3 unique_starting_index=4 config_type=initial n_minim_iter=12 stress="-0.003144404006581245 -4.248452693328106e-16 2.5400271213306235e-15 -4.248452693328106e-16 -0.02932598763820919 -9.60104013998393e-16 2.5400271213306235e-15 -9.60104013998393e-16 0.03948316847723233" pbc="T T T"
Si       2.77530685       2.83619771      12.93503461
Si       2.77530685       2.36129403       7.48720714
Si       1.84938895       2.07795408      11.31768213
Si       1.84938895       3.11953766       9.10455961
Si       2.40705670       0.23745184      17.69832801
Si       2.40705670       4.96003990       2.72391374
Si       3.33297459       4.67669994      19.31568049
Si       3.33297459       0.52079179       1.10656126
Si       2.60768828       4.14832725       4.64923973
Si       2.60768828       1.04916448      15.77300201
Si       2.58543914       3.69983848      16.73316804
Si       2.58543914       1.49765325       3.68907371
Si       2.57467527       1.54958138       5.56188114
Si       2.57467527       3.64791035      14.86036061
Si       2.59692441       1.10109262      13.90019458
Si       2.59692441       4.09639912       6.52204717
Si       4.58207936       3.11233723      19.57413587
Si       4.58207936       2.08515451       0.84810588
Si       0.60028419       4.68390038       9.36301499
Si       0.60028419       0.51359136      11.05922675
20
Lattice="5.216638974433769 -3.194600811045574e-16 3.717267431297709e-14 3.1779603668072804e-16 5.189465879857975 -4.132849643441518e-15 -1.451213862663684e-13 1.413562577111987e-14 20.365655514773334" Properties=species:S:1:pos:R:3 unique_starting_index=4 config_type=initial n_minim_iter=13 stress="0.0033950744788985516 1.3432497929954507e-15 3.0006394071546677e-15 1.3432497929954507e-15 -0.0016956577852482563 4.248942452920172e-17 3.0006394071546677e-15 4.248942452920172e-17 0.038923846359435556" pbc="T T T"
Si       2.77595768       2.83580066      12.90225558
Si       2.77595768       2.35366522       7.46339993
Si       1.84717173       2.09432564      11.28077117
Si       1.84717173       3.09514024       9.08488435
Si       2.44068130       0.24106772      17.64622769
Si       2.44068130       4.94839816       2.71942783
Si       3.36946725       4.68905858      19.26771211
Si       3.36946725       0.50040730       1.09794341
Si       2.63109516       4.16532403       4.64011983
Si       2.63109516       1.02414185      15.72553568
Si       2.62940591       3.67689216      16.68044278
Si       2.62940591       1.51257372       3.68521274
Si       2.58554382       1.57059109       5.54270793
Si       2.58554382       3.61887479      14.82294759
Si       2.58723306       1.08215922      13.86804050
Si       2.58723306       4.10730666       6.49761502
Si       4.58126445       3.12277268      19.54043963
Si       4.58126445       2.06669320       0.82521588
Si       0.63537453       4.66142614       9.35761188
Si       0.63537453       0.52803974      11.00804364
20
Lattice="5.297857788972042 -3.2443381404003253e-16 3.775142253680268e-14 3.1975024533547905e-16 5.221377225392133 -5.72263468585225e-15 -1.4390031111528037e-13 8.536922692595221e-15 20.194295548290174" Properties=species:S:1:pos:R:3 unique_starting_index=4 config_type=initial n_minim_iter=14 stress="0.03474849490873979 3.050536607875093e-15 1.8461917509090957e-15 3.050536607875093e-15 -0.016337294514084073 7.56423371527305e-16 1.8461917509090957e-15 7.56423371527305e-16 -0.004165358466755659" pbc="T T T"
Si       2.77450870       2.83142287      12.82735644
Si       2.77450870       2.38995435       7.36693911
Si       1.85223411       2.16430470      11.16981700
Si       1.85223411       3.05707253       9.02447854
Si       2.52334909       0.22073426      17.46408688
Si       2.52334909       5.00064297       2.73020866
Si       3.44562368       4.77499331      19.12162632
Si       3.44562368       0.44638392       1.07266923
Si       2.69044553       4.23711500       4.61445025
Si       2.69044553       0.98426222      15.57984530
Si       2.74045874       3.68080700      16.54372882
Si       2.74045874       1.54057023       3.65056673
Si       2.60741226       1.62642639       5.48269752
Si       2.60741226       3.59495083      14.71159803
Si       2.55739905       1.07011839      13.74771450
Si       2.55739905       4.15125884       6.44658105
Si       4.58857986       3.16836668      19.41915172
Si       4.58857986       2.05301055       0.77514383
Si       0.70927793       4.66369916       9.32200394
Si       0.70927793       0.55767806      10.87229161
20
Lattice="5.232170296375606 -3.2041119874789255e-16 3.728334725290429e-14 3.2212897239405195e-16 5.260220764906066 -8.18146703545321e-15 -1.4623725082665294e-13 4.3588645005120054e-16 20.522250719762592" Properties=species:S:1:pos:R:3 unique_starting_index=4 config_type=initial n_minim_iter=15 stress="0.007233659545684298 6.330276820509226e-16 -4.465886954260817e-16 6.330276820509226e-16 0.08735116082664564 8.239875929692493e-16 -4.465886954260817e-16 8.239875929692493e-16 0.0364958962737425" pbc="T T T"
Si       2.65489165       2.82605250      13.10031442
Si       2.65489165       2.43416826       7.42193630
Si       1.81154779       2.27637560      11.34665481
Si       1.81154779       2.98384517       9.17559591
Si       2.57727865       0.19594212      17.68306166
Si       2.57727865       5.06427865       2.83918906
Si       3.42062251       4.90648598      19.43672127
Si       3.42062251       0.35373479       1.08552945
Si       2.68730210       4.32633876       4.69610682
Si       2.68730210       0.93388201      15.82614390
Si       2.81664320       3.65982749      16.80978183
Si       2.81664320       1.60039327       3.71246889
Si       2.54486820       1.69622838       5.56501854
Si       2.54486820       3.56399239      14.95723218
Si       2.41552709       1.02971711      13.97359425
Si       2.41552709       4.23050366       6.54865647
Si       4.44590014       3.23589135      19.77707826
Si       4.44590014       2.02432941       0.74517246
Si       0.78627015       4.65443979       9.51595290
Si       0.78627015       0.60578097      11.00629782
20
Lattice="5.2169631034112784 -3.1947993033504114e-16 3.717498398796639e-14 3.2109898790858426e-16 5.2434015830166185 -1.2051820151216492e-14 -1.4811713503646832e-13 -1.2512110718860516e-14 20.786064863287" Properties=species:S:1:pos:R:3 unique_starting_index=4 config_type=initial n_minim_iter=16 stress="-0.02116249066328549 8.660633272666908e-16 -7.244042259405756e-17 8.660633272666908e-16 0.11913714977625055 -3.131730291067626e-15 -7.244042259405756e-17 -3.131730291067626e-15 0.047366052230657436" pbc="T T T"
Si       2.53411860       2.78434146      13.36628031
Si       2.53411860       2.45906012       7.41978456
Si       1.77915283       2.38906560      11.48598761
Si       1.77915283       2.85433599       9.30007725
Si       2.68284450       0.16264067      17.81281699
Si       2.68284450       5.08076091       2.97324787
Si       3.43781027       5.01076639      19.69310968
Si       3.43781027       0.23263520       1.09295518
Si       2.72145379       4.37116499       4.77744411
Si       2.72145379       0.87223659      16.00862075
Si       2.94873704       3.57349561      17.01643019
Si       2.94873704       1.66990597       3.76963468
Si       2.49550932       1.74946420       5.61558832
Si       2.49550932       3.49393738      15.17047654
Si       2.26822606       0.95179482      14.16266711
Si       2.26822606       4.29160676       6.62339775
Si       4.31569232       3.28054122      20.09452871
Si       4.31569232       1.96286036       0.69153615
Si       0.90127078       4.58456115       9.70149628
Si       0.90127078       0.65884043      11.08456858
20
Lattice="5.249760267603857 -3.2148838535455e-16 3.740868969560987e-14 3.1835521008769543e-16 5.1985969292766585 -1.7865765072484992e-14 -1.4973739027297917e-13 -3.198479405912737e-14 21.01344389296378" Properties=species:S:1:pos:R:3 unique_starting_index=4 config_type=initial n_minim_iter=17 stress="-0.021523240728341452 8.580480846122987e-16 -9.942884455003138e-16 8.580480846122987e-16 0.1043265191332978 -5.014806832601272e-15 -9.942884455003138e-16 -5.014806832601272e-15 0.07072900791280705" pbc="T T T"
Si       2.42827134       2.73240425      13.60486923
Si       2.42827134       2.46619268       7.40857467
Si       1.75703409       2.49701924      11.59610475
Si       1.75703409       2.70157769       9.41733914
Si       2.82148892       0.13310578      17.91529661
Si       2.82148892       5.06549114       3.09814728
Si       3.49272617       5.09631771      19.92406109
Si       3.49272617       0.10227922       1.08938280
Si       2.77554780       4.40013750       4.87377480
Si       2.77554780       0.79845943      16.13966909
Si       3.10147168       3.47128061      17.18815605
Si       3.10147168       1.72731632       3.82528785
Si       2.47421247       1.80083904       5.63294715
Si       2.47421247       3.39775789      15.38049675
Si       2.14828859       0.87198214      14.33200979
Si       2.14828859       4.32661479       6.68143410
Si       4.21344899       3.31317454      20.39237145
Si       4.21344899       1.88542239       0.62107245
Si       1.03631128       4.48472086       9.88564950
Si       1.03631128       0.71387607      11.12779439
20
Lattice="5.295926404040256 -3.243155385777102e-16 3.773765989316923e-14 3.1504939945541517e-16 5.144614533333503 -2.2808694491733597e-14 -1.4823568044494017e-13 -4.940508219610717e-14 20.80270097058507" Properties=species:S:1:pos:R:3 unique_starting_index=4 config_type=initial n_minim_iter=18 stress="-0.011836323411467472 1.499872592024328e-15 -5.216351981926062e-16 1.499872592024328e-15 0.011064380783208531 -9.393742983298768e-15 -5.216351981926062e-16 -9.393742983298768e-15 0.05624353986366887" pbc="T T T"
Si       2.33014283       2.67848127      13.55461778
Si       2.33014283       2.46613327       7.24808319
Si       1.73090827       2.60483750      11.43075521
Si       1.73090827       2.53977703       9.37194576
Si       2.96578357       0.10617400      17.64943368
Si       2.96578357       5.03844053       3.15326729
Si       3.56501814       5.17714477      19.77329624
Si       3.56501814      -0.03253023       1.02940473
Si       2.83451290       4.40292368       4.89442406
Si       2.83451290       0.74169086      15.90827691
Si       3.23446999       3.37034080      16.98421344
Si       3.23446999       1.77427373       3.81848753
Si       2.46141350       1.83061641       5.50692642
Si       2.46141350       3.31399812      15.29577455
Si       2.06145641       0.79803354      14.21983802
Si       2.06145641       4.34658100       6.58286295
Si       4.12088535       3.34852299      20.25494767
Si       4.12088535       1.79609155       0.54775330
Si       1.17504106       4.36839881       9.85359718
Si       1.17504106       0.77621572      10.94910379
20
Lattice="5.30426024270468 -3.2482589185090207e-16 3.7797045078145725e-14 3.143717387465242e-16 5.133548639737986 -2.5253685331516592e-14 -1.4716076425287174e-13 -5.835771597734044e-14 20.65185226772931" Properties=species:S:1:pos:R:3 unique_starting_index=4 config_type=initial n_minim_iter=19 stress="-0.009657343754664365 1.3463354718855232e-15 -1.6514851027143107e-16 1.3463354718855232e-15 -0.018966585521751827 -1.1815916889853491e-14 -1.6514851027143107e-16 -1.1815916889853491e-14 -0.008583988779943708" pbc="T T T"
Si       2.30904963       2.66630680      13.47007800
Si       2.30904963       2.46724184       7.18177426
Si       1.72740577       2.62741451      11.32166976
Si       1.72740577       2.50613413       9.33018251
Si       2.99521061       0.09953248      17.50770040
Si       2.99521061       5.03401616       3.14415187
Si       3.57685448       5.19418883      19.65610864
Si       3.57685448      -0.06064019       0.99574363
Si       2.84686814       4.40013223       4.87431746
Si       2.84686814       0.73341641      15.77753481
Si       3.25710536       3.35320264      16.84720322
Si       3.25710536       1.78034600       3.80464905
Si       2.45739210       1.83335791       5.45160867
Si       2.45739210       3.30019073      15.20024360
Si       2.04715488       0.78642832      14.13057518
Si       2.04715488       4.34712032       6.52127708