22
Lattice="4.653190573553399 0.5411409300632715 2.549964615012633 2.7157099819737907 6.66273423212715 2.1807611054832785 8.652781671117696 0.7685074655839543 32.968655936133686" Properties=species:S:1:pos:R:3 unique_starting_index=40 config_type=initial n_minim_iter=1 energy=-4076.4754591481596 free_energy=-4076.4754591481596 pbc="T T T"
Si      12.84464383       4.40373675      33.01689495
Si       4.28148675       3.48524296      10.51601955
Si       8.29448453       1.17776419      17.68080545
Si       8.53396209       3.10070720      30.00402523
Si      10.53878525       3.91353934      31.75095727
Si       8.93411626       6.70214331      18.31321279
Si       4.64741551       2.40016499      10.08419003
Si       8.48728356       6.47199657      19.17698745
Si       3.72050042       2.60273412       1.12803314
Si      12.42067281       4.28928165      33.81516804
Si       8.75171881       1.90379390      24.79043058
Si       7.36477708       4.79930464      24.13772731
Si       1.48919094       2.87709138      -0.43677064
Si       5.56605375       0.77377815      17.16689512
Si      10.51932856       3.03537511      31.97316087
Si      11.12457457       6.86309499      19.85978818
Si       6.89745587       3.92945972      11.22546458
Si       8.72580234       7.65201570      18.49115966
Si       4.88050879       3.40844274       9.43852394
Si       7.94683484       0.63947996      18.42909536
Si      12.81694048       3.27242914      33.30723923
Si       6.95489643       2.85845495      11.35016739
22
Lattice="4.653173149263874 0.541137170831504 2.5499625953142595 2.715654450911142 6.662815802710241 2.1808150218695728 8.652628534692129 0.7687259464050059 32.96880264395212" Properties=species:S:1:pos:R:3 unique_starting_index=40 config_type=initial n_minim_iter=2 stress="-0.00028822520044190285 -2.941837323606382e-05 -0.00015548812151730716 -2.941837323606382e-05 -7.23642479275786e-06 -2.331577992551902e-05 -0.00015548812151730716 -2.331577992551902e-05 -9.514074954159585e-05" pbc="T T T"
Si      12.84447921       4.40399033      33.01701086
Si       4.28144846       3.48533779      10.51606263
Si       8.29428992       1.17783118      17.68088556
Si       8.53378081       3.10093384      30.00419342
Si      10.53861194       3.91376892      31.75109261
Si       8.93404523       6.70234347      18.31335631
Si       4.64732825       2.40022654      10.08420674
Si       8.48718393       6.47220625      19.17713111
Si       3.72048487       2.60272525       1.12800303
Si      12.42048687       4.28951607      33.81534173
Si       8.75159560       1.90392357      24.79054734
Si       7.36464174       4.79951830      24.13785830
Si       1.48916254       2.87713382      -0.43674479
Si       5.56604023       0.77388415      17.16700522
Si      10.51916325       3.03559055      31.97335851
Si      11.12434340       6.86329396      19.85987151
Si       6.89739983       3.92952711      11.22553983
Si       8.72573468       7.65220692      18.49133320
Si       4.88044598       3.40849584       9.43862806
Si       7.94669263       0.63957299      18.42907890
Si      12.81678467       3.27266797      33.30740748
Si       6.95480474       2.85859648      11.35019382
22
Lattice="4.653196131628247 0.5411397540163155 2.5499756030464096 2.7156707290023747 6.66282009902892 2.1808267558723977 8.652726894286127 0.7687447832304519 32.96886610158199" Properties=species:S:1:pos:R:3 unique_starting_index=40 config_type=initial n_minim_iter=3 stress="0.000125088595720963 1.7734661101739907e-05 6.49041647031061e-05 1.7734661101739907e-05 1.0172498106047367e-05 2.499281943574508e-06 6.49041647031061e-05 2.499281943574508e-06 3.70882131366916e-05" pbc="T T T"
Si      12.84459499       4.40401239      33.01708320
Si       4.28148777       3.48534520      10.51608656
Si       8.29435492       1.17784184      17.68092846
Si       8.53387256       3.10095216      30.00425434
Si      10.53871596       3.91378828      31.75115907
Si       8.93411792       6.70235834      18.31340324
Si       4.64736549       2.40023279      10.08422970
Si       8.48725575       6.47222140      19.17717802
Si       3.72050228       2.60272669       1.12801189
Si      12.42060220       4.28953725      33.81541561
Si       8.75167855       1.90393725      24.79060042
Si       7.36471894       4.79953432      24.13790864
Si       1.48916785       2.87713589      -0.43674086
Si       5.56609674       0.77389401      17.16704113
Si      10.51926696       3.03561003      31.97342713
Si      11.12442535       6.86331016      19.85992421
Si       6.89745023       3.92953503      11.22557154
Si       8.72580740       7.65222125      18.49138109
Si       4.88048428       3.40850170       9.43865443
Si       7.94675913       0.63958396      18.42911883
Si      12.81690085       3.27268946      33.30748136
Si       6.95485367       2.85860720      11.35022370
22
Lattice="4.653183243011763 0.5411249700202252 2.5500122116489954 2.7155710588771655 6.662846596828389 2.1809819643315778 8.652678461714984 0.769274893239793 32.96926710878552" Properties=species:S:1:pos:R:3 unique_starting_index=40 config_type=initial n_minim_iter=4 stress="-4.1807804586914226e-05 3.3377619004321056e-05 5.862771063325758e-05 3.3377619004321056e-05 -0.00014579597641307387 2.7511864460257353e-05 5.862771063325758e-05 2.7511864460257353e-05 -7.931365317572971e-05" pbc="T T T"
Si      12.84451402       4.40457228      33.01746506
Si       4.28154843       3.48548187      10.51619217
Si       8.29428733       1.17807325      17.68132606
Si       8.53372515       3.10144156      30.00472509
Si      10.53864527       3.91420679      31.75157137
Si       8.93396590       6.70269863      18.31373565
Si       4.64722439       2.40029560      10.08425814
Si       8.48704935       6.47258702      19.17748945
Si       3.72048871       2.60261457       1.12796703
Si      12.42051442       4.29001200      33.81587165
Si       8.75162755       1.90416329      24.79095371
Si       7.36464460       4.79995510      24.13826012
Si       1.48911959       2.87718974      -0.43669713
Si       5.56606446       0.77411575      17.16725325
Si      10.51912846       3.03610391      31.97400985
Si      11.12431187       6.86364974      19.86030691
Si       6.89746115       3.92960695      11.22581899
Si       8.72565330       7.65248140      18.49178169
Si       4.88044140       3.40850665       9.43899999
Si       7.94679690       0.63980599      18.42928899
Si      12.81686213       3.27322450      33.30796180
Si       6.95472723       2.85894135      11.35030815
22
Lattice="4.653188008415766 0.5410781256086848 2.5499945618240134 2.7154786114245555 6.663096280581743 2.180965258631371 8.652191371324912 0.769068245046473 32.9699736648326" Properties=species:S:1:pos:R:3 unique_starting_index=40 config_type=initial n_minim_iter=5 stress="4.569651311425297e-05 -1.9065318939871324e-05 -7.74331668389256e-05 -1.9065318939871324e-05 0.00016106192255207179 -2.6531623561115298e-06 -7.74331668389256e-05 -2.6531623561115298e-06 0.0001061344463746197" pbc="T T T"
Si      12.84403322       4.40449682      33.01808018
Si       4.28140221       3.48553177      10.51635676
Si       8.29405313       1.17797383      17.68166422
Si       8.53325258       3.10135593      30.00535842
Si      10.53817555       3.91409751      31.75218742
Si       8.93365952       6.70282629      18.31403245
Si       4.64704566       2.40027413      10.08439538
Si       8.48672246       6.47270320      19.17781084
Si       3.72048295       2.60265465       1.12790858
Si      12.42002317       4.28989637      33.81650305
Si       8.75127233       1.90399095      24.79145087
Si       7.36425239       4.79998715      24.13873503
Si       1.48910436       2.87732756      -0.43674909
Si       5.56581306       0.77400922      17.16760571
Si      10.51863186       3.03596908      31.97468313
Si      11.12401345       6.86373862      19.86059234
Si       6.89731674       3.92964643      11.22598410
Si       8.72532649       7.65264092      18.49209208
Si       4.88029768       3.40852304       9.43919008
Si       7.94655632       0.63964040      18.42963750
Si      12.81638859       3.27308115      33.30859062
Si       6.95455649       2.85897238      11.35044426
22
Lattice="4.653199575018268 0.5408992528010411 2.550026316399631 2.7153013181446615 6.662942733078893 2.180893472913714 8.65269900685319 0.7683842725698827 32.969588374982365" Properties=species:S:1:pos:R:3 unique_starting_index=40 config_type=initial n_minim_iter=6 stress="4.791038023723672e-06 -7.126411061221222e-05 5.0182465954384595e-05 -7.126411061221222e-05 9.487063743412261e-05 1.7542989207526398e-06 5.0182465954384595e-05 1.7542989207526398e-06 -0.00014222394340080878" pbc="T T T"
Si      12.84442885       4.40377744      33.01776599
Si       4.28161113       3.48520221      10.51612658
Si       8.29424296       1.17765912      17.68158180
Si       8.53362993       3.10074539      30.00504372
Si      10.53864640       3.91321047      31.75175205
Si       8.93371561       6.70237574      18.31384494
Si       4.64700383       2.39984370      10.08412989
Si       8.48684722       6.47222508      19.17755286
Si       3.72041611       2.60243910       1.12789942
Si      12.42051323       4.28897615      33.81600918
Si       8.75160379       1.90316107      24.79125116
Si       7.36452679       4.79947803      24.13837961
Si       1.48900729       2.87742502      -0.43680062
Si       5.56603839       0.77363252      17.16745208
Si      10.51892317       3.03519299      31.97445427
Si      11.12412033       6.86312963      19.86028373
Si       6.89745789       3.92932305      11.22590523
Si       8.72535001       7.65214793      18.49191397
Si       4.88038088       3.40807226       9.43926887
Si       7.94675091       0.63904159      18.42956069
Si      12.81676775       3.27229041      33.30818756
Si       6.95455902       2.85873745      11.35022639
22
Lattice="4.6531619715001495 0.5409379626923908 2.5500846433331303 2.7153686883005728 6.662724198968994 2.1809278899222106 8.652273276558674 0.7683229721947983 32.971016438227444" Properties=species:S:1:pos:R:3 unique_starting_index=40 config_type=initial n_minim_iter=7 stress="-1.668527692228609e-05 9.171408468033608e-05 -4.63866505891285e-05 9.171408468033608e-05 -0.00010305339843764554 7.977165046086903e-06 -4.63866505891285e-05 7.977165046086903e-06 0.0001521468289997319" pbc="T T T"
Si      12.84406877       4.40368790      33.01912518
Si       4.28157119       3.48506560      10.51652022
Si       8.29399578       1.17769972      17.68233590
Si       8.53327673       3.10064453      30.00633145
Si      10.53832355       3.91301464      31.75304441
Si       8.93355131       6.70220440      18.31455727
Si       4.64685724       2.39971083      10.08448073
Si       8.48668076       6.47202622      19.17830338
Si       3.72041940       2.60237916       1.12789807
Si      12.42014746       4.28878525      33.81739848
Si       8.75129498       1.90299956      24.79232143
Si       7.36429262       4.79930999      24.13937586
Si       1.48905450       2.87741485      -0.43686650
Si       5.56580551       0.77361752      17.16820641
Si      10.51849384       3.03505645      31.97584710
Si      11.12394706       6.86298600      19.86100307
Si       6.89739067       3.92926907      11.22633094
Si       8.72520770       7.65193757      18.49265389
Si       4.88032236       3.40791456       9.43968541
Si       7.94649464       0.63900231      18.43034205
Si      12.81633550       3.27220403      33.30954476
Si       6.95441439       2.85871035      11.35061255
22
Lattice="4.653213557195898 0.5405635063149097 2.5500661384579444 2.7150023902111204 6.6624658986729655 2.1807118341522935 8.652813126312271 0.7668031664520528 32.97017678409599" Properties=species:S:1:pos:R:3 unique_starting_index=40 config_type=initial n_minim_iter=8 stress="8.513673727918472e-05 -2.8117042140799665e-05 -4.992661040620875e-05 -2.8117042140799665e-05 -6.523131462765874e-05 -4.5828149643833345e-05 -4.992661040620875e-05 -4.5828149643833345e-05 -5.026921640931001e-05" pbc="T T T"
Si      12.84451818       4.40205908      33.01820813
Si       4.28171225       3.48439127      10.51610738
Si       8.29417440       1.17676568      17.68212602
Si       8.53363905       3.09936934      30.00551988
Si      10.53884946       3.91121943      31.75197403
Si       8.93343909       6.70117540      18.31396616
Si       4.64675362       2.39882730      10.08403647
Si       8.48661199       6.47087641      19.17764022
Si       3.72023176       2.60204483       1.12788692
Si      12.42058404       4.28675489      33.81647609
Si       8.75162041       1.90127985      24.79183316
Si       7.36449012       4.79819446      24.13859505
Si       1.48887803       2.87766423      -0.43699021
Si       5.56599444       0.77286261      17.16788315
Si      10.51875795       3.03329705      31.97518469
Si      11.12393601       6.86194372      19.86029490
Si       6.89749275       3.92873360      11.22600421
Si       8.72507062       7.65100466      18.49214161
Si       4.88039745       3.40710396       9.43953374
Si       7.94683100       0.63778952      18.42992898
Si      12.81666008       3.27040233      33.30862239
Si       6.95439206       2.85794916      11.35016068
22
Lattice="4.653112945064081 0.5405924396603328 2.550237958356367 2.714935232359052 6.662673886007393 2.180905635977517 8.653385266984262 0.7672180384668766 32.97093348007998" Properties=species:S:1:pos:R:3 unique_starting_index=40 config_type=initial n_minim_iter=9 stress="-0.00015731274535773829 4.7126036841098994e-05 0.00010599133337282114 4.7126036841098994e-05 0.00013113220278151598 6.174250250180303e-05 0.00010599133337282114 6.174250250180303e-05 6.699559839781091e-05" pbc="T T T"
Si      12.84494025       4.40261589      33.01912272
Si       4.28185386       3.48458380      10.51642808
Si       8.29432317       1.17704717      17.68271718
Si       8.53412019       3.09984621      30.00624530
Si      10.53936177       3.91163716      31.75274541
Si       8.93356274       6.70161003      18.31457057
Si       4.64681826       2.39892270      10.08432805
Si       8.48676661       6.47127793      19.17823891
Si       3.72009137       2.60207707       1.12805974
Si      12.42105910       4.28722745      33.81739032
Si       8.75195783       1.90148580      24.79252663
Si       7.36487409       4.79863501      24.13921497
Si       1.48881695       2.87782824      -0.43696711
Si       5.56625301       0.77310088      17.16834865
Si      10.51916163       3.03374276      31.97606652
Si      11.12403508       6.86242493      19.86093897
Si       6.89755739       3.92902967      11.22641217
Si       8.72522381       7.65147437      18.49280182
Si       4.88049361       3.40725344       9.43985874
Si       7.94703888       0.63797727      18.43044053
Si      12.81708355       3.27087117      33.30952259
Si       6.95442066       2.85814415      11.35052619
22
Lattice="4.653188250752465 0.5403145044866776 2.550153948505803 2.714659190068018 6.662334795379761 2.1807634645943628 8.65322513007772 0.7663237374052432 32.97050108467198" Properties=species:S:1:pos:R:3 unique_starting_index=40 config_type=initial n_minim_iter=10 stress="4.2568408696341394e-05 3.068078086997846e-05 -3.074659742151025e-05 3.068078086997846e-05 1.4195138612965844e-05 -7.259556017577205e-06 -3.074659742151025e-05 -7.259556017577205e-06 -3.9085677575654075e-05" pbc="T T T"
Si      12.84474288       4.40157281      33.01858623
Si       4.28172479       3.48405436      10.51624123
Si       8.29423945       1.17655315      17.68267412
Si       8.53386864       3.09902497      30.00577812
Si      10.53928048       3.91038979      31.75208443
Si       8.93324660       6.70090413      18.31417895
Si       4.64666176       2.39825275      10.08412223
Si       8.48636025       6.47046458      19.17784199
Si       3.71995419       2.60166192       1.12802601
Si      12.42087743       4.28596441      33.81683798
Si       8.75181505       1.90026475      24.79229795
Si       7.36463734       4.79786893      24.13877997
Si       1.48876152       2.87793927      -0.43718507
Si       5.56618500       0.77257658      17.16820983
Si      10.51877208       3.03271024      31.97580220
Si      11.12378283       6.86162607      19.86034379
Si       6.89749747       3.92859705      11.22615153
Si       8.72490453       7.65069994      18.49252918
Si       4.88046109       3.40666773       9.43960799
Si       7.94699536       0.63722293      18.43016313
Si      12.81697054       3.26968956      33.30901128
Si       6.95432590       2.85755222      11.35020788
22
Lattice="4.653134434712586 0.5399720580661418 2.550321011195121 2.7142142617784337 6.6619160029223305 2.1808550374073334 8.653702219768608 0.7655758571336444 32.97166334417914" Properties=species:S:1:pos:R:3 unique_starting_index=40 config_type=initial n_minim_iter=11 stress="-6.996257032545648e-05 -0.00015735157588762612 7.20967472501505e-05 -0.00015735157588762612 -9.64021427503157e-05 -9.924923303745238e-05 7.20967472501505e-05 -9.924923303745238e-05 0.00016660427363853118" pbc="T T T"
Si      12.84493171       4.40050531      33.01981356
Si       4.28163978       3.48351971      10.51665287
Si       8.29432659       1.17609141      17.68356112
Si       8.53408186       3.09828536      30.00683256
Si      10.53965705       3.90932351      31.75301960
Si       8.93298698       6.70015238      18.31486605
Si       4.64661594       2.39764450      10.08453513
Si       8.48609518       6.46964837      19.17854026
Si       3.71968846       2.60119764       1.12810123
Si      12.42111968       4.28476976      33.81806046
Si       8.75203327       1.89915244      24.79333213
Si       7.36474034       4.79714052      24.13959153
Si       1.48856843       2.87798481      -0.43722074
Si       5.56639709       0.77207966      17.16890369
Si      10.51898570       3.03169238      31.97717290
Si      11.12356731       6.86071189      19.86097245
Si       6.89739476       3.92801338      11.22658597
Si       8.72462790       7.64984974      18.49332062
Si       4.88042993       3.40609305       9.43986614
Si       7.94718176       0.63650378      18.43089842
Si      12.81719419       3.26858927      33.31023778
Si       6.95426002       2.85694086      11.35061447
22
Lattice="4.65317827023804 0.5400687503383149 2.5502177263691035 2.714265968137664 6.662040893125568 2.1809451787407594 8.653534093675143 0.7665156973208685 32.97061320522582" Properties=species:S:1:pos:R:3 unique_starting_index=40 config_type=initial n_minim_iter=12 stress="2.3787956128929507e-05 5.722615696526274e-05 -1.409636060960312e-05 5.722615696526274e-05 2.385976891850786e-05 2.750169015721644e-05 -1.409636060960312e-05 2.750169015721644e-05 -6.15337759565596e-05" pbc="T T T"
Si      12.84487582       4.40154253      33.01883235
Si       4.28161969       3.48379438      10.51640525
Si       8.29424838       1.17676612      17.68311050
Si       8.53392834       3.09920517      30.00594647
Si      10.53964599       3.91021283      31.75193832
Si       8.93295537       6.70084242      18.31441013
Si       4.64659871       2.39786474      10.08428290
Si       8.48602215       6.47029322      19.17804079
Si       3.71971393       2.60119414       1.12807286
Si      12.42104757       4.28573219      33.81703796
Si       8.75193162       1.89964923      24.79263712
Si       7.36468881       4.79788383      24.13890078
Si       1.48861078       2.87816204      -0.43717133
Si       5.56632127       0.77256595      17.16839741
Si      10.51879898       3.03257954      31.97632160
Si      11.12358928       6.86146184      19.86036229
Si       6.89743351       3.92839593      11.22627603
Si       8.72462438       7.65050852      18.49295735
Si       4.88048208       3.40634523       9.43955023
Si       7.94711786       0.63698410      18.43030234
Si      12.81705894       3.26959612      33.30919303
Si       6.95427638       2.85731094      11.35025191
22
Lattice="4.653167572629893 0.5398249852571952 2.5502886545965286 2.7138772114945464 6.66183253855164 2.181111138652871 8.653567535229206 0.7665526858170479 32.97135160098321" Properties=species:S:1:pos:R:3 unique_starting_index=40 config_type=initial n_minim_iter=13 stress="2.3892278348382538e-06 -2.9375083336869065e-05 1.1746740510125362e-05 -2.9375083336869065e-05 -2.1245608292066986e-05 2.2621745971303827e-06 1.1746740510125362e-05 2.2621745971303827e-06 9.889945819616847e-06" pbc="T T T"
Si      12.84481990       4.40134133      33.01965118
Si       4.28142688       3.48353743      10.51670317
Si       8.29409208       1.17685191      17.68374054
Si       8.53381613       3.09925552      30.00671179
Si      10.53962722       3.90992349      31.75246709
Si       8.93256300       6.70072044      18.31492884
Si       4.64650703       2.39761683      10.08464430
Si       8.48566655       6.47008061      19.17854661
Si       3.71962051       2.60084647       1.12808661
Si      12.42096443       4.28540853      33.81788511
Si       8.75185950       1.89904223      24.79337752
Si       7.36453942       4.79781130      24.13945636
Si       1.48840910       2.87834187      -0.43725385
Si       5.56626662       0.77252228      17.16886397
Si      10.51845699       3.03238786      31.97729124
Si      11.12327831       6.86131522      19.86077612
Si       6.89726576       3.92804470      11.22655279
Si       8.72418440       7.65035595      18.49361451
Si       4.88039180       3.40607289       9.43963150
Si       7.94714140       0.63664555      18.43073949
Si      12.81691996       3.26942207      33.30997160
Si       6.95419045       2.85707961      11.35050171
22
Lattice="4.653174327967589 0.5396888042832193 2.5503076336442922 2.713619251600051 6.66184245972244 2.1812473619033836 8.65333083625921 0.766790094012271 32.971960411070036" Properties=species:S:1:pos:R:3 unique_starting_index=40 config_type=initial n_minim_iter=14 stress="1.4623672311039126e-05 -2.831230501446164e-05 2.745505383304758e-06 -2.831230501446164e-05 1.1680112127297161e-05 1.1164817622789107e-06 2.745505383304758e-06 1.1164817622789107e-06 1.0039964345108118e-05" pbc="T T T"
Si      12.84451335       4.40151839      33.02027023
Si       4.28123674       3.48341104      10.51690207
Si       8.29377877       1.17718323      17.68431237
Si       8.53350148       3.09956053      30.00731772
Si      10.53953956       3.90985871      31.75293156
Si       8.93217543       6.70098874      18.31533885
Si       4.64640636       2.39757799      10.08498203
Si       8.48534363       6.47019263      19.17893144
Si       3.71957058       2.60062114       1.12805092
Si      12.42063405       4.28544193      33.81851038
Si       8.75161736       1.89853784      24.79403881
Si       7.36430878       4.79799153      24.13988842
Si       1.48841252       2.87868879      -0.43737604
Si       5.56605571       0.77264707      17.16927684
Si      10.51793530       3.03254969      31.97822990
Si      11.12296926       6.86169290      19.86103957
Si       6.89710366       3.92785168      11.22672691
Si       8.72373058       7.65064097      18.49417508
Si       4.88030236       3.40596286       9.43962405
Si       7.94704986       0.63640951      18.43105049
Si      12.81651763       3.26959883      33.31049709
Si       6.95412276       2.85703787      11.35066882
22
Lattice="4.653162340947006 0.5398506861750657 2.550301197565565 2.71374406158626 6.661953790448568 2.181400688320318 8.652859903185554 0.76772382969464 32.97254651968767" Properties=species:S:1:pos:R:3 unique_starting_index=40 config_type=initial n_minim_iter=15 stress="1.5700714533818227e-05 -1.4501989579004007e-05 -8.62735080573135e-06 -1.4501989579004007e-05 -5.837438296832365e-06 -8.213960377110701e-06 -8.62735080573135e-06 -8.213960377110701e-06 3.37544122362144e-05" pbc="T T T"
Si      12.84404719       4.40269461      33.02095848
Si       4.28125795       3.48345952      10.51691711
Si       8.29324153       1.17827935      17.68509868
Si       8.53318219       3.10053754      30.00781025
Si      10.53933087       3.91041139      31.75310585
Si       8.93198429       6.70206674      18.31576038
Si       4.64637165       2.39803192      10.08537046
Si       8.48526750       6.47090710      19.17924438
Si       3.71963577       2.60059897       1.12807067
Si      12.42030534       4.28641141      33.81900572
Si       8.75122159       1.89826128      24.79483351
Si       7.36424455       4.79861264      24.14025872
Si       1.48846995       2.87931685      -0.43749399
Si       5.56571959       0.77323446      17.16973886
Si      10.51735869       3.03332022      31.97935406
Si      11.12290945       6.86311916      19.86110646
Si       6.89705914       3.92795141      11.22682655
Si       8.72343093       7.65163398      18.49479139
Si       4.88030053       3.40606535       9.43962796
Si       7.94680298       0.63657133      18.43134915
Si      12.81622587       3.27074268      33.31095554
Si       6.95419158       2.85723569      11.35083318
22
Lattice="4.653141272866462 0.5402242265338072 2.5502580184765207 2.7140680306428124 6.662403536669057 2.181630713556871 8.65276586220927 0.7696176349812914 32.97179905423175" Properties=species:S:1:pos:R:3 unique_starting_index=40 config_type=initial n_minim_iter=16 stress="-4.0692342285838115e-06 1.8632555323434193e-05 1.1616572014034812e-05 1.8632555323434193e-05 2.6666413650487986e-05 -6.893383335717209e-05 1.1616572014034812e-05 -6.893383335717209e-05 6.8017594558280906e-06" pbc="T T T"
Si      12.84396893       4.40504970      33.02019283
Si       4.28153333       3.48399348      10.51650018
Si       8.29262956       1.18025539      17.68535517
Si       8.53326094       3.10260260      30.00707404
Si      10.53970289       3.91195807      31.75206306
Si       8.93215562       6.70418388      18.31562713
Si       4.64650357       2.39894558      10.08542087
Si       8.48555001       6.47256403      19.17893284
Si       3.71984721       2.60086193       1.12808329
Si      12.42026556       4.28849855      33.81838674
Si       8.75108976       1.89854210      24.79479265
Si       7.36462692       4.80001204      24.13971156
Si       1.48860506       2.88019206      -0.43755117
Si       5.56554183       0.77434023      17.16952437
Si      10.51710749       3.03510660      31.97932771
Si      11.12339055       6.86553753      19.86036560
Si       6.89720806       3.92855369      11.22656491
Si       8.72344674       7.65363112      18.49492901
Si       4.88046339       3.40655380       9.43939540
Si       7.94670670       0.63734070      18.43109478
Si      12.81640470       3.27308032      33.31034696
Si       6.95445767       2.85774454      11.35066930
22
Lattice="4.653131963979054 0.5405096401448924 2.5502110665608284 2.7140681459361513 6.662676046144544 2.18226835431671 8.652225473138984 0.7731265025412772 32.971487910553634" Properties=species:S:1:pos:R:3 unique_starting_index=40 config_type=initial n_minim_iter=17 stress="2.4690781346195497e-05 -7.183103971316318e-05 -2.5002980858836348e-05 -7.183103971316318e-05 -7.051908413724285e-06 0.0001244760759827774 -2.5002980858836348e-05 0.0001244760759827774 2.8381058940681032e-05" pbc="T T T"
Si      12.84346914       4.40864464      33.02013211
Si       4.28144618       3.48511506      10.51657769
Si       8.29199663       1.18254079      17.68559790
Si       8.53278373       3.10590754      30.00701553
Si      10.53926224       3.91506737      31.75178295
Si       8.93191850       6.70656342      18.31600594
Si       4.64640322       2.40002439      10.08557511
Si       8.48534787       6.47477303      19.17932573
Si       3.71992624       2.60097606       1.12829340
Si      12.41969818       4.29208764      33.81839881
Si       8.75064819       1.90047891      24.79490852
Si       7.36438466       4.80245421      24.13980527
Si       1.48866890       2.88051403      -0.43740178
Si       5.56513720       0.77617483      17.16947465
Si      10.51653753       3.03846673      31.97957466
Si      11.12333131       6.86810686      19.86040579
Si       6.89708903       3.92956417      11.22669235
Si       8.72300687       7.65595581      18.49553177
Si       4.88037323       3.40743242       9.43953750
Si       7.94642273       0.63909943      18.43094693
Si      12.81594409       3.27672088      33.31011891
Si       6.95440610       2.85868708      11.35076433
22
Lattice="4.653126109648161 0.5408502298032216 2.5501452533809905 2.714590323491158 6.663092193552581 2.1820545673566505 8.65228763671184 0.7730528697924928 32.9706219785763" Properties=species:S:1:pos:R:3 unique_starting_index=40 config_type=initial n_minim_iter=18 stress="-1.3954805946086816e-05 4.640553129703402e-05 1.9977007561915736e-05 4.640553129703402e-05 7.198245022766307e-05 -9.95418791578909e-05 1.9977007561915736e-05 -9.95418791578909e-05 -1.0996690209995919e-05" pbc="T T T"
Si      12.84373649       4.40908330      33.01916360
Si       4.28176570       3.48542356      10.51610955
Si       8.29161293       1.18326048      17.68559635
Si       8.53303423       3.10610928      30.00615365
Si      10.53966740       3.91506435      31.75055205
Si       8.93245639       6.70757961      18.31531558
Si       4.64663050       2.40011835      10.08529832
Si       8.48595381       6.47540486      19.17872693
Si       3.72023074       2.60127789       1.12821512
Si      12.41997001       4.29246304      33.81739355
Si       8.75071249       1.89984433      24.79452043
Si       7.36492105       4.80241087      24.13893708
Si       1.48892349       2.88107494      -0.43759953
Si       5.56500128       0.77623332      17.16914026
Si      10.51662937       3.03856054      31.97906158
Si      11.12404223       6.86930660      19.85938714
Si       6.89740093       3.92973318      11.22623530
Si       8.72334075       7.65687481      18.49493632
Si       4.88068079       3.40757221       9.43915130