24
Lattice="10.636394563771075 8.612435092525272e-13 5.4113295640744624e-14 5.318197281884794 9.21138789690089 -8.303520964175901e-14 5.318197281885246 3.0704626323006834 8.677543494017605" Properties=species:S:1:pos:R:3 unique_starting_index=24 config_type=initial n_minim_iter=10 energy=-3939.6829157650977 free_energy=-3939.6829157650977 pbc="T T T"
Si      12.17956758       4.78090605       8.22493196
Si      11.04261819       8.15736191       8.22493196
Si       8.68699633       5.48450692       8.22493196
Si      11.97613896       4.57270148       6.33294511
Si      11.32464295       8.08528984       6.33294511
Si       8.60840020       5.76478356       6.33294511
Si      13.58376596       5.38466059       1.90812082
Si       9.81765223       9.07155611       1.90812082
Si       8.50776391       3.96655819       1.90812082
Si      11.48814738       8.05327317       2.33539939
Si       8.55437523       5.92239089       2.33539939
Si      11.86665949       4.44711082       2.33539939
Si      12.70243086       8.48603340       7.51142663
Si       7.57245214       6.75761112       7.51142663
Si      11.63429910       3.17913036       7.51142663
Si      14.39178350       3.44995738       6.98068399
Si      11.08914559      10.73867143       6.98068399
Si       6.42825301       4.23414607       6.98068399
Si      11.69229322      11.81376192       6.17954370
Si       5.19562352       4.21894200       6.17954370
Si      15.02126536       2.39007096       6.17954370
Si       5.35860222       1.91527641       0.91503173
Si       6.29841437       3.68304745       0.91503173
Si       4.29757366       3.61306313       0.91503173
