12
Lattice="4.953744427204516 -1.0776073756710945e-16 -2.0543771622324707e-21 1.3271358461614473e-16 6.495838751904937 2.3707680197402515e-16 3.2886380805169084e-21 -3.3899354463676275e-16 9.289064730081716" Properties=species:S:1:pos:R:3 unique_starting_index=60 config_type=initial n_minim_iter=15 energy=-1960.04530403825 free_energy=-1960.04530403825 pbc="T T T"
Si       2.58204668       2.35935011      -0.42445732
Si       2.58204668       4.13648864       9.71352205
Si       0.10517446       0.88856926       4.22007505
Si       0.10517446       5.60726949       5.06898968
Si       4.05920165       4.10630281       4.19619602
Si       4.05920165       2.38953594       5.09286871
Si       1.58232944       5.63745532       8.84072838
Si       1.58232944       0.85838343       0.44833635
Si       0.58311817       2.35951747       8.86432575
Si       0.58311817       4.13632128       0.42473898
Si       3.05999039       0.88840191       4.21979339
Si       3.05999039       5.60743685       5.06927134
