22
Lattice="9.308879846386692 -3.1413817649840015 -1.1261388601729347 -8.718432464129567 9.414547438340199 -1.8064101219961302 -4.954387877900363 -1.2274346332247978 11.71394214635724" Properties=species:S:1:pos:R:3 unique_starting_index=18 config_type=initial n_minim_iter=1 energy=-4253.740855196881 free_energy=-4253.740855196881 pbc="T T T"
Si      -1.10182966       6.16057307      -0.09317692
Si       1.16338015       0.13293991       9.49935402
Si      -4.17423598      -1.17678913       9.43734756
Si       0.81758769       0.39519010      10.53101963
Si      -8.44949200       4.12130157      10.70799645
Si       6.11730414       0.82439916      -1.42178368
Si       3.46756176       0.37927333      -1.79189191
Si      -1.59932065       0.13214606       9.02239153
Si      -1.78962517       0.03802085       9.92984097
Si      -8.34118092       2.83090811       5.21277238
Si       1.16232433      -0.17550243       3.12705888
Si      -6.15449398       4.70858957       5.57894665
Si      -4.10416060      -0.74434225       8.53372077
Si      -3.79086997       5.62726602      -0.13526172
Si       0.64489629       0.62961787       4.11267319
Si      -0.77063218       5.29753807      -0.26009975
Si      -1.65599925      -0.73995634       3.53258200
Si       5.49955338      -4.83907197       7.53348431
Si       0.83786347       0.76196933       3.14676636
Si      -5.85001077       3.73834069       5.69179336
Si      -5.78584191       4.19586970       4.78043765
Si      -1.29844573      -0.75399442       9.01245139
22
Lattice="9.308877750363834 -3.141418560532868 -1.1261517125200424 -8.718461854908714 9.414526479423754 -1.806323838211449 -4.954351519906133 -1.2272828130644555 11.713903545545335" Properties=species:S:1:pos:R:3 unique_starting_index=18 config_type=initial n_minim_iter=2 stress="-0.0002446925914292536 -7.51732157838273e-05 -5.9702219494777767e-05 -7.51732157838273e-05 -5.108750812652217e-05 -1.4935509374705962e-05 -5.9702219494777767e-05 -1.4935509374705962e-05 -4.2184246609183955e-05" pbc="T T T"
Si      -1.10184508       6.16058258      -0.09313346
Si       1.16341140       0.13305263       9.49934555
Si      -4.17420834      -1.17667085       9.43730894
Si       0.81760545       0.39527579      10.53100571
Si      -8.44946231       4.12143347      10.70801421
Si       6.11728374       0.82437735      -1.42174077
Si       3.46755506       0.37924968      -1.79187551
Si      -1.59930306       0.13225624       9.02237724
Si      -1.78958404       0.03812016       9.92984396
Si      -8.34115489       2.83100432       5.21277623
Si       1.16232636      -0.17546117       3.12706437
Si      -6.15448994       4.70864252       5.57896846
Si      -4.10410901      -0.74424893       8.53370586
Si      -3.79090767       5.62726111      -0.13521803
Si       0.64488578       0.62965511       4.11267359
Si      -0.77064023       5.29751355      -0.26006744
Si      -1.65600923      -0.73990872       3.53257653
Si       5.49957787      -4.83899474       7.53340540
Si       0.83786380       0.76199289       3.14678001
Si      -5.85002916       3.73839300       5.69182401
Si      -5.78582706       4.19595212       4.78047143
Si      -1.29843546      -0.75390849       9.01244230
22
Lattice="9.308889623343715 -3.141416539964618 -1.126149320787813 -8.718472035851256 9.414524613254812 -1.8063239264198339 -4.954354054306542 -1.2272796891107263 11.71390343977676" Properties=species:S:1:pos:R:3 unique_starting_index=18 config_type=initial n_minim_iter=3 stress="2.834549273012484e-05 1.4851435827687859e-05 4.430995722740221e-06 1.4851435827687859e-05 -1.357877154522239e-05 7.3806612931429e-06 4.430995722740221e-06 7.3806612931429e-06 -1.789398974609628e-05" pbc="T T T"
Si      -1.10184443       6.16058420      -0.09313207
Si       1.16341760       0.13305753       9.49934806
Si      -4.17421080      -1.17666874       9.43730853
Si       0.81761114       0.39528009      10.53100833
Si      -8.44946813       4.12143599      10.70801485
Si       6.11729202       0.82437952      -1.42173746
Si       3.46755942       0.37925038      -1.79187412
Si      -1.59930148       0.13225977       9.02237858
Si      -1.78958188       0.03812327       9.92984599
Si      -8.34116336       2.83100488       5.21277492
Si       1.16232921      -0.17545908       3.12706574
Si      -6.15449474       4.70864326       5.57896873
Si      -4.10411069      -0.74424741       8.53370604
Si      -3.79091195       5.62726091      -0.13521762
Si       0.64488807       0.62965716       4.11267498
Si      -0.77063930       5.29751421      -0.26006624
Si      -1.65601100      -0.73990782       3.53257642
Si       5.49958730      -4.83899073       7.53340632
Si       0.83786660       0.76199459       3.14678163
Si      -5.85003463       3.73839354       5.69182471
Si      -5.78583153       4.19595388       4.78047199
Si      -1.29843408      -0.75390586       9.01244384
22
Lattice="9.308898944845117 -3.1414960660003715 -1.126144751334328 -8.71851965275776 9.414664152474842 -1.806362448489251 -4.954319512506812 -1.227261564411884 11.714045209037765" Properties=species:S:1:pos:R:3 unique_starting_index=18 config_type=initial n_minim_iter=4 stress="1.1312627152327303e-05 -2.2648886374926714e-05 -4.475513860996011e-05 -2.2648886374926714e-05 8.40591238621443e-05 -9.562266428530143e-06 -4.475513860996011e-05 -9.562266428530143e-06 0.0001513346959464462" pbc="T T T"
Si      -1.10187436       6.16065425      -0.09315063
Si       1.16344478       0.13306144       9.49946730
Si      -4.17418327      -1.17667214       9.43741923
Si       0.81762659       0.39529955      10.53114885
Si      -8.44945413       4.12152857      10.70814403
Si       6.11727927       0.82435638      -1.42172910
Si       3.46754408       0.37922974      -1.79188358
Si      -1.59927186       0.13227461       9.02249848
Si      -1.78955914       0.03812563       9.92998294
Si      -8.34116937       2.83108768       5.21282405
Si       1.16233671      -0.17545579       3.12711154
Si      -6.15449924       4.70871443       5.57902368
Si      -4.10407116      -0.74424169       8.53381416
Si      -3.79094741       5.62733229      -0.13523376
Si       0.64487594       0.62966540       4.11273338
Si      -0.77066288       5.29758776      -0.26006849
Si      -1.65600239      -0.73989576       3.53260210
Si       5.49962791      -4.83907193       7.53349341
Si       0.83787567       0.76200514       3.14683008
Si      -5.85004615       3.73844873       5.69189963
Si      -5.78583496       4.19604856       4.78052737
Si      -1.29840486      -0.75391080       9.01257050
22
Lattice="9.308874438451182 -3.1415043671688476 -1.1260581450391218 -8.71853151612692 9.41465041448911 -1.8064035957491829 -4.954204615596508 -1.2272288678204721 11.713886032044513" Properties=species:S:1:pos:R:3 unique_starting_index=18 config_type=initial n_minim_iter=5 stress="3.2026753174264527e-06 -6.7921187643798515e-06 4.1176273351383145e-06 -6.7921187643798515e-06 2.269513707916824e-05 -2.6485045491252398e-06 4.1176273351383145e-06 -2.6485045491252398e-06 -3.816710272775515e-05" pbc="T T T"
Si      -1.10188080       6.16064073      -0.09316608
Si       1.16353214       0.13308008       9.49937936
Si      -4.17409077      -1.17666532       9.43728494
Si       0.81771093       0.39533202      10.53105397
Si      -8.44934170       4.12155288      10.70798021
Si       6.11724891       0.82434411      -1.42164798
Si       3.46751174       0.37921247      -1.79182881
Si      -1.59917877       0.13229198       9.02240506
Si      -1.78947036       0.03813383       9.92988049
Si      -8.34112056       2.83111345       5.21270310
Si       1.16236289      -0.17544041       3.12709344
Si      -6.15444029       4.70871055       5.57891834
Si      -4.10397193      -0.74422992       8.53370078
Si      -3.79095713       5.62731873      -0.13526422
Si       0.64489161       0.62967452       4.11270340
Si      -0.77066959       5.29759258      -0.26006117
Si      -1.65597028      -0.73987298       3.53253235
Si       5.49969285      -4.83906150       7.53343833
Si       0.83790777       0.76201399       3.14681439
Si      -5.84999675       3.73844431       5.69181098
Si      -5.78578391       4.19607573       4.78044234
Si      -1.29831570      -0.75389606       9.01248351
22
Lattice="9.30882802104768 -3.141442283425957 -1.126029282154145 -8.718489465646968 9.414491452574833 -1.806444653038349 -4.954124367714451 -1.227186334389955 11.713993958254413" Properties=species:S:1:pos:R:3 unique_starting_index=18 config_type=initial n_minim_iter=6 stress="-1.4025854032046758e-05 4.513040338225014e-05 -5.005710554199781e-06 4.513040338225014e-05 -0.00011451812592307511 -1.7195260819286433e-05 -5.005710554199781e-06 -1.7195260819286433e-05 6.389055295968585e-05" pbc="T T T"
Si      -1.10185742       6.16056153      -0.09317404
Si       1.16358799       0.13310760       9.49950120
Si      -4.17402443      -1.17666168       9.43736552
Si       0.81776352       0.39536243      10.53117986
Si      -8.44923417       4.12150487      10.70807146
Si       6.11721053       0.82435542      -1.42162002
Si       3.46748129       0.37919390      -1.79181832
Si      -1.59910902       0.13230133       9.02251641
Si      -1.78941955       0.03814510       9.92999286
Si      -8.34107613       2.83108326       5.21272439
Si       1.16238201      -0.17541060       3.12713602
Si      -6.15437455       4.70863474       5.57896666
Si      -4.10389987      -0.74421267       8.53378322
Si      -3.79093890       5.62723666      -0.13527454
Si       0.64489991       0.62969005       4.11276283
Si      -0.77065779       5.29752625      -0.26005703
Si      -1.65595623      -0.73983793       3.53254789
Si       5.49971709      -4.83896620       7.53352608
Si       0.83793439       0.76202539       3.14686565
Si      -5.84993840       3.73838509       5.69186140
Si      -5.78572764       4.19602978       4.78048333
Si      -1.29825051      -0.75385796       9.01259378
22
Lattice="9.308830749374227 -3.141592348742488 -1.125954988786449 -8.718596083191462 9.41467502973158 -1.8064432214041388 -4.953961676281708 -1.2270135288226882 11.713932403102632" Properties=species:S:1:pos:R:3 unique_starting_index=18 config_type=initial n_minim_iter=7 stress="-2.7570320756771025e-06 -1.2438148068959105e-06 -3.6528024902970294e-06 -1.2438148068959105e-06 1.9483049504395618e-05 2.196657216512237e-05 -3.6528024902970294e-06 2.196657216512237e-05 -3.919500646028303e-06" pbc="T T T"
Si      -1.10191085       6.16067531      -0.09315382
Si       1.16371421       0.13319381       9.49953360
Si      -4.17388744      -1.17659221       9.43730198
Si       0.81787219       0.39547876      10.53119373
Si      -8.44911934       4.12176216      10.70802387
Si       6.11715180       0.82430929      -1.42152777
Si       3.46743534       0.37910412      -1.79175355
Si      -1.59897629       0.13239792       9.02253549
Si      -1.78932163       0.03825336       9.92998572
Si      -8.34107046       2.83128867       5.21265439
Si       1.16243300      -0.17536234       3.12714997
Si      -6.15434505       4.70879940       5.57896103
Si      -4.10376393      -0.74409585       8.53374678
Si      -3.79100736       5.62736199      -0.13526631
Si       0.64491645       0.62976404       4.11279010
Si      -0.77071676       5.29760867      -0.26001737
Si      -1.65592670      -0.73975343       3.53249868
Si       5.49987756      -4.83901716       7.53351374
Si       0.83798050       0.76208698       3.14690217
Si      -5.84990277       3.73853668       5.69184065
Si      -5.78570376       4.19621320       4.78047292
Si      -1.29810740      -0.75374848       9.01260365
22
Lattice="9.308853883060339 -3.1416487617078555 -1.1257788985907877 -8.718727332210598 9.414709741102921 -1.806691805214048 -4.953767826764806 -1.227079641024085 11.71392784344011" Properties=species:S:1:pos:R:3 unique_starting_index=18 config_type=initial n_minim_iter=8 stress="7.02487294082674e-05 -6.424972215127625e-05 -2.540265760595518e-05 -6.424972215127625e-05 -4.880926668533159e-05 -4.493708513268349e-05 -2.540265760595518e-05 -4.493708513268349e-05 -1.668024348342975e-05" pbc="T T T"
Si      -1.10196528       6.16068354      -0.09327604
Si       1.16389640       0.13308039       9.49960536
Si      -4.17372030      -1.17674060       9.43728428
Si       0.81799643       0.39538870      10.53124531
Si      -8.44897481       4.12169170      10.70789703
Si       6.11710829       0.82426587      -1.42143469
Si       3.46740399       0.37904622      -1.79169079
Si      -1.59882162       0.13228991       9.02257897
Si      -1.78917132       0.03813856       9.93001932
Si      -8.34106580       2.83132761       5.21250677
Si       1.16249093      -0.17537949       3.12718238
Si      -6.15431024       4.70875325       5.57887454
Si      -4.10361772      -0.74415341       8.53375197
Si      -3.79107669       5.62737499      -0.13540547
Si       0.64495758       0.62975097       4.11281899
Si      -0.77075698       5.29759475      -0.26009161
Si      -1.65590716      -0.73972475       3.53248736
Si       5.50007880      -4.83914044       7.53367055
Si       0.83803321       0.76207278       3.14693773
Si      -5.84986356       3.73848400       5.69171116
Si      -5.78564928       4.19619142       4.78036962
Si      -1.29794506      -0.75384690       9.01265892
22
Lattice="9.308729484879823 -3.141613838243391 -1.125688233409516 -8.718607408361844 9.41469786921419 -1.8067769780265686 -4.953594426035361 -1.2270865403756568 11.713928147840306" Properties=species:S:1:pos:R:3 unique_starting_index=18 config_type=initial n_minim_iter=9 stress="-2.4837910602466426e-05 2.119164576124327e-05 1.8021239115275986e-05 2.119164576124327e-05 1.9604774091314927e-05 -3.3875398262621895e-07 1.8021239115275986e-05 -3.3875398262621895e-07 3.752466915836779e-06" pbc="T T T"
Si      -1.10191745       6.16071999      -0.09329004
Si       1.16400273       0.13310597       9.49966681
Si      -4.17357310      -1.17679241       9.43727788
Si       0.81809067       0.39543255      10.53130184
Si      -8.44873662       4.12168268      10.70786233
Si       6.11702501       0.82430232      -1.42136720
Si       3.46734937       0.37904484      -1.79165277
Si      -1.59869827       0.13228977       9.02261468
Si      -1.78904261       0.03813701       9.93005445
Si      -8.34092583       2.83132154       5.21244040
Si       1.16251238      -0.17535576       3.12720770
Si      -6.15415966       4.70874676       5.57886169
Si      -4.10348111      -0.74416611       8.53375867
Si      -3.79101081       5.62738779      -0.13544509
Si       0.64499250       0.62978610       4.11284879
Si      -0.77071965       5.29761916      -0.26008959
Si      -1.65587412      -0.73970514       3.53247950
Si       5.50008852      -4.83912831       7.53374676
Si       0.83806824       0.76210329       3.14696984
Si      -5.84972672       3.73846936       5.69166668
Si      -5.78550235       4.19618679       4.78034151
Si      -1.29783279      -0.75385082       9.01269550
22
Lattice="9.30876793249711 -3.141667996696039 -1.1256472400570434 -8.718717534227258 9.414673550017497 -1.8068032816083384 -4.953513157731745 -1.2269745934274792 11.71397136050513" Properties=species:S:1:pos:R:3 unique_starting_index=18 config_type=initial n_minim_iter=10 stress="6.144025183165635e-06 -6.720774763507569e-07 -1.72454619315558e-05 -6.720774763507569e-07 -9.774520974276946e-06 3.056311486005079e-05 -1.72454619315558e-05 3.056311486005079e-05 -6.550165391010174e-07" pbc="T T T"
Si      -1.10197122       6.16068555      -0.09328129
Si       1.16409740       0.13312945       9.49974707
Si      -4.17348450      -1.17679349       9.43731504
Si       0.81815108       0.39549692      10.53137508
Si      -8.44869343       4.12176766      10.70788551
Si       6.11700616       0.82425111      -1.42131570
Si       3.46733835       0.37896727      -1.79163427
Si      -1.59862371       0.13232788       9.02267639
Si      -1.78897660       0.03815892       9.93012844
Si      -8.34095910       2.83143559       5.21241934
Si       1.16253675      -0.17531976       3.12723123
Si      -6.15417756       4.70877076       5.57893299
Si      -4.10340953      -0.74409532       8.53383840
Si      -3.79108109       5.62740790      -0.13547448
Si       0.64499107       0.62984110       4.11288020
Si      -0.77077722       5.29759653      -0.26004609
Si      -1.65588548      -0.73958728       3.53247325
Si       5.50020406      -4.83913041       7.53377951
Si       0.83809763       0.76214450       3.14700972
Si      -5.84975025       3.73848474       5.69163126
Si      -5.78548628       4.19620736       4.78036020
Si      -1.29775149      -0.75382840       9.01276117
22
Lattice="9.308745706977362 -3.1416944136005247 -1.1254567501189001 -8.718770747928547 9.414750064341545 -1.8071022555680971 -4.953316179980853 -1.2271462991427289 11.713970568803635" Properties=species:S:1:pos:R:3 unique_starting_index=18 config_type=initial n_minim_iter=11 stress="-1.1851453548133914e-05 -2.6884421700777473e-05 6.668598558593198e-05 -2.6884421700777473e-05 -4.9639889840641595e-06 -1.5244885677238606e-05 6.668598558593198e-05 -1.5244885677238606e-05 2.8146192574953472e-05" pbc="T T T"
Si      -1.10199471       6.16071873      -0.09341434
Si       1.16424082       0.13295596       9.49980520
Si      -4.17331168      -1.17699125       9.43732854
Si       0.81830914       0.39533035      10.53142363
Si      -8.44852566       4.12162878      10.70772697
Si       6.11695739       0.82426001      -1.42122624
Si       3.46730388       0.37895786      -1.79160053
Si      -1.59846300       0.13217137       9.02269620
Si      -1.78881168       0.03797704       9.93015083
Si      -8.34089241       2.83141930       5.21225882
Si       1.16257365      -0.17535894       3.12726089
Si      -6.15409495       4.70869780       5.57881249
Si      -4.10325922      -0.74423043       8.53387340
Si      -3.79111165       5.62745781      -0.13565654
Si       0.64503379       0.62980005       4.11289325
Si      -0.77081187       5.29761626      -0.26012273
Si      -1.65583912      -0.73958872       3.53248885
Si       5.50033572      -4.83931011       7.53395470
Si       0.83814920       0.76211359       3.14702544
Si      -5.84966947       3.73840077       5.69147627
Si      -5.78541596       4.19615786       4.78022168
Si      -1.29759139      -0.75399457       9.01279931
22
Lattice="9.308756261089638 -3.1416601023592294 -1.1254715246468283 -8.718745606356212 9.414753805845557 -1.807133701039473 -4.953385466044295 -1.2272644094329965 11.713964819787543" Properties=species:S:1:pos:R:3 unique_starting_index=18 config_type=initial n_minim_iter=12 stress="-3.2914461253504902e-06 4.0304443640567844e-05 -3.3569571535954777e-05 4.0304443640567844e-05 2.5450024416109337e-05 -4.975657805018162e-05 -3.3569571535954777e-05 -4.975657805018162e-05 -2.5518291291256895e-05" pbc="T T T"
Si      -1.10197315       6.16074664      -0.09347277
Si       1.16419523       0.13287022       9.49976533
Si      -4.17336109      -1.17713232       9.43734032
Si       0.81825658       0.39526078      10.53137438
Si      -8.44857205       4.12151353      10.70768768
Si       6.11696973       0.82430172      -1.42124726
Si       3.46732059       0.37896600      -1.79162107
Si      -1.59849378       0.13207534       9.02267502
Si      -1.78885585       0.03786710       9.93012478
Si      -8.34093759       2.83137522       5.21224993
Si       1.16255068      -0.17536782       3.12724085
Si      -6.15411001       4.70862626       5.57880102
Si      -4.10330483      -0.74433022       8.53391063
Si      -3.79110385       5.62747144      -0.13570809
Si       0.64500675       0.62979099       4.11286591
Si      -0.77080130       5.29762890      -0.26014461
Si      -1.65587807      -0.73958778       3.53250535
Si       5.50029731      -4.83938335       7.53392170
Si       0.83814521       0.76210902       3.14700339
Si      -5.84969375       3.73832544       5.69143288
Si      -5.78543590       4.19610993       4.78019459
Si      -1.29762960      -0.75409158       9.01278012
22
Lattice="9.308842388057563 -3.1417536336280656 -1.125441937078802 -8.718921238041398 9.41477279171273 -1.8071422986552255 -4.953335509872085 -1.2271348920135958 11.713985677048406" Properties=species:S:1:pos:R:3 unique_starting_index=18 config_type=initial n_minim_iter=13 stress="8.766137377566657e-07 -4.528860568657586e-06 3.389290785645388e-06 -4.528860568657586e-06 -1.453517566923953e-05 1.8739333446246527e-05 3.389290785645388e-06 1.8739333446246527e-05 6.462395198170896e-06" pbc="T T T"
Si      -1.10205708       6.16075154      -0.09347862
Si       1.16424739       0.13287964       9.49982048
Si      -4.17329921      -1.17712581       9.43739472
Si       0.81830413       0.39535805      10.53141916
Si      -8.44859519       4.12162332      10.70768763
Si       6.11697609       0.82423070      -1.42119173
Si       3.46733621       0.37886675      -1.79162585
Si      -1.59843047       0.13209671       9.02271279
Si      -1.78879299       0.03789477       9.93015577
Si      -8.34102266       2.83153363       5.21222808
Si       1.16255145      -0.17533191       3.12724720
Si      -6.15415252       4.70865553       5.57885484
Si      -4.10326832      -0.74426778       8.53402420
Si      -3.79119890       5.62749467      -0.13574985
Si       0.64501273       0.62985389       4.11288317
Si      -0.77089347       5.29759625      -0.26008050
Si      -1.65590392      -0.73945246       3.53254667
Si       5.50044676      -4.83940961       7.53390853
Si       0.83816866       0.76214643       3.14702141
Si      -5.84973063       3.73836278       5.69140503
Si      -5.78550672       4.19618721       4.78019527
Si      -1.29756349      -0.75405555       9.01279985
22
Lattice="9.308917400336368 -3.141828343843235 -1.1253764507227544 -8.719047784228877 9.414918450037133 -1.8072843096423075 -4.953327224877017 -1.2272594869657638 11.713969123998522" Properties=species:S:1:pos:R:3 unique_starting_index=18 config_type=initial n_minim_iter=14 stress="-3.3988357980188236e-06 3.343145108194174e-06 8.449224101138278e-06 3.343145108194174e-06 2.4529439116576724e-06 -1.404278974492063e-05 8.449224101138278e-06 -1.404278974492063e-05 1.799780352955791e-06" pbc="T T T"
Si      -1.10210658       6.16081867      -0.09360203
Si       1.16428625       0.13272839       9.49981998
Si      -4.17325442      -1.17734255       9.43743049
Si       0.81831729       0.39524497      10.53138862
Si      -8.44861448       4.12155574      10.70755927
Si       6.11697554       0.82423914      -1.42114904
Si       3.46737047       0.37882056      -1.79163578
Si      -1.59841838       0.13194115       9.02268572
Si      -1.78875805       0.03773797       9.93012684
Si      -8.34110944       2.83159819       5.21215448
Si       1.16253862      -0.17535479       3.12723162
Si      -6.15418628       4.70861403       5.57879943
Si      -4.10327368      -0.74439372       8.53410533
Si      -3.79125375       5.62759469      -0.13587501
Si       0.64503309       0.62986078       4.11286760
Si      -0.77097346       5.29765560      -0.26008977
Si      -1.65595471      -0.73939449       3.53256011
Si       5.50055388      -4.83960122       7.53392159
Si       0.83817074       0.76213845       3.14699793
Si      -5.84976552       3.73831261       5.69130468
Si      -5.78557627       4.19623753       4.78010240
Si      -1.29754655      -0.75420449       9.01276320
22
Lattice="9.3089924469642 -3.141890286711148 -1.125424032802524 -8.719143567457513 9.414976396451571 -1.8072151939227667 -4.953399044326968 -1.2271983954683514 11.713962626278681" Properties=species:S:1:pos:R:3 unique_starting_index=18 config_type=initial n_minim_iter=15 stress="-4.3032552168781936e-07 -6.568131151919443e-07 1.1598497948763198e-06 -6.568131151919443e-07 -1.935079139741378e-06 5.640300740570759e-06 1.1598497948763198e-06 5.640300740570759e-06 3.398835348985692e-06" pbc="T T T"
Si      -1.10213251       6.16084317      -0.09360295
Si       1.16424609       0.13273404       9.49980505
Si      -4.17328483      -1.17736217       9.43744759
Si       0.81825270       0.39528314      10.53136062
Si      -8.44873248       4.12162717      10.70755944
Si       6.11698749       0.82421423      -1.42114777
Si       3.46741193       0.37878050      -1.79165334
Si      -1.59846232       0.13195817       9.02266949
Si      -1.78879322       0.03775588       9.93011584
Si      -8.34121184       2.83169444       5.21218855
Si       1.16251970      -0.17533871       3.12721602
Si      -6.15426061       4.70864965       5.57885031
Si      -4.10334166      -0.74436012       8.53414128
Si      -3.79129829       5.62763800      -0.13586220
Si       0.64502251       0.62989362       4.11285668
Si      -0.77101144       5.29767501      -0.26004019
Si      -1.65598216      -0.73931258       3.53256459
Si       5.50057589      -4.83962412       7.53384012
Si       0.83814529       0.76215501       3.14698531
Si      -5.84984094       3.73834581       5.69131576
Si      -5.78566209       4.19631917       4.78012372
Si      -1.29758285      -0.75418513       9.01273370
22
Lattice="9.30911446356989 -3.14197245101743 -1.125479088815771 -8.719284598884752 9.41509343472912 -1.8071642472450182 -4.953531197096253 -1.227207473614272 11.713915485468911" Properties=species:S:1:pos:R:3 unique_starting_index=18 config_type=initial n_minim_iter=16 stress="-1.2353517330630438e-06 4.917229454995254e-07 2.2030064120075215e-06 4.917229454995254e-07 3.123137642122428e-06 -2.5300079071507667e-06 2.2030064120075215e-06 -2.5300079071507667e-06 -1.6191815209420857e-07" pbc="T T T"
Si      -1.10218982       6.16089536      -0.09368356
Si       1.16417329       0.13267092       9.49974035
Si      -4.17333270      -1.17749516       9.43743599
Si       0.81817912       0.39527751      10.53127915
Si      -8.44894096       4.12164873      10.70749264
Si       6.11702444       0.82419909      -1.42113381
Si       3.46746416       0.37874412      -1.79168690
Si      -1.59854601       0.13191969       9.02260337
Si      -1.78886934       0.03769568       9.93005834
Si      -8.34136898       2.83180010       5.21221779
Si       1.16250211      -0.17533531       3.12718897
Si      -6.15438470       4.70866631       5.57889205
Si      -4.10345730      -0.74435628       8.53415257
Si      -3.79133973       5.62771250      -0.13588947
Si       0.64500749       0.62990490       4.11281740
Si      -0.77108085       5.29768964      -0.26002209
Si      -1.65604164      -0.73922287       3.53256320
Si       5.50058630      -4.83971436       7.53370914
Si       0.83811342       0.76215553       3.14694933
Si      -5.84996875       3.73835270       5.69128031
Si      -5.78581451       4.19641084       4.78011387
Si      -1.29766047      -0.75422907       9.01265767
22
Lattice="9.309263480532653 -3.1420513058012833 -1.1255803723003293 -8.719445634020573 9.415165566770831 -1.807046174855636 -4.9537153841285395 -1.2271612296208911 11.713887143164088" Properties=species:S:1:pos:R:3 unique_starting_index=18 config_type=initial n_minim_iter=17 stress="2.7638247586408856e-07 -1.168350630943466e-06 -2.108024867678965e-06 -1.168350630943466e-06 2.5486749549164653e-06 4.218820642303813e-06 -2.108024867678965e-06 4.218820642303813e-06 3.742211072133789e-07" pbc="T T T"
Si      -1.10222028       6.16090990      -0.09375685
Si       1.16405225       0.13263563       9.49967824
Si      -4.17343642      -1.17758067       9.43741894
Si       0.81807866       0.39530780      10.53120897
Si      -8.44919585       4.12169995      10.70747980
Si       6.11708812       0.82416684      -1.42112455
Si       3.46753796       0.37869200      -1.79172951
Si      -1.59868346       0.13191408       9.02255704
Si      -1.78898020       0.03769124       9.93001144
Si      -8.34157002       2.83190098       5.21229583
Si       1.16244071      -0.17533642       3.12715701
Si      -6.15453997       4.70869514       5.57900972
Si      -4.10360517      -0.74429035       8.53418904
Si      -3.79140743       5.62777250      -0.13589497
Si       0.64495869       0.62992904       4.11277930
Si      -0.77113730       5.29767429      -0.25997031
Si      -1.65611051      -0.73911491       3.53255067
Si       5.50060878      -4.83974572       7.53351569
Si       0.83807689       0.76216022       3.14691287
Si      -5.85011137       3.73837751       5.69127681
Si      -5.78601424       4.19649953       4.78015411
Si      -1.29780216      -0.75423261       9.01259226
22
Lattice="9.309428377167084 -3.142117214038323 -1.125660997198196 -8.719623801360758 9.415221896567871 -1.8069777969619267 -4.953904410779719 -1.2271723271151436 11.713847835671737" Properties=species:S:1:pos:R:3 unique_starting_index=18 config_type=initial n_minim_iter=18 stress="2.4683760701777246e-06 -1.573610730270901e-06 -5.751661370137256e-06 -1.573610730270901e-06 2.0136145370571516e-06 6.7333966798060375e-06 -5.751661370137256e-06 6.7333966798060375e-06 2.737931813800771e-07" pbc="T T T"
Si      -1.10226049       6.16089234      -0.09389671
Si       1.16392505       0.13253417       9.49961313
Si      -4.17352757      -1.17771163       9.43738858
Si       0.81795404       0.39528475      10.53111702
Si      -8.44944462       4.12167884      10.70742358
Si       6.11715343       0.82413367      -1.42111091
Si       3.46763764       0.37864699      -1.79175402
Si      -1.59880305       0.13186984       9.02250564
Si      -1.78907488       0.03764277       9.92996171
Si      -8.34177244       2.83196477       5.21235865
Si       1.16238031      -0.17536145       3.12712630
Si      -6.15471882       4.70867655       5.57911828
Si      -4.10379103      -0.74426330       8.53423697
Si      -3.79148920       5.62783186      -0.13595127
Si       0.64492874       0.62994619       4.11273777
Si      -0.77122098       5.29761573      -0.25994265
Si      -1.65619222      -0.73901030       3.53253083