12
Lattice="5.979146426751135 1.0857300874913516 -1.8065928058138794 -0.1461423881207275 8.015912405354927 0.6309144070849525 -3.017585645019671 -1.796876845215692 11.610778279589047" Properties=species:S:1:pos:R:3 unique_starting_index=44 config_type=initial n_minim_iter=1 energy=-2128.6399690372323 free_energy=-2128.6399690372323 pbc="T T T"
Si      -1.80088415       2.31933189       9.61295965
Si      -0.75542410       4.33340922       3.97506985
Si      -2.13174038       4.90990302      10.40300158
Si       2.93311214       3.39035974       7.65916591
Si       3.42526579       6.05889658       7.74503638
Si       3.72000638       3.45061188       6.88919590
Si       6.29102798       5.12022136      -2.96485539
Si       1.40297196       4.02378625      -1.00164496
Si      -2.41079454      -0.40839999      10.16033245
Si       5.69957449       3.40600568       1.86435517
Si      -2.69359559      -0.33725027       9.12847835
Si      -1.66740619      -0.34519404       9.40050405
12
Lattice="5.97953431708824 1.0931488061386385 -1.8126103663659292 -0.14171858475522486 8.023097222270174 0.619089270885801 -3.033234286197587 -1.816249370457954 11.594045525541798" Properties=species:S:1:pos:R:3 unique_starting_index=44 config_type=initial n_minim_iter=2 stress="0.00035796912209516105 -0.001288835966017691 -0.002416151709261865 -0.001288835966017691 0.03440267909485981 0.002213057374157921 -0.002416151709261865 0.002213057374157921 -0.00529410448667627" pbc="T T T"
Si      -1.81210039       2.30726983       9.59056936
Si      -0.75759013       4.33233417       3.96262582
Si      -2.14312861       4.90138535      10.37712720
Si       2.92356501       3.38579815       7.63572040
Si       3.41804180       6.05514548       7.71845936
Si       3.71151861       3.44787776       6.86585875
Si       6.29493336       5.13477161      -2.97462874
Si       1.40668861       4.02894231      -1.00563751
Si      -2.42342083      -0.42638052      10.14270144
Si       5.69612508       3.41037362       1.84901949
Si      -2.70552567      -0.35007121       9.11469268
Si      -1.67892494      -0.35934723       9.38436183
12
Lattice="5.979494191499998 1.0941856255613207 -1.8139193228729784 -0.14040705125369435 8.017672816877807 0.616023462432825 -3.0361192593861 -1.8198372516801231 11.591717834699745" Properties=species:S:1:pos:R:3 unique_starting_index=44 config_type=initial n_minim_iter=3 stress="-0.0008029074976074417 -0.0003604818178009118 -0.0035754505899476432 -0.0003604818178009118 -0.0021791224024464615 -0.0015292674629141033 -0.0035754505899476432 -0.0015292674629141033 -0.008391931057515123" pbc="T T T"
Si      -1.81397051       2.30184723       9.58644943
Si      -0.75768208       4.32807165       3.96006352
Si      -2.14493486       4.89454580      10.37224207
Si       2.92194576       3.38147981       7.63139832
Si       3.41705286       6.04859521       7.71333626
Si       3.71007414       3.44398079       6.86144746
Si       6.29574647       5.13407299      -2.97714670
Si       1.40760661       4.02663763      -1.00673310
Si      -2.42562920      -0.43081314      10.13988712
Si       5.69547479       3.40844912       1.84599276
Si      -2.70770213      -0.35324124       9.11263420
Si      -1.68092090      -0.36287602       9.38186688
12
Lattice="5.979144824634415 1.0965399672204426 -1.8137935630640638 -0.1371975337076261 8.017745942872937 0.6161712394881959 -3.0303548981327704 -1.822206969343428 11.610321437256527" Properties=species:S:1:pos:R:3 unique_starting_index=44 config_type=initial n_minim_iter=4 stress="0.0020814474345294733 -0.0005674874070905869 -0.000842558902272451 -0.0005674874070905869 0.0012753005298652051 -0.0013397136879480785 -0.000842558902272451 -0.0013397136879480785 0.0019325604604598764" pbc="T T T"
Si      -1.80775437       2.29950835       9.60030396
Si      -0.75380085       4.32793147       3.96645859
Si      -2.13805337       4.89382975      10.38846942
Si       2.92756579       3.38216959       7.64595706
Si       3.42409677       6.04792249       7.72848453
Si       3.71526707       3.44492290       6.87426552
Si       6.29594821       5.13837236      -2.97914381
Si       1.40881867       4.02634913      -1.00666276
Si      -2.41961901      -0.43386508      10.15538113
Si       5.69738155       3.41000926       1.85298498
Si      -2.70337549      -0.35418661       9.12693924
Si      -1.67493211      -0.36490373       9.39713576
12
Lattice="5.96615824161901 1.0990245353567045 -1.8046421782952498 -0.12998598570042394 8.017714347582382 0.6247492024884352 -3.0145161582505757 -1.8107278850459612 11.591604972342973" Properties=species:S:1:pos:R:3 unique_starting_index=44 config_type=initial n_minim_iter=5 stress="-0.005945985436084278 -0.003309372959026181 0.000924158806386797 -0.003309372959026181 0.00035853262158761374 0.0044252311373659476 0.000924158806386797 0.0044252311373659476 -0.002537579731111784" pbc="T T T"
Si      -1.79237159       2.30694708       9.58900158
Si      -0.74466298       4.33299704       3.96732062
Si      -2.12071596       4.90371202      10.38060678
Si       2.93173690       3.39405393       7.64397682
Si       3.42978499       6.05878804       7.72994690
Si       3.71681612       3.45564466       6.87245561
Si       6.28419802       5.14326164      -2.96372942
Si       1.40762556       4.02392272      -0.99916913
Si      -2.40416104      -0.42333093      10.13856414
Si       5.68856506       3.41538504       1.86277530
Si      -2.69034323      -0.34431024       9.11334567
Si      -1.66104111      -0.35649539       9.38343167
12
Lattice="5.975033910155811 1.1414807835553915 -1.7940940171944606 -0.07697822471492045 8.019362111347561 0.6098298191270554 -3.01269761442119 -1.8503818456591705 11.563053558527143" Properties=species:S:1:pos:R:3 unique_starting_index=44 config_type=initial n_minim_iter=6 stress="0.005477992649883133 5.698282403096668e-05 0.0008324535128488811 5.698282403096668e-05 0.002795765776693595 0.0011418823382508855 0.0008324535128488811 0.0011418823382508855 -0.0032672641449490608" pbc="T T T"
Si      -1.76223564       2.27265659       9.55774112
Si      -0.70999401       4.32880415       3.95441184
Si      -2.07822589       4.87069020      10.34835246
Si       2.96582793       3.40550902       7.62506167
Si       3.48360980       6.07362432       7.70561359
Si       3.75081113       3.47039522       6.85031165
Si       6.31683343       5.20321137      -2.95700274
Si       1.43122483       4.02844434      -1.00253258
Si      -2.39123839      -0.45320138      10.10626350
Si       5.71006982       3.44681576       1.87063520
Si      -2.68505142      -0.37358537       9.08847543
Si      -1.64514623      -0.38843496       9.35586948
12
Lattice="5.918816282530025 1.2523235328245954 -1.7979634875338915 0.05527639211337573 8.027640199382137 0.5575088126993013 -2.9980008990073768 -1.9785515101226239 11.575880454570173" Properties=species:S:1:pos:R:3 unique_starting_index=44 config_type=initial n_minim_iter=7 stress="-0.012738614557707235 -0.00865810462687657 -0.004031242745052797 -0.00865810462687657 0.030965862753999956 -0.007808759963831245 -0.004031242745052797 -0.007808759963831245 0.007925500671161692" pbc="T T T"
Si      -1.68962387       2.16634497       9.53213287
Si      -0.62340258       4.31448896       3.94046500
Si      -1.96963029       4.77202115      10.32390433
Si       2.98927598       3.42801604       7.60454503
Si       3.55195301       6.09787158       7.66736902
Si       3.76587942       3.48959041       6.82274508
Si       6.31820331       5.35560247      -2.98436095
Si       1.47180102       4.04109718      -1.03084281
Si      -2.35431076      -0.54507966      10.10441663
Si       5.67489962       3.52039361       1.88328314
Si      -2.65175140      -0.46714146       9.08757363
Si      -1.61504183      -0.50340858       9.34305939
12
Lattice="5.919121794493341 1.3811783530958757 -1.7753414028194385 0.22736627238845603 8.035691072716853 0.5522916796231402 -2.994613739024303 -2.048874560387579 11.528110207663586" Properties=species:S:1:pos:R:3 unique_starting_index=44 config_type=initial n_minim_iter=8 stress="0.0027423557628874547 0.008488070023342854 -0.01245684854764714 0.008488070023342854 0.10288166585905424 0.011199856429119037 -0.01245684854764714 0.011199856429119037 0.007944691878419171" pbc="T T T"
Si      -1.60116658       2.11135906       9.48324243
Si      -0.51311142       4.31958929       3.93697059
Si      -1.83299658       4.72870288      10.28339904
Si       3.07438387       3.51558771       7.58302588
Si       3.70017982       6.17705570       7.64576964
Si       3.84775233       3.56499635       6.80193856
Si       6.39352548       5.51530368      -2.95581214
Si       1.54548951       4.05566350      -1.03004099
Si      -2.31957525      -0.58493282      10.06108806
Si       5.71212457       3.63174389       1.92172345
Si      -2.62349158      -0.51627509       9.04463684
Si      -1.58456709      -0.56751659       9.28981164
12
Lattice="5.9108170595428025 1.4275084435355525 -1.7408894841680416 0.2846134156930673 8.040368806234337 0.5262979837442695 -2.942712383914006 -2.1041897295144505 11.477431431482279" Properties=species:S:1:pos:R:3 unique_starting_index=44 config_type=initial n_minim_iter=9 stress="0.0026231476357143724 0.003859489917520628 -0.005794789953449164 0.003859489917520628 0.13564463153893547 0.006847978429520581 -0.005794789953449164 0.006847978429520581 0.002928429958847504" pbc="T T T"
Si      -1.52916739       2.06469632       9.43095029
Si      -0.46007458       4.31523834       3.91338918
Si      -1.74458666       4.68642622      10.22199368
Si       3.13475153       3.53165372       7.56142605
Si       3.78256410       6.18349407       7.61791913
Si       3.90340122       3.56877867       6.78480572
Si       6.40075092       5.57908965      -2.92715357
Si       1.56555552       4.06219947      -1.03444716
Si      -2.26345903      -0.62573593      10.01491430
Si       5.72696571       3.66089348       1.94959546
Si      -2.57368204      -0.55305456       8.99853970
Si      -1.53367896      -0.61787563       9.24227680
12
Lattice="5.916398281960861 1.4339237578941755 -1.7300201356560703 0.2996036111348099 8.034630412282322 0.5406518841418438 -2.929932274689173 -2.087384116207262 11.475675781444252" Properties=species:S:1:pos:R:3 unique_starting_index=44 config_type=initial n_minim_iter=10 stress="0.00986049928697291 -0.0044696334449156805 -0.010923166912207774 -0.0044696334449156805 0.11409948089428867 0.011758883190950586 -0.010923166912207774 0.011758883190950586 0.003752061004066292" pbc="T T T"
Si      -1.50895630       2.06886882       9.43407723
Si      -0.44653530       4.32309153       3.92722684
Si      -1.72115700       4.69493049      10.22801727
Si       3.15446540       3.56080881       7.58051374
Si       3.81553705       6.20354707       7.63606653
Si       3.93021590       3.57501786       6.79946721
Si       6.40614511       5.58512991      -2.90971555
Si       1.57565463       4.05890248      -1.03011377
Si      -2.25223994      -0.61637877      10.01848751
Si       5.73208930       3.66827090       1.97599072
Si      -2.55835573      -0.53824932       9.00125679
Si      -1.51970885      -0.60707893       9.23727728
12
Lattice="5.893529471404941 1.456953817523012 -1.7081524599373776 0.3325502373851122 8.03349065338269 0.5373360053140818 -2.879911923830868 -2.1034281209634558 11.475749066132604" Properties=species:S:1:pos:R:3 unique_starting_index=44 config_type=initial n_minim_iter=11 stress="-0.0035595452763018975 0.00614737622297275 -0.004302934173058562 0.00614737622297275 0.1099116148265925 0.008883277705565384 -0.004302934173058562 0.008883277705565384 0.003580019763469171" pbc="T T T"
Si      -1.45656061       2.05729950       9.43441905
Si      -0.41258874       4.32078937       3.92879843
Si      -1.65301912       4.67985129      10.22293857
Si       3.18702729       3.57354946       7.60062660
Si       3.86097057       6.21274342       7.65080167
Si       3.96313424       3.58030952       6.82049069
Si       6.39159094       5.60773956      -2.88962378
Si       1.58363879       4.06713148      -1.03032417
Si      -2.20707927      -0.63413490      10.02056955
Si       5.72823367       3.68793563       2.00313660
Si      -2.51108391      -0.55060111       9.00364797
Si      -1.47863308      -0.61285614       9.23860162
12
Lattice="5.903506253571456 1.4286422399057486 -1.6943669413682465 0.29762757904409815 8.02477076926718 0.5381267459580261 -2.8522608003818184 -2.0867892311072294 11.477170657151307" Properties=species:S:1:pos:R:3 unique_starting_index=44 config_type=initial n_minim_iter=12 stress="0.0021845868954314166 -0.0023573873338486556 -0.001601744294491825 -0.0023573873338486556 0.04408210228219121 0.003981157470061668 -0.001601744294491825 0.003981157470061668 0.001172590740151545" pbc="T T T"
Si      -1.45315912       2.06778716       9.43952584
Si      -0.42736692       4.31856174       3.93071094
Si      -1.65435395       4.68513293      10.21841418
Si       3.19902093       3.55523352       7.61593124
Si       3.86643942       6.18587791       7.66136956
Si       3.98319335       3.55852151       6.83862255
Si       6.38397846       5.56594054      -2.87579742
Si       1.56876390       4.05999820      -1.03054251
Si      -2.18803002      -0.62206602      10.02408857
Si       5.73376454       3.66197285       2.01736034
Si      -2.49484343      -0.53652560       9.00930875
Si      -1.45988817      -0.60094199       9.24621283
12
Lattice="5.902568759208555 1.4311175003472438 -1.6830106993315066 0.3016873819838097 8.023427835904966 0.5357315176816408 -2.8327982665834592 -2.0903581340235173 11.467350200909603" Properties=species:S:1:pos:R:3 unique_starting_index=44 config_type=initial n_minim_iter=13 stress="0.001716291402266874 -0.001336783121322017 0.001951074651292494 -0.001336783121322017 0.03397175140582755 0.0031483510596200066 0.001951074651292494 0.0031483510596200066 -0.0010777579947154519" pbc="T T T"
Si      -1.43674392       2.06478865       9.43316597
Si      -0.41969590       4.31679362       3.92728215
Si      -1.63447580       4.68382479      10.20648607
Si       3.21568676       3.55345169       7.61743615
Si       3.88533961       6.18619214       7.66235684
Si       3.99923104       3.55769079       6.84175248
Si       6.38347450       5.56751004      -2.86508832
Si       1.56986256       4.06035805      -1.02919092
Si      -2.17019792      -0.62589985      10.01645296
Si       5.73869770       3.66422841       2.02604819
Si      -2.48000024      -0.54142541       9.00149043
Si      -1.44400443      -0.60571115       9.24062818
12
Lattice="5.896515956363422 1.4527355576205925 -1.6826166614225644 0.32875223841115203 8.021205568660198 0.527423241739681 -2.828236198414676 -2.1128226776991186 11.477807394882651" Properties=species:S:1:pos:R:3 unique_starting_index=44 config_type=initial n_minim_iter=14 stress="-0.0004887305553156079 -0.0012513173849217382 0.0016402199614795198 -0.0012513173849217382 0.020030252802912173 0.0026688462349309166 0.0016402199614795198 0.0026688462349309166 0.00014335973400972246" pbc="T T T"
Si      -1.42479506       2.04356612       9.43890486
Si      -0.40467685       4.31108973       3.92936090
Si      -1.61286375       4.66204158      10.20511993
Si       3.23038891       3.55720315       7.62232851
Si       3.90706567       6.18803458       7.66152915
Si       4.01180523       3.56130632       6.84489107
Si       6.39183886       5.59670472      -2.87271109
Si       1.58495017       4.06332246      -1.03452418
Si      -2.16159893      -0.64174639      10.02842771
Si       5.73509353       3.68285179       2.03047928
Si      -2.47276385      -0.56018140       9.00843597
Si      -1.43748090      -0.62715396       9.24683100
12
Lattice="5.894990565876475 1.474302834754942 -1.684457020686201 0.3547237087304879 8.019481406661486 0.5171674885302566 -2.832710070042506 -2.1372478185745494 11.479052669369228" Properties=species:S:1:pos:R:3 unique_starting_index=44 config_type=initial n_minim_iter=15 stress="-0.0011397979357710922 -0.0012285992259862078 0.0012055318870464692 -0.0012285992259862078 0.009962727160759693 0.001760692960997922 0.0012055318870464692 0.001760692960997922 -0.00010092272644239657" pbc="T T T"
Si      -1.41897967       2.01859605       9.43537358
Si      -0.39306937       4.30520928       3.92736089
Si      -1.59768794       4.64267168      10.19884740
Si       3.23966195       3.55947652       7.61509838
Si       3.92380471       6.18916033       7.64749637
Si       4.02220309       3.56203124       6.83860868
Si       6.40467144       5.62497171      -2.87959521
Si       1.60087207       4.06522083      -1.04157219
Si      -2.16062213      -0.66007109      10.02821261
Si       5.73311558       3.70107747       2.02880249
Si      -2.47119670      -0.57785899       9.00978359
Si      -1.43841927      -0.64932649       9.24493999
12
Lattice="5.892300356639077 1.4882777740533724 -1.6874919689791936 0.37178713500007277 8.01783032264398 0.5114837740596101 -2.8386345674944944 -2.151690986094142 11.479676274463413" Properties=species:S:1:pos:R:3 unique_starting_index=44 config_type=initial n_minim_iter=16 stress="-0.0018561963021559444 -0.0006499970678416322 0.0008673076210493191 -0.0006499970678416322 0.0023710538594159812 0.0011972625302294675 0.0008673076210493191 0.0011972625302294675 0.00032410125881959627" pbc="T T T"
Si      -1.41579303       2.00635900       9.43367511
Si      -0.38752740       4.30175147       3.92713372
Si      -1.59170970       4.62901016      10.19477008
Si       3.23959463       3.56287416       7.60703880
Si       3.93198137       6.19033054       7.64000176
Si       4.02555902       3.56173160       6.83105883
Si       6.41190864       5.64223243      -2.88215075
Si       1.61186232       4.06607655      -1.04582583
Si      -2.16219234      -0.67057221      10.02599479
Si       5.72800886       3.71444711       2.02549459
Si      -2.47320263      -0.58954698       9.01036106
Si      -1.44008685      -0.66305877       9.24318455
12
Lattice="5.888811102169805 1.4940769029422927 -1.68898559919844 0.37830399357247624 8.016262440342038 0.5066183004058563 -2.8419611122579336 -2.1603744342810494 11.472987233289084" Properties=species:S:1:pos:R:3 unique_starting_index=44 config_type=initial n_minim_iter=17 stress="-0.0018131496067120584 -0.00016777536743268313 0.0009350143607812482 -0.00016777536743268313 -0.006932843423843429 0.00014484791438978563 0.0009350143607812482 0.00014484791438978563 -0.00012414104687236894" pbc="T T T"
Si      -1.41663350       1.99992260       9.42533670
Si      -0.38849004       4.29939087       3.92443169
Si      -1.59011916       4.62053920      10.18826118
Si       3.23667247       3.56197542       7.59821174
Si       3.93236175       6.18774913       7.62874820
Si       4.02473989       3.55712499       6.82153263
Si       6.41155102       5.64795201      -2.88483257
Si       1.61711519       4.06574879      -1.04744301
Si      -2.16238612      -0.67738514      10.01875495
Si       5.72053091       3.72166459       2.01949168
Si      -2.47605191      -0.59744888       9.00236557
Si      -1.43897125      -0.67095203       9.23601742
12
Lattice="5.889109509955244 1.4963451999976656 -1.694872934361348 0.37931475961394423 8.015746499373655 0.5016691439916011 -2.851898375457048 -2.168224132753719 11.475972886262614" Properties=species:S:1:pos:R:3 unique_starting_index=44 config_type=initial n_minim_iter=18 stress="-0.00016029036486635019 0.000457264065649847 0.00011357653016897698 0.000457264065649847 -0.013585016153374183 -0.0011902052656086002 0.00011357653016897698 -0.0011902052656086002 0.001006303215368166" pbc="T T T"
Si      -1.42550322       1.99310035       9.42711543
Si      -0.39618508       4.29797703       3.92423824
Si      -1.59784649       4.61352176      10.18875676
Si       3.22987355       3.55675266       7.59353049
Si       3.92839902       6.18236857       7.62263647
Si       4.01836141       3.55057119       6.81334558
Si       6.41417020       5.64984743      -2.89416906
Si       1.62001822       4.06677640      -1.04997407
Si      -2.16812994      -0.68449621      10.01896212
Si       5.71374585       3.72682103       2.00955850
Si      -2.48162126      -0.60355620       9.00201341
Si      -1.44616143      -0.67727573       9.23633958
12
Lattice="5.894023806387686 1.4968155259010973 -1.6963907705154577 0.37780204793065836 8.015624426248053 0.4954300276754956 -2.8574479431068287 -2.176384679625926 11.471132757552441" Properties=species:S:1:pos:R:3 unique_starting_index=44 config_type=initial n_minim_iter=19 stress="0.0029686786984202736 0.0007820088167236443 -0.0003197046283389205 0.0007820088167236443 -0.01823036484446366 -0.002493640140201064 -0.0003197046283389205 -0.002493640140201064 0.0007216806240074311" pbc="T T T"
Si      -1.43187335       1.98501308       9.42026430
Si      -0.40596535       4.29811814       3.92144568
Si      -1.60253786       4.60537544      10.18199178
Si       3.22977417       3.55001485       7.58406821
Si       3.93166469       6.17472694       7.61294703
Si       4.01883712       3.54335181       6.80672110
Si       6.42104987       5.65187780      -2.89724049
Si       1.62171216       4.06907241      -1.05143683
Si      -2.17054229      -0.69324463      10.01235949
Si       5.71146021       3.73122793       2.00024756
Si      -2.48421872      -0.61244558       8.99581662
Si      -1.44875476      -0.68468379       9.23063316
12
Lattice="5.890677639384366 1.5028360927650637 -1.6994926329566065 0.3814757996528508 8.016414208999711 0.48216253691024785 -2.860479224025863 -2.1970507758863747 11.469014756070294" Properties=species:S:1:pos:R:3 unique_starting_index=44 config_type=initial n_minim_iter=20 stress="0.0036325889791331218 0.0016253658106308306 -0.001024592857713896 0.0016253658106308306 -0.015764569723334964 -0.003160170941496876 -0.001024592857713896 -0.003160170941496876 0.00031493703830551707" pbc="T T T"
Si      -1.43133839       1.96319419       9.41197828
Si      -0.41989083       4.30106310       3.91874622
Si      -1.60065872       4.58857315      10.17011964
Si       3.22506516       3.53608450       7.57344703
Si       3.93794781       6.16177628       7.59688164
Si       4.01657917       3.53210755       6.79599679
Si       6.42090346       5.66085342      -2.90530141
Si       1.62449309       4.07296006      -1.05681541
Si      -2.17042733      -0.71038291      10.00797231
Si       5.69615030       3.74243095       1.98624121
Si      -2.48361686      -0.63150655       8.99204564
Si      -1.44481439      -0.70268147       9.22480152
12
Lattice="5.886960744424277 1.5082594525937922 -1.7067079739314985 0.38476786180870476 8.017441793333155 0.4718310943745738 -2.87039530052121 -2.213872926425469 11.471644455889093" Properties=species:S:1:pos:R:3 unique_starting_index=44 config_type=initial n_minim_iter=21 stress="0.0032292785463414082 0.001992463357404161 -0.001932586927981851 0.001992463357404161 -0.01082688603339164 -0.0030680367457577144 -0.001932586927981851 -0.0030680367457577144 0.00020363507127921452" pbc="T T T"
Si      -1.43466225       1.94931107       9.40845069
Si      -0.43491223       4.30557596       3.91865566
Si      -1.60591280       4.57451954      10.16465998
Si       3.21595862       3.52620965       7.56563396
Si       3.93510974       6.15107036       7.58012557
Si       4.00864308       3.52303853       6.78504517
Si       6.42033307       5.67005300      -2.91802506
Si       1.62786606       4.07638819      -1.06253655
Si      -2.17552336      -0.72566480      10.00715499
Si       5.67995403       3.75232687       1.97192938
Si      -2.48791616      -0.64755776       8.99362913
Si      -1.45008496      -0.72044789       9.22467218
