24
Lattice="16.20903015583404 2.055638395107974 -9.140052932880783 -7.567552397509556 6.8204748282673835 6.485905173993804 -11.010275281240974 2.63067731899073 19.06188444479546" Properties=species:S:1:pos:R:3 unique_starting_index=90 config_type=initial n_minim_iter=1 energy=-4240.457067754928 free_energy=-4240.457067754928 pbc="T T T"
Si       6.38679398       3.48685329       5.67467642
Si      -4.07803692       1.54331893       4.69150067
Si       5.43529894       8.50298412       3.63003826
Si      -3.27203537       1.55340033       4.05006951
Si       0.03123937       6.56787359      14.37661865
Si     -15.79025910       7.07362617      21.65507942
Si      -3.27908132       2.09103028       5.05250119
Si       0.13802458       8.08302563      13.05377922
Si     -15.97449764       8.88980014      21.39774828
Si       5.68023286       5.77939187       4.41273704
Si       0.28720506       6.45933889       1.88467958
Si       5.42252922       8.04791753       2.81363220
Si       4.33695422       9.91598780       1.20162962
Si       2.43504434       5.74705087       8.69670569
Si      -4.30898305       3.92616248       3.50315191
Si     -16.83817855       8.82423885      21.93245518
Si      -4.32906824       1.97616075       5.56016792
Si       0.04171834       8.51632772      13.88435105
Si      -4.52623637       5.55347590      14.36876585
Si      -9.81505473       4.29613384      14.14082556
Si      -0.31859038      10.35865571      11.60462088
Si      11.67012208       2.72218926      -3.94628116
Si       6.69144552       5.92807026       4.04354202
Si       0.12626825       7.12482277       3.85650209
24
Lattice="16.206592288393217 2.0528545628699844 -9.143109434645254 -7.567409745547245 6.821429362769497 6.488600670029667 -11.0104123376764 2.633741309525051 19.066569468082466" Properties=species:S:1:pos:R:3 unique_starting_index=90 config_type=initial n_minim_iter=2 stress="-0.001370781458737144 0.0012457439965776584 -0.0006523330047931876 0.0012457439965776584 -0.003373643744736232 0.0019414605505750308 -0.0006523330047931876 0.0019414605505750308 -0.0008533861967523112" pbc="T T T"
Si       6.38438358       3.48682749       5.67470007
Si      -4.07842594       1.54396558       4.69267394
Si       5.43297064       8.50191661       3.63108517
Si      -3.27116833       1.55342557       4.05091372
Si       0.02927012       6.56911196      14.37994316
Si     -15.79057029       7.07762494      21.66121218
Si      -3.27897541       2.09172807       5.05427765
Si       0.13597949       8.08407510      13.05693271
Si     -15.97464590       8.89345406      21.40432145
Si       5.67784210       5.77828002       4.41351066
Si       0.28619885       6.45908240       1.88567466
Si       5.42050399       8.04724962       2.81511480
Si       4.33479662       9.91491562       1.20230727
Si       2.43304257       5.74740321       8.69837141
Si      -4.30937315       3.92675588       3.50467369
Si     -16.83781044       8.82795896      21.93893784
Si      -4.32895737       1.97706951       5.56204491
Si       0.03971741       8.51740970      13.88762178
Si      -4.52737782       5.55515726      14.37238133
Si      -9.81519377       4.29860971      14.14485367
Si      -0.32095544      10.35912028      11.60792014
Si      11.66843023       2.72024560      -3.94801956
Si       6.68901013       5.92725035       4.04385337
Si       0.12507816       7.12469964       3.85801034
24
Lattice="16.206360842866104 2.0523090865854168 -9.143863264992671 -7.567744986240155 6.82215535045658 6.488919775941844 -11.010594439938295 2.634102875144438 19.067778177407607" Properties=species:S:1:pos:R:3 unique_starting_index=90 config_type=initial n_minim_iter=3 stress="-0.0006909660828255673 -8.549152170489902e-05 6.163648027669017e-05 -8.549152170489902e-05 0.0003359003603464169 7.769915703942137e-05 6.163648027669017e-05 7.769915703942137e-05 0.00042689880757984923" pbc="T T T"
Si       6.38401478       3.48664144       5.67475884
Si      -4.07862916       1.54414686       4.69290877
Si       5.43240313       8.50203645       3.63109097
Si      -3.27105437       1.55346502       4.05107100
Si       0.02883651       6.56925547      14.38072183
Si     -15.79105857       7.07861346      21.66252257
Si      -3.27904576       2.09192418       5.05465077
Si       0.13546040       8.08436739      13.05756509
Si     -15.97516047       8.89453271      21.40564018
Si       5.67736121       5.77811085       4.41359775
Si       0.28579742       6.45947052       1.88563902
Si       5.42001147       8.04746352       2.81522496
Si       4.33414308       9.91530900       1.20207788
Si       2.43261537       5.74747386       8.69870945
Si      -4.30967522       3.92719319       3.50484722
Si     -16.83822312       8.82904750      21.94023473
Si      -4.32904918       1.97731485       5.56244099
Si       0.03920533       8.51771390      13.88827901
Si      -4.52774178       5.55546636      14.37320081
Si      -9.81546957       4.29917721      14.14573835
Si      -0.32166028      10.35955383      11.60843837
Si      11.66827961       2.71985001      -3.94846253
Si       6.68854380       5.92715105       4.04383264
Si       0.12463977       7.12508355       3.85810416
24
Lattice="16.2116036090684 2.0524902619547163 -9.143266347854055 -7.57035036550457 6.821260167231071 6.487880046062508 -11.014640850606346 2.6328809297800286 19.065345921178473" Properties=species:S:1:pos:R:3 unique_starting_index=90 config_type=initial n_minim_iter=4 stress="0.0005673743353247858 -0.0002563947007379974 0.0001587411488610287 -0.0002563947007379974 -0.00010143449680445995 0.0002874950250801096 0.0001587411488610287 0.0002874950250801096 0.00017427754252278806" pbc="T T T"
Si       6.38566715       3.48598371       5.67339119
Si      -4.08011946       1.54375035       4.69223135
Si       5.43386447       8.50096618       3.63002435
Si      -3.27201412       1.55298529       4.05047469
Si       0.02835033       6.56793329      14.37836887
Si     -15.79683798       7.07708834      21.65962258
Si      -3.28021781       2.09143517       5.05398019
Si       0.13498532       8.08286321      13.05530737
Si     -15.98089402       8.89279192      21.40275417
Si       5.67880003       5.77711431       4.41242096
Si       0.28570049       6.45881824       1.88498000
Si       5.42159390       8.04651748       2.81434558
Si       4.33525588       9.91431669       1.20111528
Si       2.43299090       5.74645781       8.69700707
Si      -4.31113615       3.92667315       3.50430486
Si     -16.84419192       8.82724206      21.93724136
Si      -4.33052960       1.97684217       5.56172513
Si       0.03868956       8.51619787      13.88587965
Si      -4.52965303       5.55419642      14.37106937
Si      -9.81904882       4.29810956      14.14384853
Si      -0.32228169      10.35796331      11.60626955
Si      11.67202474       2.71975303      -3.94857022
Si       6.69032916       5.92625918       4.04262594
Si       0.12444221       7.12423069       3.85716927
24
Lattice="16.213583905831772 2.0563165537202344 -9.143414652794425 -7.570605370589654 6.818714631236457 6.485744902846516 -11.017012561387784 2.62737406418401 19.06149491385766" Properties=species:S:1:pos:R:3 unique_starting_index=90 config_type=initial n_minim_iter=5 stress="0.00034702595036899454 0.0004919097897662527 -0.00015946234582416943 0.0004919097897662527 0.00019154890784815927 -0.000178533358521573 -0.00015946234582416943 -0.000178533358521573 -9.29597975796327e-05" pbc="T T T"
Si       6.38563033       3.48539602       5.67036779
Si      -4.08062535       1.54216839       4.69115025
Si       5.43463021       8.50056449       3.62690307
Si      -3.27226123       1.55152492       4.04952488
Si       0.02754706       6.56464171      14.37360926
Si     -15.79939410       7.07058441      21.65473183
Si      -3.28072346       2.08979478       5.05271344
Si       0.13442527       8.07972964      13.05041619
Si     -15.98302487       8.88613583      21.39767341
Si       5.67910292       5.77640606       4.40939009
Si       0.28617403       6.45825550       1.88308928
Si       5.42255703       8.04626160       2.81144348
Si       4.33639662       9.91417999       1.19807379
Si       2.43274456       5.74470254       8.69328028
Si      -4.31113237       3.92522511       3.50316892
Si     -16.84640021       8.82026497      21.93205788
Si      -4.33100168       1.97501103       5.56048085
Si       0.03810564       8.51303712      13.88077843
Si      -4.53081628       5.55037503      14.36702055
Si      -9.82066951       4.29373594      14.14064983
Si      -0.32242794      10.35505041      11.60135671
Si      11.67346995       2.72188239      -3.94969388
Si       6.69071622       5.92587040       4.03952661
Si       0.12480700       7.12315410       3.85473102
24
Lattice="16.21146507360358 2.055037133198714 -9.142201332833677 -7.570971982916502 6.817583205199457 6.483179728454847 -11.016912535706906 2.6252419301892047 19.056478211437224" Properties=species:S:1:pos:R:3 unique_starting_index=90 config_type=initial n_minim_iter=6 stress="-0.00030916589382852874 -0.0002230140610145584 0.00018518555401370471 -0.0002230140610145584 -0.00024753589199698637 -0.0002921951709132073 0.00018518555401370471 -0.0002921951709132073 -0.0005109265404300598" pbc="T T T"
Si       6.38375765       3.48273439       5.66761240
Si      -4.08036550       1.54166037       4.68966679
Si       5.43221651       8.49775142       3.62456970
Si      -3.27208068       1.55083593       4.04832505
Si       0.02589057       6.56112626      14.36866552
Si     -15.79978050       7.06841630      21.64845142
Si      -3.28095911       2.08888196       5.05117000
Si       0.13238034       8.07584406      13.04539629
Si     -15.98335933       8.88355472      21.39137634
Si       5.67698357       5.77340978       4.40669286
Si       0.28483898       6.45683807       1.88136868
Si       5.42053654       8.04346060       2.80903608
Si       4.33402837       9.91146370       1.19548808
Si       2.43099711       5.74182098       8.68954344
Si      -4.31108791       3.92451292       3.50183756
Si     -16.84666364       8.81762601      21.92550436
Si      -4.33077178       1.97430524       5.55887694
Si       0.03602737       8.50925684      13.87567697
Si      -4.53175176       5.54758031      14.36250350
Si      -9.82086161       4.29196193      14.13655358
Si      -0.32466777      10.35121901      11.59647606
Si      11.67186953       2.72029575      -3.94998708
Si       6.68837666       5.92285137       4.03691124
Si       0.12338854       7.12121814       3.85246776
24
Lattice="16.214844076531808 2.054366810923769 -9.146117158811391 -7.57331991342395 6.817679747666986 6.485114197983298 -11.022089982943141 2.625571891022979 19.05980062743568" Properties=species:S:1:pos:R:3 unique_starting_index=90 config_type=initial n_minim_iter=7 stress="4.1014366678347554e-05 -5.7210879789853975e-05 -9.182300437683996e-05 -5.7210879789853975e-05 0.00013252602915579225 0.0001819278177440525 -9.182300437683996e-05 0.0001819278177440525 6.178277610447798e-05" pbc="T T T"
Si       6.38277194       3.48226407       5.66622353
Si      -4.08143898       1.54166956       4.69054043
Si       5.43144259       8.49762666       3.62437355
Si      -3.27311414       1.55064533       4.04919560
Si       0.02281585       6.56106521      14.36967063
Si     -15.80648407       7.06930770      21.65292807
Si      -3.28250690       2.08875627       5.05220188
Si       0.12923863       8.07551618      13.04584054
Si     -15.98967789       8.88421965      21.39625787
Si       5.67609394       5.77262054       4.40541516
Si       0.28395074       6.45675437       1.88132589
Si       5.42036308       8.04296951       2.80800831
Si       4.33362899       9.91073486       1.19417301
Si       2.42913761       5.74163324       8.68909557
Si      -4.31203290       3.92453364       3.50297940
Si     -16.85336310       8.81824496      21.93036026
Si      -4.33207963       1.97439115       5.56015011
Si       0.03285241       8.50937945      13.87667263
Si      -4.53529678       5.54761936      14.36438432
Si      -9.82512509       4.29210177      14.13935044
Si      -0.32754322      10.35084036      11.59724237
Si      11.67408474       2.71979441      -3.95303486
Si       6.68756258       5.92206181       4.03555103
Si       0.12222315       7.12101934       3.85275641
24
Lattice="16.21643791320907 2.056856937090928 -9.14682269178583 -7.573819767966674 6.814381950962748 6.483448166583088 -11.023463979506912 2.6199105653319275 19.058765388352086" Properties=species:S:1:pos:R:3 unique_starting_index=90 config_type=initial n_minim_iter=8 stress="0.00013373298752989243 0.00016980485488328007 0.0002645302392417021 0.00016980485488328007 -0.0005328841680419272 -0.00028636624535152477 0.0002645302392417021 -0.00028636624535152477 0.0007715235251113549" pbc="T T T"
Si       6.38285557       3.48023857       5.66469705
Si      -4.08147442       1.53994806       4.68983440
Si       5.43184308       8.49536679       3.62253482
Si      -3.27342356       1.54909318       4.04867128
Si       0.02278093       6.55648305      14.36768755
Si     -15.80822113       7.06210880      21.65099329
Si      -3.28273887       2.08693489       5.05179112
Si       0.12907867       8.07070587      13.04334662
Si     -15.99111339       8.87664318      21.39431180
Si       5.67629422       5.77038577       4.40322829
Si       0.28387176       6.45509435       1.87956124
Si       5.42109078       8.04106200       2.80575047
Si       4.33415527       9.90822099       1.19103306
Si       2.42922914       5.73850886       8.68681170
Si      -4.31226728       3.92281578       3.50192829
Si     -16.85519460       8.81051216      21.92815096
Si      -4.33216127       1.97253468       5.55962500
Si       0.03310429       8.50427001      13.87417011
Si      -4.53574532       5.54282002      14.36279569
Si      -9.82631966       4.28718509      14.13808416
Si      -0.32751732      10.34576679      11.59433325
Si      11.67554322       2.72065976      -3.95435257
Si       6.68777713       5.91976783       4.03359735
Si       0.12233804       7.11865236       3.85100199
24
Lattice="16.219317507245787 2.0578222173207195 -9.145592466014428 -7.576117593679206 6.813823747371383 6.480038524463974 -11.028743660909486 2.6169579487107244 19.049363619341516" Properties=species:S:1:pos:R:3 unique_starting_index=90 config_type=initial n_minim_iter=9 stress="8.9231732863906e-05 6.0971277192390246e-05 0.00012482325980621672 6.0971277192390246e-05 0.00027325815097966266 0.00014577912491748997 0.00012482325980621672 0.00014577912491748997 -0.00028792417682960484" pbc="T T T"
Si       6.38107327       3.47860616       5.65875278
Si      -4.08230981       1.53920629       4.68717111
Si       5.43031669       8.49494672       3.61820483
Si      -3.27467819       1.54842468       4.04649691
Si       0.01931486       6.55435404      14.35805978
Si     -15.81465938       7.05930170      21.64058045
Si      -3.28398971       2.08631235       5.04947325
Si       0.12545376       8.06847625      13.03404935
Si     -15.99735010       8.87397189      21.38445070
Si       5.67467556       5.76918416       4.39739794
Si       0.28255127       6.45517364       1.87693616
Si       5.42051162       8.04077946       2.80133916
Si       4.33328970       9.90749574       1.18649283
Si       2.42691545       5.73708288       8.67907490
Si      -4.31353365       3.92271657       3.49991298
Si     -16.86215661       8.80779471      21.91765644
Si      -4.33323823       1.97201235       5.55693608
Si       0.03002037       8.50223174      13.86424139
Si      -4.53944190       5.54061605      14.35446405
Si      -9.83071678       4.28490478      14.13108642
Si      -0.33083626      10.34380730      11.58558572
Si      11.67742351       2.72093923      -3.95598623
Si       6.68617033       5.91823228       4.02824835
Si       0.12095832       7.11826148       3.84754459
24
Lattice="16.222512942180472 2.058448730892863 -9.151741812847229 -7.579921738666626 6.809652972235267 6.478896022915066 -11.037657675851628 2.609376456950079 19.048343959973906" Properties=species:S:1:pos:R:3 unique_starting_index=90 config_type=initial n_minim_iter=10 stress="-4.455982553535148e-05 -9.031041493669977e-05 -3.474563374245582e-05 -9.031041493669977e-05 -0.00014205690595964871 -5.5273095025904216e-05 -3.474563374245582e-05 -5.5273095025904216e-05 -5.6506313078290144e-05" pbc="T T T"
Si       6.37710958       3.47329028       5.65244447
Si      -4.08407476       1.53717465       4.68654474
Si       5.42641321       8.48923626       3.61169943
Si      -3.27677657       1.54661837       4.04578277
Si       0.01194507       6.54573241      14.35190348
Si     -15.82526681       7.04977273      21.63951988
Si      -3.28606267       2.08420956       5.04930801
Si       0.11781422       8.05966239      13.02695956
Si     -16.00812405       8.86409030      21.38363130
Si       5.67067906       5.76391516       4.39019744
Si       0.27988340       6.45212947       1.87318138
Si       5.41816815       8.03567560       2.79481817
Si       4.33057031       9.90188422       1.17865085
Si       2.42173036       5.73088431       8.67199031
Si      -4.31539222       3.92018159       3.49931002
Si     -16.87361295       8.79751390      21.91638304
Si      -4.33524332       1.96985555       5.55666437
Si       0.02294325       8.49356190      13.85701762
Si      -4.54651740       5.53307599      14.35080366
Si      -9.83799681       4.27834503      14.13021484
Si      -0.33808639      10.33490747      11.57834351
Si      11.67852502       2.72016968      -3.96265393
Si       6.68220259       5.91244000       4.02116244
Si       0.11793573       7.11400852       3.84373595
24
Lattice="16.227344802073766 2.0610425921098434 -9.158289374195615 -7.583604541215015 6.806144375201934 6.478287031416668 -11.047242252979416 2.6016397208659443 19.048335723922065" Properties=species:S:1:pos:R:3 unique_starting_index=90 config_type=initial n_minim_iter=11 stress="-1.1784100451213944e-05 3.068120520262236e-05 -9.862323867931714e-05 3.068120520262236e-05 7.642746574151426e-05 -1.9324996027950664e-06 -9.862323867931714e-05 -1.9324996027950664e-06 0.000228454301292754" pbc="T T T"
Si       6.37424876       3.46948168       5.64635025
Si      -4.08601155       1.53501582       4.68628885
Si       5.42353552       8.48609377       3.60526741
Si      -3.27888586       1.54480493       4.04515383
Si       0.00541021       6.53933335      14.34638397
Si     -15.83636621       7.04033820      21.63979193
Si      -3.28783429       2.08250925       5.04971285
Si       0.11076345       8.05220345      13.02085343
Si     -16.01959901       8.85497684      21.38441198
Si       5.66765024       5.76036717       4.38342723
Si       0.27778067       6.45047038       1.86959698
Si       5.41706659       8.03318079       2.78844545
Si       4.32930747       9.89865920       1.17104402
Si       2.41741454       5.72637700       8.66515821
Si      -4.31675726       3.91782707       3.49918849
Si     -16.88553220       8.78762064      21.91640958
Si      -4.33719122       1.96781772       5.55670818
Si       0.01687375       8.48692777      13.85107452
Si      -4.55324623       5.52658852      14.34813139
Si      -9.84569249       4.27197180      14.13032885
Si      -0.34448435      10.32851131      11.57204427
Si      11.68119848       2.72096531      -3.96950027
Si       6.67944358       5.90860144       4.01443699
Si       0.11580876       7.11136065       3.84049118
24
Lattice="16.230609817919824 2.062402702422895 -9.157763744983336 -7.586514778932303 6.802645650505325 6.473654471305841 -11.053220292253899 2.594657583697941 19.03860933172701" Properties=species:S:1:pos:R:3 unique_starting_index=90 config_type=initial n_minim_iter=12 stress="5.5454750507417465e-05 1.159914513304865e-05 0.00028972314016529347 1.159914513304865e-05 -1.3298751162673587e-05 3.590342697453913e-05 0.00028972314016529347 3.590342697453913e-05 -0.00012125291202385463" pbc="T T T"
Si       6.37283812       3.46515169       5.63930629
Si      -4.08703504       1.53295244       4.68368657
Si       5.42126494       8.48186108       3.59875479
Si      -3.28011894       1.54279335       4.04254114
Si       0.00151839       6.53233993      14.33552095
Si     -15.84365899       7.03140692      21.62840242
Si      -3.28859354       2.08073078       5.04755795
Si       0.10564741       8.04497074      13.00943659
Si     -16.02775687       8.84641207      21.37367158
Si       5.66550087       5.75601854       4.37659277
Si       0.27567589       6.44830778       1.86539931
Si       5.41613179       8.02978406       2.78178039
Si       4.32799537       9.89453318       1.16442292
Si       2.41474976       5.72143723       8.65546446
Si      -4.31780319       3.91591368       3.49660800
Si     -16.89360236       8.77832041      21.90432379
Si      -4.33808218       1.96589604       5.55363058
Si       0.01317272       8.47999388      13.83980866
Si      -4.55729614       5.52020574      14.33903169
Si      -9.85091756       4.26626977      14.12291840
Si      -0.34908966      10.32137757      11.56156524
Si      11.68304687       2.72091446      -3.97238056
Si       6.67751091       5.90416153       4.00786035
Si       0.11423864       7.10829559       3.83597655
24
Lattice="16.237890287990613 2.064557338732756 -9.169614405011076 -7.5931039414672385 6.798814480265819 6.473937020910237 -11.070374084377493 2.585259297748792 19.038939956460638" Properties=species:S:1:pos:R:3 unique_starting_index=90 config_type=initial n_minim_iter=13 stress="-7.355910975185624e-05 -8.201886973321153e-05 -0.0002755203291947043 -8.201886973321153e-05 0.00011321376826701094 -4.8720378715928634e-05 -0.0002755203291947043 -4.8720378715928634e-05 -1.4239550894603554e-05" pbc="T T T"
Si       6.36680099       3.45968284       5.62831386
Si      -4.09042726       1.53097052       4.68412552
Si       5.41561040       8.47695232       3.58829781
Si      -3.28355437       1.54017316       4.04263178
Si      -0.01185344       6.52364066      14.32603625
Si     -15.86351029       7.01989883      21.62989763
Si      -3.29221108       2.07830672       5.04807499
Si       0.09167264       8.03585526      12.99935886
Si     -16.04854944       8.83581277      21.37577810
Si       5.65956717       5.75086519       4.36619104
Si       0.27174787       6.44619496       1.86011282
Si       5.41244248       8.02550077       2.77029056
Si       4.32496738       9.89076800       1.15369393
Si       2.40599728       5.71528621       8.64431619
Si      -4.32107429       3.91383607       3.49661351
Si     -16.91454394       8.76683709      21.90566113
Si      -4.34190411       1.96349386       5.55414337
Si       0.00044275       8.47072824      13.82976806
Si      -4.57019955       5.51206441      14.33468089
Si      -9.86453665       4.25924477      14.12372576
Si      -0.36157153      10.31283865      11.55169013
Si      11.68593134       2.72103514      -3.98414064
Si       6.67179908       5.89928518       3.99680064
Si       0.11002335       7.10513427       3.83117124
24
Lattice="16.244511652247308 2.0690038325943356 -9.175810960437255 -7.597749588389599 6.792196660102784 6.470771318907124 -11.082362007600064 2.572373159814029 19.034401900381056" Properties=species:S:1:pos:R:3 unique_starting_index=90 config_type=initial n_minim_iter=14 stress="-9.20378216645267e-05 0.00012994858144346828 0.00017545016086999385 0.00012994858144346828 0.000128396202521158 1.2803876055521054e-05 0.00017545016086999385 1.2803876055521054e-05 8.577037599708435e-05" pbc="T T T"
Si       6.36352436       3.45360782       5.61825865
Si      -4.09203648       1.52811884       4.68273658
Si       5.41268548       8.47046762       3.57858459
Si      -3.28588687       1.53636359       4.04151301
Si      -0.01955093       6.51206552      14.31518701
Si     -15.87766404       7.00315526      21.62434781
Si      -3.29399224       2.07451238       5.04719632
Si       0.08285251       8.02366286      12.98831899
Si     -16.06340846       8.81990853      21.37125920
Si       5.65629234       5.74492741       4.35685019
Si       0.26874769       6.44274692       1.85396157
Si       5.41111657       8.01983928       2.75940875
Si       4.32389850       9.88572254       1.14331114
Si       2.40114962       5.70758526       8.63222021
Si      -4.32350159       3.90959310       3.49495914
Si     -16.92956479       8.74974885      21.89985213
Si      -4.34369061       1.95977170       5.55307430
Si      -0.00629753       8.45950540      13.81795299
Si      -4.57804533       5.50113536      14.32787008
Si      -9.87434556       4.24910012      14.12047178
Si      -0.36907435      10.30113239      11.53996461
Si      11.68956140       2.72206132      -3.99251352
Si       6.66860189       5.89373517       3.98742701
Si       0.10822048       7.10050790       3.82594911
24
Lattice="16.255716755500718 2.0698317033835183 -9.185754131867036 -7.60693935908555 6.786452685687266 6.468897631339149 -11.101809519476584 2.5610647893245795 19.03136666284437" Properties=species:S:1:pos:R:3 unique_starting_index=90 config_type=initial n_minim_iter=15 stress="0.00022235890791400244 -0.00018856679765220181 -0.0001824411820245134 -0.00018856679765220181 -0.00013772513352055602 -0.000157433677033262 -0.0001824411820245134 -0.000157433677033262 6.394541220683255e-05" pbc="T T T"
Si       6.35885384       3.44552775       5.60605178
Si      -4.09584703       1.52551862       4.68245922
Si       5.40757581       8.46211843       3.56587155
Si      -3.29017477       1.53305522       4.04102628
Si      -0.03267853       6.49931321      14.30313568
Si     -15.90213171       6.98874154      21.62099720
Si      -3.29821091       2.07100342       5.04659586
Si       0.06882098       8.01067152      12.97548227
Si     -16.08836036       8.80588692      21.36895156
Si       5.65152242       5.73733857       4.34537621
Si       0.26374277       6.43850779       1.84733940
Si       5.40792679       8.01188086       2.74711958
Si       4.32093739       9.87872923       1.13154242
Si       2.39306218       5.69843208       8.61864359
Si      -4.32844441       3.90579845       3.49399479
Si     -16.95549701       8.73505435      21.89665774
Si      -4.34824058       1.95670646       5.55285734
Si      -0.01889802       8.44650157      13.80515736
Si      -4.59175447       5.49018796      14.32104494
Si      -9.89036890       4.24020572      14.11888926
Si      -0.38174019      10.28797984      11.52688459
Si      11.69578303       2.72006595      -4.00369067
Si       6.66405780       5.88584421       3.97603505
Si       0.10388601       7.09509667       3.82017115
24
Lattice="16.263001716977953 2.078198735852231 -9.19412605563437 -7.612084145999116 6.778306747186565 6.463670592339286 -11.118903447712654 2.5427410995360513 19.020758434744327" Properties=species:S:1:pos:R:3 unique_starting_index=90 config_type=initial n_minim_iter=16 stress="6.636954328848772e-06 0.00012721715171336236 0.0002584895286667907 0.00012721715171336236 0.00019641804081658879 -2.8297751491074756e-05 0.0002584895286667907 -2.8297751491074756e-05 0.000208288806805438" pbc="T T T"
Si       6.35222616       3.43813650       5.58878613
Si      -4.09755798       1.52086333       4.68060232
Si       5.40309263       8.45558555       3.54911025
Si      -3.29323622       1.52784720       4.03872632
Si      -0.04487821       6.48529876      14.28338523
Si     -15.92263239       6.96635153      21.60832462
Si      -3.30009996       2.06627147       5.04433602
Si       0.05513472       7.99586961      12.95501915
Si     -16.10783033       8.78435760      21.35902423
Si       5.64538886       5.73195348       4.32953447
Si       0.25884400       6.43545914       1.83768182
Si       5.40484495       8.00584715       2.73103294
Si       4.31910640       9.87462262       1.11622907
Si       2.38497160       5.68963697       8.59725792
Si      -4.33072942       3.90086822       3.49090530
Si     -16.97626938       8.71209179      21.88453046
Si      -4.35013995       1.95223724       5.55086672
Si      -0.02967690       8.43248583      13.78552660
Si      -4.60308663       5.47622474      14.30818273
Si      -9.90357096       4.22631651      14.11243763
Si      -0.39219222      10.27415249      11.50636795
Si      11.69929791       2.72359882      -4.01736058
Si       6.65745603       5.87989800       3.96154518
Si       0.10222853       7.09112468       3.81231060
24
Lattice="16.278534957686034 2.081700854363067 -9.2115745027033 -7.62590312008017 6.769590878323425 6.459832828203198 -11.151990250632364 2.522860920480405 19.011703908253182" Properties=species:S:1:pos:R:3 unique_starting_index=90 config_type=initial n_minim_iter=17 stress="0.00015631895581706177 -0.00016707686401774464 -9.919209520343682e-05 -0.00016707686401774464 5.95582877991991e-05 -0.000193869895098986 -9.919209520343682e-05 -0.000193869895098986 0.0003622487154409954" pbc="T T T"
Si       6.34123060       3.42600344       5.56450274
Si      -4.10442624       1.51629146       4.67990489
Si       5.39434582       8.44369601       3.52585011
Si      -3.30031066       1.52241806       4.03663255
Si      -0.06922593       6.46514352      14.25795664
Si     -15.96398036       6.94224696      21.59826562
Si      -3.30651835       2.06120210       5.04251202
Si       0.02956268       7.97494699      12.92894735
Si     -16.14862623       8.76058547      21.35193513
Si       5.63473063       5.72086232       4.30716537
Si       0.24928545       6.42993146       1.82525671
Si       5.39653042       7.99518672       2.70730461
Si       4.31300685       9.86510227       1.09485878
Si       2.36896702       5.67579460       8.56935182
Si      -4.33758824       3.89535573       3.48856064
Si     -17.01929314       8.68691810      21.87518259
Si      -4.35734441       1.94762406       5.55015788