8
Lattice="4.936308696497249 3.5171217232952406e-16 1.1887498143006116e-16 9.074942325212365e-17 5.384861907314599 0.3823252375643017 -1.8100822484393603e-16 0.9194679104679175 8.154624414298388" Properties=species:S:1:pos:R:3 unique_starting_index=34 config_type=initial n_minim_iter=12 energy=-1303.9111655550448 free_energy=-1303.9111655550448 pbc="T T T"
Si       1.32447173       2.71436224       5.17310445
Si       1.32447173       3.58996758       3.36384520
Si       0.09563975       5.40988360       8.09732976
Si       0.09563975       0.89444622       0.43961989
Si       3.61183697       1.35727058       7.24999479
Si       3.61183697       4.94705924       1.28695486
Si       4.84066895       4.04661113       4.70809472
Si       4.84066895       2.25771869       3.82885494
