22
Lattice="4.653635121759322 0.5418519929776634 2.549009285368972 2.7152781132369674 6.664248525943165 2.1827419877808 8.648832315913738 0.7815597125310314 32.962465090927" Properties=species:S:1:pos:R:3 unique_starting_index=40 config_type=initial n_minim_iter=1 energy=-4076.478337357064 free_energy=-4076.478337357064 pbc="T T T"
Si      12.84124152       4.41844756      33.01051662
Si       4.28274794       3.48625654      10.51282848
Si       8.28309214       1.20031637      17.69034002
Si       8.52985591       3.11394319      29.99929864
Si      10.53758916       3.92284576      31.74176628
Si       8.93107835       6.72395570      18.30952451
Si       4.64629981       2.39798210      10.08497572
Si       8.48625230       6.48591104      19.17170664
Si       3.72126324       2.60267027       1.12863661
Si      12.41766472       4.30206946      33.80892412
Si       8.74930001       1.89256866      24.79245704
Si       7.36559771       4.79618776      24.12883313
Si       1.48985221       2.88327530      -0.43751718
Si       5.56126896       0.78383839      17.16771176
Si      10.51323668       3.04694160      31.97295961
Si      11.12647673       6.88919060      19.84609759
Si       6.89889172       3.92797377      11.22219323
Si       8.71895790       7.67136517      18.49487787
Si       4.88173868       3.40368435       9.43618801
Si       7.94560047       0.63830399      18.42569722
Si      12.81377659       3.28659125      33.30127213
Si       6.95510423       2.85728513      11.34857138
22
Lattice="4.653613902120492 0.5418008270803323 2.5489684931480716 2.7151038706613044 6.664140150675065 2.1828918288806243 8.648204736907228 0.7821876569655996 32.96286216453103" Properties=species:S:1:pos:R:3 unique_starting_index=40 config_type=initial n_minim_iter=2 stress="-0.000621440146694888 -4.494650110293692e-05 -0.00039928707941821535 -4.494650110293692e-05 -3.5359687083538005e-05 -3.132315842423397e-05 -0.00039928707941821535 -3.132315842423397e-05 -0.00016270358594606922" pbc="T T T"
Si      12.84055635       4.41896537      33.01097969
Si       4.28250293       3.48631327      10.51300137
Si       8.28277044       1.20053580      17.69054776
Si       8.52927194       3.11445787      29.99961747
Si      10.53694931       3.92332899      31.74222605
Si       8.93063583       6.72412186      18.30979086
Si       4.64606443       2.39811886      10.08512740
Si       8.48577374       6.48611575      19.17203819
Si       3.72124982       2.60257711       1.12858975
Si      12.41701663       4.30258870      33.80931899
Si       8.74883063       1.89296992      24.79273177
Si       7.36505160       4.79651234      24.12919740
Si       1.48978130       2.88316521      -0.43746636
Si       5.56093138       0.78412654      17.16792369
Si      10.51260575       3.04750107      31.97330086
Si      11.12600765       6.88936897      19.84634010
Si       6.89863593       3.92805751      11.22234296
Si       8.71848044       7.67153152      18.49518770
Si       4.88150773       3.40373042       9.43633333
Si       7.94527303       0.63861943      18.42583418
Si      12.81301601       3.28705902      33.30178128
Si       6.95486008       2.85737883      11.34868936
22
Lattice="4.65365344820862 0.5418004832614212 2.5489895335682378 2.7151215629274907 6.664137059453558 2.182919429711688 8.648354753222925 0.7822464166186412 32.962981953288235" Properties=species:S:1:pos:R:3 unique_starting_index=40 config_type=initial n_minim_iter=3 stress="7.636988951403151e-05 3.285301036812569e-05 -3.047380794383648e-05 3.285301036812569e-05 -7.204104741149781e-06 1.5093709517184588e-05 -3.047380794383648e-05 1.5093709517184588e-05 6.251060085676896e-05" pbc="T T T"
Si      12.84073175       4.41901967      33.01112277
Si       4.28255927       3.48632319      10.51305016
Si       8.28287586       1.20056137      17.69062737
Si       8.52941273       3.11450853      29.99972735
Si      10.53710691       3.92337966      31.74235724
Si       8.93074227       6.72414619      18.30987961
Si       4.64612109       2.39813493      10.08517545
Si       8.48587821       6.48614278      19.17213118
Si       3.72127873       2.60257378       1.12860497
Si      12.41719501       4.30264345      33.80945681
Si       8.74895892       1.89301073      24.79282990
Si       7.36516409       4.79654733      24.12929572
Si       1.48978570       2.88315870      -0.43745605
Si       5.56101582       0.78415510      17.16799106
Si      10.51276451       3.04755653      31.97342319
Si      11.12613301       6.88939586      19.84643889
Si       6.89871147       3.92807194      11.22240246
Si       8.71858443       7.67155619      18.49527944
Si       4.88156419       3.40373991       9.43638088
Si       7.94537880       0.63865149      18.42590816
Si      12.81318632       3.28710971      33.30192718
Si       6.95493668       2.85739343      11.34874669
22
Lattice="4.653631326228242 0.541677205016273 2.549065126983966 2.7149668201390895 6.664078059114122 2.182933342040902 8.649233473429602 0.7819726300815327 32.96230058083224" Properties=species:S:1:pos:R:3 unique_starting_index=40 config_type=initial n_minim_iter=4 stress="-0.00011712658869190988 -6.367864024897994e-05 0.00016846793268646322 -6.367864024897994e-05 -4.9509165966658e-05 3.6039404259986053e-05 0.00016846793268646322 3.6039404259986053e-05 -0.00013834739228185146" pbc="T T T"
Si      12.84145561       4.41864305      33.01058235
Si       4.28274557       3.48613697      10.51287302
Si       8.28324867       1.20033089      17.69040994
Si       8.53012720       3.11424220      29.99912804
Si      10.53781771       3.92308243      31.74179358
Si       8.93098552       6.72391402      18.30960583
Si       4.64627800       2.39802493      10.08505090
Si       8.48615698       6.48592410      19.17183755
Si       3.72116984       2.60248832       1.12869137
Si      12.41796045       4.30229443      33.80885446
Si       8.74955317       1.89275163      24.79238077
Si       7.36567942       4.79627110      24.12880946
Si       1.48967313       2.88308797      -0.43737015
Si       5.56144363       0.78398464      17.16767900
Si      10.51351420       3.04725602      31.97278711
Si      11.12638078       6.88911946      19.84618178
Si       6.89884453       3.92790618      11.22229772
Si       8.71882193       7.67132988      18.49501077
Si       4.88168567       3.40357557       9.43625972
Si       7.94580723       0.63843767      18.42561488
Si      12.81390476       3.28673342      33.30136460
Si       6.95508726       2.85720956      11.34863576
22
Lattice="4.653700771980423 0.5413495063013186 2.54898856270572 2.714651206832559 6.664220335482792 2.182630963865206 8.64900326286301 0.7801966051254775 32.96224346838509" Properties=species:S:1:pos:R:3 unique_starting_index=40 config_type=initial n_minim_iter=5 stress="1.4297035835045193e-06 -5.412506379892202e-05 -1.1171498997507335e-05 -5.412506379892202e-05 0.0002830509746898125 2.7931668488820994e-05 -1.1171498997507335e-05 2.7931668488820994e-05 3.808125774066209e-05" pbc="T T T"
Si      12.84129360       4.41682271      33.01033581
Si       4.28263915       3.48531879      10.51268517
Si       8.28316467       1.19930459      17.69044672
Si       8.52975562       3.11270891      29.99900869
Si      10.53744831       3.92155089      31.74171713
Si       8.93062805       6.72314161      18.30915514
Si       4.64605198       2.39759561      10.08503699
Si       8.48571678       6.48513249      19.17150522
Si       3.72103736       2.60243491       1.12858745
Si      12.41772931       4.30055297      33.80858376
Si       8.74943504       1.89137689      24.79220932
Si       7.36531933       4.79483422      24.12850008
Si       1.48957330       2.88296437      -0.43733941
Si       5.56133025       0.78301852      17.16767892
Si      10.51321020       3.04561537      31.97240064
Si      11.12606530       6.88823044      19.84564717
Si       6.89871345       3.92740818      11.22210605
Si       8.71846796       7.67059695      18.49463717
Si       4.88152066       3.40295541       9.43607981
Si       7.94575135       0.63736623      18.42549164
Si      12.81354984       3.28485629      33.30108660
Si       6.95493675       2.85657255      11.34844832
22
Lattice="4.653746248750362 0.5412461249775601 2.548947520094998 2.7146616352553488 6.663733303969377 2.182458468116791 8.649067424113266 0.7793895391177311 32.9618897560341" Properties=species:S:1:pos:R:3 unique_starting_index=40 config_type=initial n_minim_iter=6 stress="3.583126961536623e-05 4.48570784939186e-05 -1.8205872617159354e-05 4.48570784939186e-05 -0.00019753384034692741 -1.6185196337667473e-05 -1.8205872617159354e-05 -1.6185196337667473e-05 -3.0019467115412084e-05" pbc="T T T"
Si      12.84144036       4.41576009      33.00988377
Si       4.28270195       3.48472654      10.51250151
Si       8.28323277       1.19886002      17.69027592
Si       8.52979533       3.11180975      29.99863962
Si      10.53751180       3.92060935      31.74137637
Si       8.93067756       6.72231363      18.30878523
Si       4.64604963       2.39722538      10.08491956
Si       8.48574610       6.48429797      19.17114017
Si       3.72104051       2.60226621       1.12852726
Si      12.41785433       4.29949990      33.80815163
Si       8.74952806       1.89068282      24.79189469
Si       7.36537115       4.79383906      24.12811372
Si       1.48957897       2.88269415      -0.43736692
Si       5.56138402       0.78257993      17.16750230
Si      10.51329329       3.04471470      31.97193321
Si      11.12614647       6.88736580      19.84522930
Si       6.89878266       3.92691887      11.22191521
Si       8.71854983       7.66968642      18.49428950
Si       4.88156406       3.40245305       9.43590184
Si       7.94581759       0.63690409      18.42528334
Si      12.81362012       3.28386545      33.30066504
Si       6.95497690       2.85614201      11.34826052
22
Lattice="4.6537367743250435 0.540868202261062 2.5490351253589028 2.7142925337476878 6.663721918965565 2.1822116097805226 8.649647056502909 0.7773328549352394 32.962253581441885" Properties=species:S:1:pos:R:3 unique_starting_index=40 config_type=initial n_minim_iter=7 stress="-0.00010934841685888184 5.326457175721939e-06 5.932494910271583e-05 5.326457175721939e-06 2.5373636896225608e-05 -5.124076056787552e-05 5.932494910271583e-05 -5.124076056787552e-05 0.00017263416693274978" pbc="T T T"
Si      12.84186606       4.41358761      33.01008394
Si       4.28278129       3.48376988      10.51254568
Si       8.28347987       1.19781249      17.69057778
Si       8.53011890       3.10992129      29.99883906
Si      10.53779818       3.91883109      31.74191113
Si       8.93050719       6.72127790      18.30870524
Si       4.64595792       2.39654585      10.08508201
Si       8.48562403       6.48321640      19.17098288
Si       3.72081228       2.60222648       1.12850973
Si      12.41830751       4.29731505      33.80851093
Si       8.74995735       1.88905856      24.79208939
Si       7.36555511       4.79197914      24.12808568
Si       1.48935727       2.88246006      -0.43743978
Si       5.56173167       0.78157125      17.16773469
Si      10.51378178       3.04277938      31.97199824
Si      11.12604122       6.88617146      19.84508483
Si       6.89879166       3.92619782      11.22200216
Si       8.71847487       7.66866476      18.49433093
Si       4.88157244       3.40165825       9.43587361
Si       7.94610952       0.63553141      18.42558157
Si      12.81395737       3.28159951      33.30106143
Si       6.95493713       2.85538943      11.34832265
22
Lattice="4.6538816584244325 0.5407615695546609 2.548798049889401 2.714208797679909 6.663695314199118 2.1820426783197453 8.649492041717677 0.7772005742055994 32.95995786810644" Properties=species:S:1:pos:R:3 unique_starting_index=40 config_type=initial n_minim_iter=8 stress="0.0001285875859940492 -1.8163195019122005e-06 -3.9197943142856935e-05 -1.8163195019122005e-06 8.723290172213001e-05 3.2786325080987895e-06 -3.9197943142856935e-05 3.2786325080987895e-06 -0.0002658192362400231" pbc="T T T"
Si      12.84182466       4.41337436      33.00773576
Si       4.28274449       3.48360912      10.51183405
Si       8.28353904       1.19774503      17.68932573
Si       8.52994469       3.10975261      29.99675213
Si      10.53761028       3.91876399      31.73976737
Si       8.93040878       6.72118524      18.30736053
Si       4.64589118       2.39642413      10.08438650
Si       8.48550734       6.48311982      19.16954225
Si       3.72084246       2.60220163       1.12838806
Si      12.41823462       4.29711959      33.80611160
Si       8.74993870       1.88891086      24.79030559
Si       7.36538895       4.79168378      24.12635153
Si       1.48936270       2.88233762      -0.43738406
Si       5.56170794       0.78153736      17.16653578
Si      10.51370320       3.04263693      31.96963399
Si      11.12601781       6.88606149      19.84356835
Si       6.89883922       3.92608922      11.22119554
Si       8.71838582       7.66857709      18.49304255
Si       4.88158137       3.40150823       9.43517398
Si       7.94615157       0.63534789      18.42424718
Si      12.81389589       3.28136035      33.29871171
Si       6.95496318       2.85529730      11.34746803
22
Lattice="4.653868279155925 0.5404927768885501 2.5488786359057998 2.713854635152435 6.6632384265110165 2.1821383929962606 8.649324822126227 0.7768016956652183 32.96126223105923" Properties=species:S:1:pos:R:3 unique_starting_index=40 config_type=initial n_minim_iter=9 stress="5.4325680399951825e-06 -7.230565164501358e-05 -1.0987764959490157e-05 -7.230565164501358e-05 -5.735962470593354e-05 7.735034573567979e-05 -1.0987764959490157e-05 7.735034573567979e-05 6.447723795048988e-05" pbc="T T T"
Si      12.84152661       4.41257957      33.00907217
Si       4.28258265       3.48308712      10.51236339
Si       8.28343713       1.19748140      17.69009245
Si       8.52965317       3.10912391      29.99796622
Si      10.53712728       3.91834887      31.74118135
Si       8.92992717       6.72057141      18.30801280
Si       4.64562428       2.39592763      10.08483111
Si       8.48508089       6.48249700      19.17017188
Si       3.72062873       2.60198917       1.12845407
Si      12.41795378       4.29640292      33.80741900
Si       8.74984014       1.88842427      24.79121689
Si       7.36506757       4.79066289      24.12719820
Si       1.48928390       2.88189122      -0.43723736
Si       5.56165368       0.78140076      17.16725615
Si      10.51352022       3.04207920      31.97060908
Si      11.12554130       6.88542414      19.84421591
Si       6.89866523       3.92557704      11.22169621
Si       8.71793073       7.66791450      18.49384409
Si       4.88145730       3.40096161       9.43550791
Si       7.94609977       0.63485337      18.42493265
Si      12.81358883       3.28057080      33.30006913
Si       6.95473524       2.85490474      11.34787885
22
Lattice="4.653927680208259 0.5404023819392034 2.5487896931453795 2.714070875391285 6.663248474276961 2.181492255412709 8.649678828500438 0.7740857331117071 32.96021694702045" Properties=species:S:1:pos:R:3 unique_starting_index=40 config_type=initial n_minim_iter=10 stress="-6.345012670890301e-05 0.00017456461745678418 3.990724290476856e-05 0.00017456461745678418 6.846701823425476e-05 -6.363266630694438e-05 3.990724290476856e-05 -6.363266630694438e-05 -3.1550998288543655e-05" pbc="T T T"
Si      12.84204082       4.40999549      33.00775731
Si       4.28284328       3.48226589      10.51189894
Si       8.28361695       1.19633939      17.68961637
Si       8.52998170       3.10661991      29.99685501
Si      10.53747358       3.91614150      31.74012284
Si       8.93027225       6.71947882      18.30679310
Si       4.64568709       2.39490803      10.08435059
Si       8.48546560       6.48125464      19.16896355
Si       3.72069277       2.60210833       1.12827740
Si      12.41852013       4.29392684      33.80602066
Si       8.75024506       1.88645673      24.79027140
Si       7.36547915       4.78820093      24.12592060
Si       1.48937428       2.88168551      -0.43735623
Si       5.56185556       0.78017155      17.16674768
Si      10.51404369       3.03968994      31.96910633
Si      11.12591408       6.88436737      19.84292610
Si       6.89896755       3.92483555      11.22112638
Si       8.71832600       7.66680540      18.49267094
Si       4.88176007       3.40015592       9.43492268
Si       7.94637037       0.63331795      18.42428855
Si      12.81392927       3.27792230      33.29889483
Si       6.95488616       2.85416323      11.34729582
22
Lattice="4.654034501326762 0.539952570592388 2.548686317458294 2.7136333639587744 6.662826466841693 2.181229971600046 8.649459610883378 0.7723745392787658 32.95986864645599" Properties=species:S:1:pos:R:3 unique_starting_index=40 config_type=initial n_minim_iter=11 stress="0.00010065306757716752 -0.00019164724627269573 -2.4393944483603575e-05 -0.00019164724627269573 -4.130907702046774e-05 -0.00023551053923221414 -2.4393944483603575e-05 -0.00023551053923221414 2.746356811250863e-05" pbc="T T T"
Si      12.84174255       4.40782762      33.00721359
Si       4.28262042       3.48153371      10.51176930
Si       8.28349416       1.19528013      17.68945397
Si       8.52956351       3.10487960      29.99651120
Si      10.53703421       3.91444051      31.73983307
Si       8.92982186       6.71821243      18.30625560
Si       4.64546503       2.39394809      10.08413892
Si       8.48502642       6.47997328      19.16847675
Si       3.72062484       2.60180395       1.12820443
Si      12.41821349       4.29192043      33.80550580
Si       8.75014012       1.88495155      24.78988851
Si       7.36506147       4.78631894      24.12540854
Si       1.48919144       2.88126392      -0.43740714
Si       5.56173122       0.77928583      17.16657390
Si      10.51384057       3.03795082      31.96842480
Si      11.12555125       6.88293435      19.84229152
Si       6.89881128       3.92386293      11.22089297
Si       8.71776845       7.66552551      18.49219842
Si       4.88161874       3.39928837       9.43469395
Si       7.94638613       0.63207678      18.42400847
Si      12.81362395       3.27578377      33.29842956
Si       6.95473258       2.85320078      11.34702041
22
Lattice="4.654041274466591 0.5400891929618533 2.548645748966272 2.7135921039196305 6.66291533185362 2.181616075848976 8.649287248562183 0.774507386544296 32.95927019614338" Properties=species:S:1:pos:R:3 unique_starting_index=40 config_type=initial n_minim_iter=12 stress="-4.0925107335558925e-06 -4.307287016482287e-06 -9.488654711331222e-06 -4.307287016482287e-06 -3.610267548019611e-06 9.434960983126233e-05 -9.488654711331222e-06 9.434960983126233e-05 2.4711304834845034e-05" pbc="T T T"
Si      12.84163848       4.40984748      33.00680031
Si       4.28259965       3.48221459      10.51189548
Si       8.28329039       1.19659803      17.68930250
Si       8.52931550       3.10670655      29.99619013
Si      10.53676677       3.91667537      31.73967049
Si       8.92969406       6.71950162      18.30621257
Si       4.64533915       2.39429778      10.08406512
Si       8.48491322       6.48130181      19.16845288
Si       3.72062421       2.60194918       1.12840816
Si      12.41808739       4.29416641      33.80514279
Si       8.75009603       1.88650732      24.78945979
Si       7.36494817       4.78729574      24.12511338
Si       1.48917398       2.88091173      -0.43713922
Si       5.56162364       0.78048939      17.16631984
Si      10.51376743       3.04014807      31.96767702
Si      11.12549303       6.88434654      19.84212318
Si       6.89880194       3.92453123      11.22097999
Si       8.71761276       7.66681962      18.49233280
Si       4.88163101       3.39971315       9.43475053
Si       7.94632975       0.63322850      18.42365246
Si      12.81337933       3.27785073      33.29798650
Si       6.95463572       2.85384896      11.34694722
22
Lattice="4.65411490784521 0.5399990100726477 2.5485262839519307 2.7136238762644402 6.662858640471441 2.1813104802776975 8.64951802257439 0.7734328116686344 32.957754634992455" Properties=species:S:1:pos:R:3 unique_starting_index=40 config_type=initial n_minim_iter=13 stress="5.6910731586453526e-06 -1.905524404754203e-05 2.8156751992705236e-06 -1.905524404754203e-05 1.1028714814281827e-05 -4.5924998350059945e-06 2.8156751992705236e-06 -4.5924998350059945e-06 -5.293102758133326e-06" pbc="T T T"
Si      12.84200828       4.40869149      33.00510516
Si       4.28275863       3.48194762      10.51136793
Si       8.28328425       1.19629303      17.68864505
Si       8.52949090       3.10566738      29.99476202
Si      10.53681577       3.91593855      31.73828699
Si       8.92986151       6.71913972      18.30508487
Si       4.64539517       2.39370587      10.08350398
Si       8.48508707       6.48088882      19.16733110
Si       3.72067981       2.60207236       1.12830218
Si      12.41834549       4.29314879      33.80353305
Si       8.75038202       1.88564869      24.78824536
Si       7.36516804       4.78586869      24.12371833
Si       1.48927653       2.88059374      -0.43704499
Si       5.56172504       0.78001034      17.16554945
Si      10.51413650       3.03919866      31.96583348
Si      11.12582010       6.88390952      19.84075071
Si       6.89897330       3.92414035      11.22043651
Si       8.71772337       7.66640573      18.49127241
Si       4.88175044       3.39922485       9.43432657
Si       7.94649643       0.63262168      18.42284643
Si      12.81358372       3.27670359      33.29652844
Si       6.95474009       2.85333708      11.34635454
22
Lattice="4.6541764572047795 0.5401586942888242 2.548382710671181 2.713976052732613 6.662862448231001 2.181026821632767 8.649456483774182 0.7729667778187224 32.956367234818615" Properties=species:S:1:pos:R:3 unique_starting_index=40 config_type=initial n_minim_iter=14 stress="-2.039200561709243e-06 -6.434015192094727e-06 1.688586532928795e-07 -6.434015192094727e-06 -1.4515800788628346e-05 7.846976427616798e-06 1.688586532928795e-07 7.846976427616798e-06 -1.5687259686935121e-06" pbc="T T T"
Si      12.84206626       4.40834902      33.00358046
Si       4.28306501       3.48194200      10.51071156
Si       8.28310185       1.19657000      17.68816540
Si       8.52953150       3.10505918      29.99334062
Si      10.53670725       3.91594821      31.73717794
Si       8.93016607       6.71937433      18.30400721
Si       4.64556112       2.39347895      10.08297604
Si       8.48541658       6.48098704      19.16623176
Si       3.72080991       2.60247314       1.12832547
Si      12.41852081       4.29300147      33.80196228
Si       8.75052542       1.88526467      24.78713175
Si       7.36543023       4.78458005      24.12235057
Si       1.48940332       2.88018509      -0.43696138
Si       5.56169288       0.77997949      17.16487351
Si      10.51449658       3.03887407      31.96407907
Si      11.12625863       6.88431502      19.83931608
Si       6.89920824       3.92398529      11.21993563
Si       8.71796498       7.66652686      18.49028096
Si       4.88181680       3.39888039       9.43409770
Si       7.94649333       0.63247886      18.42205442
Si      12.81378470       3.27633283      33.29510435
Si       6.95492855       2.85301142      11.34581351
22
Lattice="4.654224982348323 0.540310035250486 2.54826770385945 2.714292092008258 6.663126051065314 2.1807426867911532 8.649253193178131 0.7723379358250355 32.9555958917493" Properties=species:S:1:pos:R:3 unique_starting_index=40 config_type=initial n_minim_iter=15 stress="-2.7735576394881165e-06 5.649996211399156e-06 -2.5013660353088765e-06 5.649996211399156e-06 2.547732069998543e-05 -1.9105285802633636e-05 -2.5013660353088765e-06 -1.9105285802633636e-05 1.754443399852818e-06" pbc="T T T"
Si      12.84208972       4.40794012      33.00260075
Si       4.28325890       3.48195480      10.51021785
Si       8.28282587       1.19671417      17.68787546
Si       8.52950382       3.10449596      29.99255031
Si      10.53642510       3.91562896      31.73656092
Si       8.93035283       6.71963827      18.30325441
Si       4.64571653       2.39342568      10.08268548
Si       8.48568177       6.48110204      19.16544966
Si       3.72097969       2.60287944       1.12825529
Si      12.41848471       4.29277028      33.80104621
Si       8.75052324       1.88478800      24.78649047
Si       7.36556271       4.78358150      24.12145966
Si       1.48956797       2.88006122      -0.43694859
Si       5.56155210       0.77992871      17.16448493
Si      10.51456467       3.03860295      31.96293706
Si      11.12656100       6.88485197      19.83839230
Si       6.89933765       3.92380733      11.21957007
Si       8.71811063       7.66684899      18.48961235
Si       4.88182612       3.39869982       9.43391026
Si       7.94647248       0.63217350      18.42156050
Si      12.81377630       3.27594506      33.29427336
Si       6.95510838       2.85282399      11.34546354
22
Lattice="4.654256884652562 0.5404320148495171 2.5481903297344743 2.714472770163365 6.663218340049472 2.1806798471072484 8.649029442248722 0.7725226708512819 32.95511019962548" Properties=species:S:1:pos:R:3 unique_starting_index=40 config_type=initial n_minim_iter=16 stress="-1.6977954194153308e-06 -3.1745704206361725e-06 -3.973843177846692e-06 -3.1745704206361725e-06 1.0694632662704473e-05 -2.7009678618426155e-06 -3.973843177846692e-06 -2.7009678618426155e-06 1.1782263694276098e-06" pbc="T T T"
Si      12.84197041       4.40813614      33.00201867
Si       4.28332549       3.48206805      10.50996645
Si       8.28256208       1.19719675      17.68771245
Si       8.52934771       3.10461375      29.99212669
Si      10.53626307       3.91599708      31.73623853
Si       8.93040525       6.72006518      18.30288858
Si       4.64581988       2.39355879      10.08259123
Si       8.48582324       6.48144835      19.16505680
Si       3.72112096       2.60312662       1.12818640
Si      12.41833924       4.29315929      33.80050365
Si       8.75045704       1.88484154      24.78611570
Si       7.36558481       4.78321326      24.12094775
Si       1.48964811       2.87993872      -0.43678996
Si       5.56139628       0.78021488      17.16422926
Si      10.51459955       3.03889912      31.96224971
Si      11.12670457       6.88547015      19.83787363
Si       6.89936333       3.92370106      11.21939091
Si       8.71810269       7.66728463      18.48931790
Si       4.88180131       3.39868409       9.43378937
Si       7.94640610       0.63226075      18.42125318
Si      12.81358099       3.27627029      33.29374872
Si       6.95523960       2.85284985      11.34528939
22
Lattice="4.654282662541258 0.5405679063943909 2.5481197180344646 2.714659593394158 6.66330095139761 2.1806434846546057 8.648756506699801 0.7728204755474998 32.95476119998804" Properties=species:S:1:pos:R:3 unique_starting_index=40 config_type=initial n_minim_iter=17 stress="-5.478001662075091e-06 3.85074603198583e-06 -5.627373210368107e-07 3.85074603198583e-06 7.790906270134171e-07 -1.515970034146267e-05 -5.627373210368107e-07 -1.515970034146267e-05 6.512737705641467e-07" pbc="T T T"
Si      12.84184385       4.40845226      33.00165184
Si       4.28333853       3.48217836      10.50981400
Si       8.28228218       1.19780040      17.68764914
Si       8.52917741       3.10480615      29.99184631
Si      10.53598675       3.91650025      31.73597788
Si       8.93044285       6.72058890      18.30261972
Si       4.64592132       2.39372823      10.08259847
Si       8.48592989       6.48190074      19.16478342
Si       3.72131784       2.60334622       1.12812552
Si      12.41821939       4.29369174      33.80011547
Si       8.75035122       1.88493755      24.78585780
Si       7.36558452       4.78292087      24.12054598
Si       1.48965644       2.87980386      -0.43672567
Si       5.56121296       0.78051908      17.16403730
Si      10.51446510       3.03926233      31.96172972
Si      11.12683390       6.88612645      19.83740570
Si       6.89935854       3.92358250      11.21925285
Si       8.71806248       7.66774656      18.48909899
Si       4.88180059       3.39872013       9.43361359
Si       7.94628353       0.63242201      18.42103281
Si      12.81342067       3.27672938      33.29340297
Si       6.95538494       2.85291405      11.34516857
22
Lattice="4.654319930801747 0.540793937165816 2.5480093108472572 2.714873113626383 6.663522881938533 2.180742593656818 8.648138865648395 0.7739804123092426 32.95441026068869" Properties=species:S:1:pos:R:3 unique_starting_index=40 config_type=initial n_minim_iter=18 stress="4.92698206836029e-06 -4.3994305198114085e-06 -1.3297964965179475e-05 -4.3994305198114085e-06 6.527032675283568e-06 -4.273714730727465e-06 -1.3297964965179475e-05 -4.273714730727465e-06 1.8671954976793202e-05" pbc="T T T"
Si      12.84136151       4.40967830      33.00130142
Si       4.28321983       3.48255176      10.50977521
Si       8.28174179       1.19904026      17.68770342
Si       8.52870075       3.10573582      29.99155392
Si      10.53536575       3.91790387      31.73586193
Si       8.93034894       6.72183705      18.30242363
Si       4.64599510       2.39418494      10.08275857
Si       8.48585642       6.48306321      19.16460707
Si       3.72149687       2.60363790       1.12809089
Si      12.41770674       4.29524307      33.79974853
Si       8.75002891       1.88555240      24.78563616
Si       7.36540488       4.78305518      24.12016245
Si       1.48990656       2.87962533      -0.43666822
Si       5.56083742       0.78130968      17.16385938
Si      10.51408051       3.04060744      31.96132851
Si      11.12688502       6.88759091      19.83688464
Si       6.89925725       3.92367639      11.21915037
Si       8.71785619       7.66888350      18.48900087