4
Lattice="3.6342411856642793 0.0 0.0 0.0 3.6342411856642793 0.0 0.0 0.0 3.6342411856642793" Properties=species:S:1:pos:R:3 n_minim_iter=1 stress="-0.27750303403027654 1.2278746937434814e-17 -2.091498286737238e-17 1.2278746937434814e-17 -0.2775030340302764 1.1040792123144053e-17 -2.091498286737238e-17 1.1040792123144053e-17 -0.27750303403027626" pbc="T T T"
Al       0.00000000       0.00000000       0.00000000
Al       1.81712059       1.81712059       0.00000000
Al       1.81712059       0.00000000       1.81712059
Al       0.00000000       1.81712059       1.81712059
