4
Lattice="3.9321902899662327 0.0 0.0 0.0 3.9321902899662327 0.0 0.0 0.0 3.9321902899662327" Properties=species:S:1:pos:R:3 n_minim_iter=1 stress="-0.02356459109625102 -6.6412914893142926e-18 4.0032308921694323e-20 -6.6412914893142926e-18 -0.023564591096251048 8.207020205941515e-18 4.0032308921694323e-20 8.207020205941515e-18 -0.02356459109625093" pbc="T T T"
Al       0.00000000       0.00000000       0.00000000
Al       1.96609514       1.96609514       0.00000000
Al       1.96609514       0.00000000       1.96609514
Al       0.00000000       1.96609514       1.96609514
