4
Lattice="4.279949922260316 0.0 0.0 0.0 4.279949922260316 0.0 0.0 0.0 4.279949922260316" Properties=species:S:1:pos:R:3 n_minim_iter=1 stress="0.06844698409184306 1.6410889222308232e-17 -1.4328485156931164e-17 1.6410889222308232e-17 0.06844698409184313 -1.0982374199544275e-17 -1.4328485156931164e-17 -1.0982374199544275e-17 0.06844698409184292" pbc="T T T"
Al       0.00000000       0.00000000       0.00000000
Al       2.13997496       2.13997496       0.00000000
Al       2.13997496       0.00000000       2.13997496
Al       0.00000000       2.13997496       2.13997496
