4
Lattice="4.129120461825467 0.0 0.0 0.0 4.129120461825467 0.0 0.0 0.0 4.129120461825467" Properties=species:S:1:pos:R:3 n_minim_iter=1 stress="0.04016447832855681 -1.4104987056741503e-17 -1.3173531581802815e-17 -1.4104987056741503e-17 0.04016447832855684 -2.6435605738074706e-17 -1.3173531581802815e-17 -2.6435605738074706e-17 0.04016447832855696" pbc="T T T"
Al       0.00000000       0.00000000       0.00000000
Al       2.06456023       2.06456023       0.00000000
Al       2.06456023       0.00000000       2.06456023
Al       0.00000000       2.06456023       2.06456023
