4
Lattice="3.897390320749315 0.0 0.0 0.0 3.897390320749315 0.0 0.0 0.0 3.897390320749315" Properties=species:S:1:pos:R:3 n_minim_iter=1 stress="-0.02356459109625102 -6.6412914893142926e-18 4.0032308921694323e-20 -6.6412914893142926e-18 -0.023564591096251048 8.207020205941515e-18 4.0032308921694323e-20 8.207020205941515e-18 -0.02356459109625093" pbc="T T T"
Al       0.00000000       0.00000000       0.00000000
Al       1.94869516       1.94869516       0.00000000
Al       1.94869516       0.00000000       1.94869516
Al       0.00000000       1.94869516       1.94869516
