4
Lattice="3.6741811000284557 0.0 0.0 0.0 3.6741811000284557 0.0 0.0 0.0 3.6741811000284557" Properties=species:S:1:pos:R:3 n_minim_iter=1 stress="-0.17089687198819162 -6.104229145907929e-18 2.2535664052260724e-18 -6.104229145907929e-18 -0.1708968719881915 -6.098637220230961e-19 2.2535664052260724e-18 -6.098637220230961e-19 -0.17089687198819145" pbc="T T T"
Al       0.00000000       0.00000000       0.00000000
Al       1.83709055       1.83709055       0.00000000
Al       1.83709055       0.00000000       1.83709055
Al       0.00000000       1.83709055       1.83709055
