4
Lattice="4.160167646103808 0.0 0.0 0.0 4.160167646103808 0.0 0.0 0.0 4.160167646103808" Properties=species:S:1:pos:R:3 n_minim_iter=1 stress="0.04939260416528753 2.23290603845386e-18 8.843673606437218e-21 2.23290603845386e-18 0.04939260416528758 4.145340702272874e-20 8.843673606437218e-21 4.145340702272874e-20 0.04939260416528758" pbc="T T T"
Al       0.00000000       0.00000000       0.00000000
Al       2.08008382       2.08008382       0.00000000
Al       2.08008382       0.00000000       2.08008382
Al       0.00000000       2.08008382       2.08008382
