8
Lattice="5.217014334149614 4.3994083531621717e-16 -1.0141682465200876e-46 -2.6085071670748072 4.518066945281123 4.0546250431713255e-46 7.746479886680225e-47 -3.128896307926997e-46 3.9848907463513186" Properties=species:S:1:pos:R:3:tags:I:1 spacegroup="P 1" unit_cell=conventional n_minim_iter=1 energy=-9778.410897422827 free_energy=-9778.410897422827 pbc="T T T"
Ti       2.60850717       2.94277216       0.99622268        0
Ti      -1.24425794       3.73042181       2.98866806        1
Ti       1.24425795       3.73042181       2.98866806        2
Ti       1.36424922       0.78765418       0.99622268        3
Ti       3.85276512       0.78765418       0.99622268        4
Ti       0.00000000       1.57530383       2.98866806        5
Al       0.00000000       3.01204915       0.99622268        6
Al       2.60850717       1.50602684       2.98866806        7
8
Lattice="5.220114102047807 4.384288807244365e-16 -1.008031338820267e-46 -2.610057051023904 4.520751423026795 4.093407251173966e-46 7.753786519419312e-47 -3.092147899226284e-46 3.9801595972932433" Properties=species:S:1:pos:R:3:tags:I:1 spacegroup="P 1" unit_cell=conventional n_minim_iter=2 stress="-0.600561277580276 -1.9545245509212464e-15 -7.297370609225851e-17 -1.9545245509212464e-15 -0.6005612775802761 -1.4721661049877782e-16 -7.297370609225851e-17 -1.4721661049877782e-16 -0.6021997821789835" pbc="T T T"
Ti       2.61005706       2.94338125       0.99503990        0
Ti      -1.24401049       3.73206860       2.98511970        1
Ti       1.24401050       3.73206860       2.98511970        2
Ti       1.36604656       0.78869187       0.99503990        3
Ti       3.85406755       0.78869187       0.99503990        4
Ti       0.00000000       1.57737922       2.98511970        5
Al       0.00000000       3.01383881       0.99503990        6
Al       2.61005706       1.50692167       2.98511970        7
8
Lattice="5.217603770747921 4.3909269862342195e-16 -1.0097058871842174e-46 -2.608801885373961 4.518577412349179 4.0894360037069704e-46 7.762143400236162e-47 -3.0939029639154245e-46 3.983990445035141" Properties=species:S:1:pos:R:3:tags:I:1 spacegroup="P 1" unit_cell=conventional n_minim_iter=3 stress="-0.6009965164749473 6.241168845485463e-15 -1.9598834129880067e-15 6.241168845485463e-15 -0.6009965164749432 1.6555534928949866e-15 -1.9598834129880067e-15 1.6555534928949866e-15 -0.6008403323540771" pbc="T T T"
Ti       2.60880189       2.94099798       0.99599761        0
Ti      -1.24257410       3.72978996       2.98799283        1
Ti       1.24257411       3.72978996       2.98799283        2
Ti       1.36622778       0.78879650       0.99599761        3
Ti       3.85137600       0.78879650       0.99599761        4
Ti       0.00000000       1.57758848       2.98799283        5
Al       0.00000000       3.01238946       0.99599761        6
Al       2.60880189       1.50619699       2.98799283        7
