8
Lattice="5.293407012456742 5.050318834898447e-16 -5.753226959526521e-47 -2.6467035062283712 4.584224945358228 3.355085395017424e-47 4.478353447177772e-47 -4.3006359328282005e-48 4.120426276995263" Properties=species:S:1:pos:R:3:tags:I:1 spacegroup="P 1" unit_cell=conventional n_minim_iter=1 energy=-9781.29418552165 free_energy=-9781.29418552165 pbc="T T T"
Ti       2.64670351       2.99489570       1.03010657        0
Ti      -1.27030003       3.78956262       3.09031971        1
Ti       1.27030004       3.78956262       3.09031971        2
Ti       1.37640348       0.79467151       1.03010657        3
Ti       3.91700354       0.79467151       1.03010657        4
Ti       0.00000000       1.58933842       3.09031971        5
Al       0.00000000       3.05615455       1.03010657        6
Al       2.64670351       1.52807957       3.09031971        7
8
Lattice="5.313683277731658 4.961995227193353e-16 -5.76878321794724e-47 -2.6568416388658296 4.601784706180179 3.234631460395399e-47 4.419449750285563e-47 -3.8139182974126606e-48 4.089040343594663" Properties=species:S:1:pos:R:3:tags:I:1 spacegroup="P 1" unit_cell=conventional n_minim_iter=2 stress="-0.35702973522218884 3.805414537728331e-15 -3.955274758196204e-15 3.805414537728331e-15 -0.35702973522218145 1.6192784224343437e-15 -3.955274758196204e-15 1.6192784224343437e-15 -0.3576122897989272" pbc="T T T"
Ti       2.65684164       3.00562136       1.02226008        0
Ti      -1.27451964       3.80370534       3.06678026        1
Ti       1.27451965       3.80370534       3.06678026        2
Ti       1.38232200       0.79808858       1.02226008        3
Ti       3.93136129       0.79808858       1.02226008        4
Ti       0.00000000       1.59617255       3.06678026        5
Al       0.00000000       3.06786108       1.02226008        6
Al       2.65684164       1.53393284       3.06678026        7
8
Lattice="5.318724222514744 4.853666828696835e-16 -1.0879580869583368e-46 -2.6593621112573724 4.606150292421408 4.57243607010944e-46 5.030879260303457e-47 -1.5325846867488697e-46 4.081293050192182" Properties=species:S:1:pos:R:3:tags:I:1 spacegroup="P 1" unit_cell=conventional n_minim_iter=3 stress="-0.3555750228342651 -3.0062190518454773e-15 2.2788075631764598e-15 -3.0062190518454773e-15 -0.3555750228342706 2.889792053969151e-15 2.2788075631764598e-15 2.889792053969151e-15 -0.35641707736291656" pbc="T T T"
Ti       2.65936212       3.00289921       1.02032326        0
Ti      -1.27090195       3.80452706       3.06096979        1
Ti       1.27090196       3.80452706       3.06096979        2
Ti       1.38846016       0.80163246       1.02032326        3
Ti       3.93026407       0.80163246       1.02032326        4
Ti       0.00000000       1.60326030       3.06096979        5
Al       0.00000000       3.07077147       1.02032326        6
Al       2.65936212       1.53538804       3.06096979        7
