8
Lattice="5.530041995205343 4.339752513614076e-16 -1.2834711176086233e-47 -2.7650209976026723 4.789156851842609 6.717210664193822e-48 1.062085765494236e-47 -2.8651955093956012e-49 4.576167554620378" Properties=species:S:1:pos:R:3:tags:I:1 spacegroup="P 1" unit_cell=conventional n_minim_iter=1 energy=-9784.087936380765 free_energy=-9784.087936380765 pbc="T T T"
Ti       2.76502100       3.18110045       1.14404189        0
Ti      -1.37239915       3.98513105       3.43212566        1
Ti       1.37239916       3.98513105       3.43212566        2
Ti       1.39262185       0.80403539       1.14404189        3
Ti       4.13742016       0.80403539       1.14404189        4
Ti       0.00000000       1.60806599       3.43212566        5
Al       0.00000000       3.19277603       1.14404189        6
Al       2.76502100       1.59639041       3.43212566        7
