8
Lattice="6.1040633324468 8.157771468195743e-16 -2.271880720360595e-47 -3.0520316662234017 5.286273912208026 -2.5375951191637235e-47 1.71247128592687e-47 3.1973588335047584e-47 4.601048413595906" Properties=species:S:1:pos:R:3:tags:I:1 spacegroup="P 1" unit_cell=conventional n_minim_iter=1 energy=-9783.54112203221 free_energy=-9783.54112203221 pbc="T T T"
Ti       3.05203167       3.60719191       1.15026210        0
Ti      -1.59789941       4.44673556       3.45078631        1
Ti       1.59789942       4.44673556       3.45078631        2
Ti       1.45413225       0.83954894       1.15026210        3
Ti       4.64993109       0.83954894       1.15026210        4
Ti       0.00000001       1.67909258       3.45078631        5
Al       0.00000001       3.52418790       1.15026210        6
Al       3.05203167       1.76209659       3.45078631        7
8
Lattice="6.11290528792927 8.113506806692909e-16 -2.2761014416472834e-47 -3.056452643964637 5.293931270274978 -2.5431305575986174e-47 1.7068209386547234e-47 3.1860953509120063e-47 4.587747751770736" Properties=species:S:1:pos:R:3:tags:I:1 spacegroup="P 1" unit_cell=conventional n_minim_iter=2 stress="0.04358452310778961 -7.725064251063857e-17 2.048859711802666e-16 -7.725064251063857e-17 0.04358452310778923 3.2396811824396847e-16 2.048859711802666e-16 3.2396811824396847e-16 0.0425805710536608" pbc="T T T"
Ti       3.05645265       3.61322415       1.14693694        0
Ti      -1.60091299       4.45358036       3.44081081        1
Ti       1.60091300       4.45358036       3.44081081        2
Ti       1.45553966       0.84036151       1.14693694        3
Ti       4.65736564       0.84036151       1.14693694        4
Ti       0.00000001       1.68071772       3.44081081        5
Al       0.00000001       3.52929281       1.14693694        6
Al       3.05645265       1.76464906       3.44081081        7
8
Lattice="6.10981200365995 8.193197508986685e-16 -2.2766560336807606e-47 -3.054906001829977 5.2912524075166205 -2.5466897506580165e-47 1.7085923574419915e-47 3.189447211864156e-47 4.592394310557175" Properties=species:S:1:pos:R:3:tags:I:1 spacegroup="P 1" unit_cell=conventional n_minim_iter=3 stress="0.04179448932513865 1.8529436540586928e-16 -3.910236777402978e-17 1.8529436540586928e-16 0.041794489325137886 -1.0784240247339497e-16 -3.910236777402978e-17 -1.0784240247339497e-16 0.0417079663891013" pbc="T T T"
Ti       3.05490601       3.61818220       1.14809858        0
Ti      -1.60598010       4.45471995       3.44429573        1
Ti       1.60598011       4.45471995       3.44429573        2
Ti       1.44892590       0.83654305       1.14809858        3
Ti       4.66088612       0.83654305       1.14809858        4
Ti       0.00000001       1.67308080       3.44429573        5
Al       0.00000001       3.52750690       1.14809858        6
Al       3.05490601       1.76375610       3.44429573        7
