8
Lattice="6.046329761947346 8.49234885589182e-16 -1.8101615923085152e-47 -3.023164880973675 5.236275173504319 -3.9307975678085034e-47 1.3752507154504214e-47 4.2423771072940495e-47 4.593633721044097" Properties=species:S:1:pos:R:3:tags:I:1 spacegroup="P 1" unit_cell=conventional n_minim_iter=1 energy=-9783.648715145395 free_energy=-9783.648715145395 pbc="T T T"
Ti       3.02316489       3.56572703       1.14840843        0
Ti      -1.57642321       4.40100372       3.44522529        1
Ti       1.57642322       4.40100372       3.44522529        2
Ti       1.44674168       0.83528193       1.14840843        3
Ti       4.59958810       0.83528193       1.14840843        4
Ti       0.00000001       1.67055863       3.44522529        5
Al       0.00000001       3.49085536       1.14840843        6
Al       3.02316489       1.74543030       3.44522529        7
8
Lattice="6.06325444921419 8.097694090212895e-16 -1.819143439954581e-47 -3.0316272246070968 5.250932382628513 -3.9496303327754256e-47 1.3646511759931204e-47 4.2102604313274203e-47 4.568024600804318" Properties=species:S:1:pos:R:3:tags:I:1 spacegroup="P 1" unit_cell=conventional n_minim_iter=2 stress="0.03285672565799439 -8.286561570880841e-16 -1.4672427298639892e-17 -8.286561570880841e-16 0.03285672565799791 6.413302260707804e-17 -1.4672427298639892e-17 6.413302260707804e-17 0.03253742009124135" pbc="T T T"
Ti       3.03162723       3.57617479       1.14200615        0
Ti      -1.58124005       4.41355622       3.42601845        1
Ti       1.58124006       4.41355622       3.42601845        2
Ti       1.45038717       0.83738668       1.14200615        3
Ti       4.61286729       0.83738668       1.14200615        4
Ti       0.00000001       1.67476810       3.42601845        5
Al       0.00000001       3.50062684       1.14200615        6
Al       3.03162723       1.75031605       3.42601845        7
8
Lattice="6.06225336733127 8.10189456752653e-16 -2.2563194051363555e-47 -3.031126683665637 5.250065420286639 -2.520213785184833e-47 1.2892245501516528e-47 3.7487714132310706e-47 4.569533394306258" Properties=species:S:1:pos:R:3:tags:I:1 spacegroup="P 1" unit_cell=conventional n_minim_iter=3 stress="0.031524210994822374 -9.436493609241813e-16 -7.521015968284572e-17 -9.436493609241813e-16 0.031524210994824525 3.8496955926674077e-16 -7.521015968284572e-17 3.8496955926674077e-16 0.0313968048252638" pbc="T T T"
Ti       3.03112669       3.58248434       1.14238335        0
Ti      -1.58695455       4.41627751       3.42715004        1
Ti       1.58695456       4.41627751       3.42715004        2
Ti       1.44417213       0.83379842       1.14238335        3
Ti       4.61808125       0.83379842       1.14238335        4
Ti       0.00000001       1.66759158       3.42715004        5
Al       0.00000001       3.50004887       1.14238335        6
Al       3.03112669       1.75002706       3.42715004        7
