8
Lattice="5.635634101162959 4.0777709763373527e-16 -2.916101418051148e-47 -2.8178170505814797 4.880602298041002 2.4647630905227497e-49 1.0779931559102182e-47 5.2686059140827455e-49 4.62660580726353" Properties=species:S:1:pos:R:3:tags:I:1 spacegroup="P 1" unit_cell=conventional n_minim_iter=4 stress="0.013935801281959747 3.785501958869242e-16 -1.1303438924531103e-16 3.785501958869242e-16 0.013935801281959747 1.497232291182582e-17 -1.1303438924531103e-16 1.497232291182582e-17 0.013947720382448665" pbc="T T T"
Ti       2.81781706       3.24743713       1.15665145        0
Ti      -1.40345029       4.06402216       3.46995435        1
Ti       1.40345030       4.06402216       3.46995435        2
Ti       1.41436676       0.81658991       1.15665145        3
Ti       4.22126735       0.81658991       1.15665145        4
Ti       0.00000000       1.63317494       3.46995435        5
Al       0.00000000       3.25373975       1.15665145        6
Al       2.81781706       1.62687232       3.46995435        7
