8
Lattice="5.477097105297673 4.1966425742196975e-16 -3.0254179750215286e-47 -2.7385485526488376 4.743305232181998 1.0193488639537656e-47 1.3239192953831446e-47 -2.3349736590084246e-47 4.54844042258974" Properties=species:S:1:pos:R:3:tags:I:1 spacegroup="P 1" unit_cell=conventional n_minim_iter=3 stress="-0.0230702415239381 -5.859250003899133e-16 6.694406231419281e-16 -5.859250003899133e-16 -0.02307024152393789 -1.097407009003259e-15 6.694406231419281e-16 -1.097407009003259e-15 -0.02285845945723187" pbc="T T T"
Ti       2.73854856       3.14644241       1.13711010        0
Ti      -1.35562066       3.94487619       3.41133031        1
Ti       1.35562067       3.94487619       3.41133031        2
Ti       1.38292789       0.79843853       1.13711010        3
Ti       4.09416922       0.79843853       1.13711010        4
Ti       0.00000000       1.59687232       3.41133031        5
Al       0.00000000       3.16220824       1.13711010        6
Al       2.73854856       1.58110649       3.41133031        7
