8
Lattice="5.8706949342507295 8.261003903522666e-16 -1.7886471891154264e-47 -2.935347467125365 5.084170950929747 -4.1595096586307284e-47 9.733768695730384e-48 7.298842956820101e-47 4.568064972401645" Properties=species:S:1:pos:R:3:tags:I:1 spacegroup="P 1" unit_cell=conventional n_minim_iter=4 stress="0.01544512938406289 5.698762401608466e-16 -5.4394223530335e-17 5.698762401608466e-16 0.015445129384062263 -2.902774525869237e-16 -5.4394223530335e-17 -2.902774525869237e-16 0.015467934546288685" pbc="T T T"
Ti       2.93534747       3.44155569       1.14201624        0
Ti      -1.51279651       4.26286586       3.42604873        1
Ti       1.51279652       4.26286586       3.42604873        2
Ti       1.42255096       0.82131526       1.14201624        3
Ti       4.44814399       0.82131526       1.14201624        4
Ti       0.00000001       1.64262544       3.42604873        5
Al       0.00000001       3.38945239       1.14201624        6
Al       2.93534747       1.69472874       3.42604873        7
