8
Lattice="5.272518652496273 4.446214082671571e-16 -1.0249580802461436e-46 -2.6362593262481364 4.566135094989069 4.097762589813548e-46 7.81634529218525e-47 -3.3556340928507273e-46 4.027286383088283" Properties=species:S:1:pos:R:3:tags:I:1 spacegroup="P 1" unit_cell=conventional n_minim_iter=4 stress="-0.47644906275518006 -2.2994411104358393e-15 2.0686924312620757e-15 -2.2994411104358393e-15 -0.47644906275517884 -1.8090549107487104e-16 2.0686924312620757e-15 -1.8090549107487104e-16 -0.4764544162787704" pbc="T T T"
Ti       2.63625933       2.97408060       1.00682159        0
Ti      -1.25749572       3.77011013       3.02046479        1
Ti       1.25749573       3.77011013       3.02046479        2
Ti       1.37876360       0.79603410       1.00682159        3
Ti       3.89375506       0.79603410       1.00682159        4
Ti       0.00000000       1.59206364       3.02046479        5
Al       0.00000000       3.04409463       1.00682159        6
Al       2.63625933       1.52204960       3.02046479        7
