8
Lattice="5.394526003007093 4.064539671716141e-16 -4.001695604360842e-47 -2.6972630015035475 4.671796559979871 2.7222301025505524e-48 1.910405127939568e-47 5.1662545581233986e-48 4.448298548831612" Properties=species:S:1:pos:R:3:tags:I:1 spacegroup="P 1" unit_cell=conventional n_minim_iter=3 stress="-0.09211205184788529 2.605755806287063e-16 1.1667752203643972e-15 2.605755806287063e-16 -0.09211205184788987 -1.7893571870657676e-15 1.1667752203643972e-15 -1.7893571870657676e-15 -0.09192805882837661" pbc="T T T"
Ti       2.69726301       3.08753221       1.11207463        0
Ti      -1.32524578       3.87966672       3.33622391        1
Ti       1.32524579       3.87966672       3.33622391        2
Ti       1.37201722       0.79213919       1.11207463        3
Ti       4.02250879       0.79213919       1.11207463        4
Ti       0.00000000       1.58427370       3.33622391        5
Al       0.00000000       3.11453572       1.11207463        6
Al       2.69726301       1.55727020       3.33622391        7
