8
Lattice="5.316962137095783 3.735685944886312e-16 -7.21290147198688e-47 -2.6584810685478915 4.604624281684949 3.2020223131168835e-47 2.909111846930581e-47 6.657983920477186e-48 4.331513716817295" Properties=species:S:1:pos:R:3:tags:I:1 spacegroup="P 1" unit_cell=conventional n_minim_iter=3 stress="-0.13587539954622624 -7.926223816716592e-16 -5.2249598556721815e-16 -7.926223816716592e-16 -0.135875399546228 -4.2415557657178823e-16 -5.2249598556721815e-16 -4.2415557657178823e-16 -0.13532365081347072" pbc="T T T"
Ti       2.65848107       3.03387379       1.08287843        0
Ti      -1.29816724       3.81925134       3.24863529        1
Ti       1.29816725       3.81925134       3.24863529        2
Ti       1.36031383       0.78538216       1.08287843        3
Ti       3.95664832       0.78538216       1.08287843        4
Ti       0.00000000       1.57075971       3.24863529        5
Al       0.00000000       3.06975413       1.08287843        6
Al       2.65848107       1.53487937       3.24863529        7
