8
Lattice="5.429878401298983 4.160462820658506e-16 -2.9993354876950424e-47 -2.7149392006494923 4.702412634985354 1.0105609364525572e-47 1.3125056300555048e-47 -2.314843574051045e-47 4.509227778037171" Properties=species:S:1:pos:R:3:tags:I:1 spacegroup="P 1" unit_cell=conventional n_minim_iter=3 stress="-0.0230702415239381 -5.859250003899133e-16 6.694406231419281e-16 -5.859250003899133e-16 -0.02307024152393789 -1.097407009003259e-15 6.694406231419281e-16 -1.097407009003259e-15 -0.02285845945723187" pbc="T T T"
Ti       2.71493921       3.11931655       1.12730694        0
Ti      -1.34393370       3.91086695       3.38192083        1
Ti       1.34393371       3.91086695       3.38192083        2
Ti       1.37100550       0.79155510       1.12730694        3
Ti       4.05887291       0.79155510       1.12730694        4
Ti       0.00000000       1.58310550       3.38192083        5
Al       0.00000000       3.13494646       1.12730694        6
Al       2.71493921       1.56747558       3.38192083        7
