8
Lattice="5.913863359071683 8.321748760809367e-16 -1.8017994790196526e-47 -2.956931679535842 5.121555903466051 -4.190095386896567e-47 9.805343094821487e-48 7.352512847180644e-47 4.601654891746265" Properties=species:S:1:pos:R:3:tags:I:1 spacegroup="P 1" unit_cell=conventional n_minim_iter=4 stress="0.01544512938406289 5.698762401608466e-16 -5.4394223530335e-17 5.698762401608466e-16 0.015445129384062263 -2.902774525869237e-16 -5.4394223530335e-17 -2.902774525869237e-16 0.015467934546288685" pbc="T T T"
Ti       2.95693168       3.46686215       1.15041372        0
Ti      -1.52392041       4.29421159       3.45124117        1
Ti       1.52392042       4.29421159       3.45124117        2
Ti       1.43301127       0.82735456       1.15041372        3
Ti       4.48085210       0.82735456       1.15041372        4
Ti       0.00000001       1.65470400       3.45124117        5
Al       0.00000001       3.41437573       1.15041372        6
Al       2.95693168       1.70719043       3.45124117        7
