2
Lattice="3.284414265590685 5.388254524819246e-17 2.3441348990150197e-17 5.3882545248192445e-17 3.284414265590685 2.8324963363098156e-17 2.3441348990150197e-17 2.8324963363098156e-17 3.284414265590685" Properties=species:S:1:pos:R:3:forces:R:3 n_minim_iter=1 energy=-324.9023970999272 stress="0.08497899550751346 -2.3198097949762164e-17 -7.671355875685152e-17 -2.3198097949762164e-17 0.08497899550751341 -7.978898560283448e-17 -7.671355875685152e-17 -7.978898560283448e-17 0.08497899550751341" free_energy=-324.9023970999272 pbc="T T T"
Si      -0.00000000      -0.00000000      -0.00000000       0.00000000       0.00000000       0.00000000
Si       1.64220713       1.64220713       1.64220713      -0.00000000      -0.00000000      -0.00000000
