2
Lattice="3.2145117821385925 5.273575820399144e-17 2.294244465672136e-17 5.273575820399143e-17 3.2145117821385925 2.772212062687164e-17 2.294244465672136e-17 2.772212062687164e-17 3.2145117821385925" Properties=species:S:1:pos:R:3:forces:R:3 n_minim_iter=1 energy=-325.1192401094314 stress="0.056047691750146955 3.2926857636504286e-17 8.057882044353253e-17 3.2926857636504286e-17 0.05604769175014696 1.0069421602019722e-16 8.057882044353253e-17 1.0069421602019722e-16 0.05604769175014684" free_energy=-325.1192401094314 pbc="T T T"
Si      -0.00000000      -0.00000000      -0.00000000      -0.00000000      -0.00000000      -0.00000000
Si       1.60725589       1.60725589       1.60725589       0.00000000       0.00000000       0.00000000
