63
Lattice="10.985629486570017 0.0 0.0 0.0 10.985629486570017 0.0 0.0 0.0 10.985629486570017" Properties=species:S:1:pos:R:3:forces:R:3 cutoff=-1.0 nneightol=1.2 vacancies=0 relax_radial_0=0.13 relax_symm_break_0=0.01 bulk_struct_test=bulk_Si_diamond supercell_a1_in_bulk_lattice_coords="2 2 -2" n_minim_iter=0 pbc="T T T"
Si       2.71035762       2.71044000       0.01480277      -0.00106366      -0.00124607      -0.00112016
Si       2.71098307       0.01417792       2.71117259      -0.00137774      -0.00014495      -0.00161844
Si       0.01361305       2.71159659       2.71170630       0.00084721      -0.00174567      -0.00190523
Si       1.27147962       1.27292162       1.27455889      -0.00218674      -0.00330818      -0.00454866
Si       4.11322354       4.11308391       1.37071257      -0.00151715      -0.00091966      -0.00401972
Si       4.11298381       1.37140954       4.11276409      -0.00126004      -0.00435455      -0.00071431
Si       1.37205117       4.11263192       4.11249489      -0.00446812      -0.00096658      -0.00051015
Si       0.00054755       0.00028741       5.49282251       0.00083835       0.00039015      -0.00008318
Si       2.74448925       2.74414726       5.49381602       0.00043552       0.00022080       0.00243891
Si       2.70819917      -0.01477682       8.27724478      -0.00011194       0.00124940       0.00026005
Si      -0.01480383       2.70602708       8.27949788       0.00168629       0.00050496      -0.00053702
Si       1.37193612       1.37185571       6.87800297       0.00115252       0.00159865      -0.00074009
Si       4.11885204       4.11822942       6.86797686       0.00255969       0.00295905      -0.00229856
Si       4.10797459       1.37145161       9.61424346       0.00128336       0.00168470      -0.00177001
Si       1.37170592       4.10775992       9.61407279       0.00131722       0.00119599      -0.00187694
Si       0.00054616       5.49294134       0.00001084       0.00083557       0.00043599      -0.00007948
Si       2.70888309       8.27643446      -0.01412847      -0.00042611       0.00072073       0.00030237
Si       2.74496133       5.49348394       2.74423023       0.00030094       0.00308530      -0.00039673
Si      -0.01409747       8.28090791       2.70459055       0.00101236      -0.00092576       0.00091991
Si       1.37228950       6.87750459       1.37209276       0.00079554      -0.00023393       0.00175321
Si       4.10861599       9.61418040       1.37151264       0.00069188      -0.00161956       0.00157922
Si       4.11923281       6.86827776       4.11796297       0.00190179      -0.00278779       0.00319063
Si       1.37204702       9.61383239       4.10824342       0.00088969      -0.00183659       0.00046750
Si       0.00047753       5.49440882       5.49280349       0.00250357      -0.00124786      -0.00010633
Si       2.74466409       8.24209826       5.49266616       0.00056574      -0.00026701      -0.00353865
Si       2.74421147       5.49233715       8.24216394       0.00079842      -0.00310253      -0.00072927
Si       0.01297753       8.27533686       8.27547443       0.00150276       0.00123566       0.00109158
Si       1.37206603       6.87469040       6.87457879      -0.00482897       0.00023158       0.00037010
Si       4.11198007       9.61554867       6.87390542      -0.00085249       0.00483305       0.00052839
Si       4.11177743       6.87420459       9.61485774      -0.00066434       0.00033508       0.00485311
Si       1.26561349       9.71525697       9.71703678       0.00068563       0.00307449       0.00164889
Si       5.49305419       0.00026913       0.00000709       0.00108069       0.00038734      -0.00010413
Si       8.27782443       2.70743036      -0.01346619       0.00027553      -0.00004378      -0.00031796
Si       8.28005458      -0.01341570       2.70530436      -0.00054083       0.00000279       0.00064382
Si       5.49316069       2.74508272       2.74470944       0.00365440      -0.00045650      -0.00059204
Si       6.87698783       1.37255275       1.37244922       0.00022275       0.00089665       0.00135538
Si       9.61397392       4.10902395       1.37182277      -0.00147451      -0.00007612       0.00107819
Si       9.61378738       1.37211154       4.10885897      -0.00164429       0.00081518      -0.00010426
Si       6.86855620       4.11900342       4.11834931      -0.00326810       0.00195083       0.00245581
Si       5.49600426       0.00025637       5.49279879      -0.00240834       0.00106194      -0.00002325
Si       8.24231167       2.74456708       5.49340686       0.00030086      -0.00031189      -0.00323429
Si       8.27724962       0.01289350       8.27752746       0.00053948       0.00109971       0.00035037
Si       5.49289152       2.74361059       8.24241414      -0.00309408       0.00072823      -0.00088682
Si       6.87607205       1.37148886       6.87575418      -0.00042127      -0.00535767      -0.00004287
Si       9.61624741       4.11057096       6.87519994       0.00512723      -0.00022004       0.00011489
Si       9.71935220       1.26106274       9.72302943       0.00154168       0.00256406      -0.00140253
Si       6.87584370       4.11021551       9.61481889      -0.00037895       0.00012071       0.00538401
Si       5.49600399       5.49440549       0.00003633      -0.00232818      -0.00122721      -0.00032582
Si       8.27942171       8.27957302       0.01280587      -0.00029846      -0.00035880       0.00086209
Si       8.24257168       5.49392442       2.74389375       0.00030345      -0.00309842      -0.00018210
Si       5.49370612       8.24259320       2.74343957      -0.00304084      -0.00022386       0.00018955
Si       6.87735372       6.87715527       1.37082655      -0.00103798      -0.00061407      -0.00579609
Si       9.72540619       9.72729407       1.25664807      -0.00150036      -0.00303071       0.00438107
Si       9.61621884       6.87681019       4.10895172       0.00567199      -0.00061779       0.00054133
Si       6.87715344       9.61550574       4.10879381      -0.00101157       0.00576513       0.00065425
Si       5.49333766       5.49309681       5.49284051      -0.00044804      -0.00031955      -0.00035444
Si       8.24212481       8.24169074       5.49142775       0.00084060       0.00078911       0.00320700
Si       8.24184655       5.49196092       8.24100575       0.00086397       0.00312864       0.00080289
Si       5.49242489       8.24110627       8.24072204       0.00348387       0.00090577       0.00080208
Si       6.86824904       6.86754888       6.86687957      -0.00318952      -0.00230130      -0.00182508
Si       9.61367751       9.61357739       6.87617067      -0.00125244      -0.00085104       0.00079577
Si       9.61346986       6.87629940       9.61327518      -0.00133839       0.00088651      -0.00057673
Si       6.87637726       9.61313637       9.61303268       0.00092287      -0.00104276      -0.00066101
