65
Lattice="10.982908742188398 0.0 0.0 0.0 10.982908742188398 0.0 0.0 0.0 10.982908742188398" Properties=species:S:1:pos:R:3:forces:R:3 cutoff=-1.0 nneightol=1.2 Zs=14 interstitial_position="mean 1 3 4 5 7 18" interstitial_constraint="plane atoms 4 5 7" bulk_struct_test=bulk_Si_diamond supercell_a1_in_bulk_lattice_coords="2 2 -2" n_minim_iter=0 energy=-10602.288267683249 stress="0.0007422589412784423 -0.0026402395613590525 0.0026402390708338275 -0.0026402395613590525 0.0007422589513716685 -0.002640239561359952 0.0026402390708338275 -0.002640239561359952 0.0007422589412741731" pbc="T T T"
Si       0.00000000       0.00000000       0.00000000      -0.23174404      -0.07628842      -0.23174404
Si       2.74572719       2.74572719       0.00000000       0.09700574      -0.09700585      -1.93385336
Si       2.74572719       0.00000000       2.74572719       0.03886270      -0.10573549       0.03886270
Si       0.00000000       2.74572719       2.74572719      -1.93385336      -0.09700585       0.09700574
Si       1.37286359       1.37286359       1.37286359      -0.09700581      -1.93385338      -0.09700581
Si       4.11859077       4.11859077       1.37286359       1.93385343       0.09700586      -0.09700581
Si       4.11859077       1.37286359       4.11859077      -0.08147015       0.08147021      -0.08147015
Si       1.37286359       4.11859077       4.11859077      -0.09700581       0.09700586       1.93385343
Si       0.00000000       0.00000000       5.49145437       0.04499162      -0.02340301       0.02340302
Si       2.74572719       2.74572719       5.49145437       0.03886271      -0.03886284       0.10573551
Si       2.74572719       0.00000000       8.23718155      -0.08680531       0.01283927      -0.00985016
Si       0.00000000       2.74572719       8.23718155       0.00853334      -0.04189854      -0.01078426
Si       1.37286359       1.37286359       6.86431796      -0.04189848       0.00853333       0.01078426
Si       4.11859077       4.11859077       6.86431796      -0.00853327       0.04189854       0.01078426
Si       4.11859077       1.37286359       9.61004515       0.23174410      -0.23174404      -0.07628842
Si       1.37286359       4.11859077       9.61004515      -0.03886278       0.03886284      -0.10573549
Si       0.00000000       5.49145437       0.00000000       0.08147022      -0.08147021       0.08147022
Si       2.74572719       8.23718155       0.00000000       0.04189840       0.01078426       0.00853334
Si       2.74572719       5.49145437       2.74572719       0.09700574       1.93385337       0.09700574
Si       0.00000000       8.23718155       2.74572719       0.00853334       0.01078426       0.04189840
Si       1.37286359       6.86431796       1.37286359      -0.03886278       0.10573550      -0.03886278
Si       4.11859077       9.61004515       1.37286359      -0.00853327      -0.01078426      -0.04189848
Si       4.11859077       6.86431796       4.11859077       0.23174410       0.07628841       0.23174410
Si       1.37286359       9.61004515       4.11859077      -0.04189848      -0.01078426      -0.00853327
Si       0.00000000       5.49145437       5.49145437      -0.23174404       0.23174405       0.07628843
Si       2.74572719       8.23718155       5.49145437      -0.08680531       0.00985016      -0.01283926
Si       2.74572719       5.49145437       8.23718155       0.04189840      -0.00853333      -0.01078426
Si       0.00000000       8.23718155       8.23718155      -0.03079982       0.00489719      -0.00489719
Si       1.37286359       6.86431796       6.86431796       0.08680523      -0.01283927       0.00985016
Si       4.11859077       9.61004515       6.86431796       0.03079989      -0.00489719       0.00489719
Si       4.11859077       6.86431796       9.61004515      -0.04499155       0.02340301      -0.02340301
Si       1.37286359       9.61004515       9.61004515       0.08680523      -0.00985016       0.01283927
Si       5.49145437       0.00000000       0.00000000       0.02340302      -0.02340301       0.04499162
Si       8.23718155       2.74572719       0.00000000      -0.01078426      -0.04189854       0.00853334
Si       8.23718155       0.00000000       2.74572719      -0.00985016       0.01283927      -0.08680531
Si       5.49145437       2.74572719       2.74572719       0.10573551      -0.03886284       0.03886271
Si       6.86431796       1.37286359       1.37286359       0.01078426       0.00853333      -0.04189848
Si       9.61004515       4.11859077       1.37286359      -0.10573549       0.03886284      -0.03886278
Si       9.61004515       1.37286359       4.11859077      -0.07628842      -0.23174404       0.23174410
Si       6.86431796       4.11859077       4.11859077       0.01078426       0.04189854      -0.00853327
Si       5.49145437       0.00000000       5.49145437       0.00404090      -0.00404089       0.00404090
Si       8.23718155       2.74572719       5.49145437      -0.00985015       0.08680517      -0.01283926
Si       8.23718155       0.00000000       8.23718155       0.01012527      -0.00793393       0.01012527
Si       5.49145437       2.74572719       8.23718155      -0.01283926       0.08680517      -0.00985015
Si       6.86431796       1.37286359       6.86431796       0.00489719      -0.03079983       0.00489719
Si       9.61004515       4.11859077       6.86431796       0.01283927      -0.08680517       0.00985016
Si       9.61004515       1.37286359       9.61004515      -0.02340301       0.04499161      -0.02340301
Si       6.86431796       4.11859077       9.61004515       0.00985016      -0.08680517       0.01283927
Si       5.49145437       5.49145437       0.00000000       0.07628843       0.23174405      -0.23174404
Si       8.23718155       8.23718155       0.00000000      -0.00489719       0.00489719      -0.03079982
Si       8.23718155       5.49145437       2.74572719      -0.01078426      -0.00853333       0.04189840
Si       5.49145437       8.23718155       2.74572719      -0.01283926       0.00985016      -0.08680531
Si       6.86431796       6.86431796       1.37286359       0.00985016      -0.01283927       0.08680523
Si       9.61004515       9.61004515       1.37286359       0.01283927      -0.00985016       0.08680523
Si       9.61004515       6.86431796       4.11859077      -0.02340301       0.02340301      -0.04499155
Si       6.86431796       9.61004515       4.11859077       0.00489719      -0.00489719       0.03079989
Si       5.49145437       5.49145437       5.49145437       0.02340302      -0.04499161       0.02340302
Si       8.23718155       8.23718155       5.49145437       0.01012527      -0.01012527       0.00793393
Si       8.23718155       5.49145437       8.23718155      -0.00489719       0.03079983      -0.00489719
Si       5.49145437       8.23718155       8.23718155       0.00793393      -0.01012527       0.01012527
Si       6.86431796       6.86431796       6.86431796      -0.01012527       0.00793393      -0.01012527
Si       9.61004515       9.61004515       6.86431796      -0.00793393       0.01012527      -0.01012527
Si       9.61004515       6.86431796       9.61004515      -0.00404089       0.00404089      -0.00404089
Si       6.86431796       9.61004515       9.61004515      -0.01012527       0.01012527      -0.00793393
Si       2.05929539       3.43215898       2.05929539      -0.00000001      -0.00000002      -0.00000001
