4
Lattice="1.9279029463492698 -3.339225855138672 -1.7374633385136378e-17 1.92790294634927 3.339225855138672 1.7374633385136378e-17 7.947560084907703e-34 3.28936272000449e-17 6.335632708568415" Properties=species:S:1:pos:R:3 cutoff=-1.0 nneightol=1.2 n_minim_iter=2 stress="0.00041345730545739147 5.831255102421202e-17 -3.187326935356781e-17 5.831255102421202e-17 0.00041345730545791005 -1.103155773232229e-16 -3.187326935356781e-17 -1.103155773232229e-16 -0.00038071158881171596" pbc="T T T"
Si       1.92790295       1.11307529       0.39526567
Si       1.92790295      -1.11307529       3.56308202
Si       1.92790295       1.11307529       2.77255069
Si       1.92790295      -1.11307529      -0.39526567
