1
Lattice="2.660561198719322 1.0695171935138004e-17 6.263479293430698e-51 1.3302805993596607 2.304113586414111 -5.622200091615632e-51 4.188790080470782e-51 2.748902069254639e-50 2.4819144333462653" Properties=species:S:1:pos:R:3 cutoff=-1.0 nneightol=1.2 n_minim_iter=4 stress="0.0011256420747906496 1.8542294438001587e-16 3.1894993280571597e-18 1.8542294438001587e-16 0.0011256420747901826 3.075471025977318e-17 3.1894993280571597e-18 3.075471025977318e-17 0.005073887668955334" pbc="T T T"
Si       0.00000000       0.00000000       0.00000000
