18
Lattice="0.0 -2.7481480793779314 2.7481480793779314 2.7481480793779314 -2.7481480793779314 0.0 22.097386294863142 22.097386294863142 22.097386294863142" Properties=species:S:1:pos:R:3:travel:I:3:map_shift:I:3:n_neighb:I:1:orig_index:I:1:forces:R:3 cutoff=2.0 nneightol=1.2 bulk_struct_test=bulk_Si_diamond supercell_a1_in_bulk_lattice_coords="1 -1 0" n_minim_iter=0 energy=-2934.768416555263 stress="0.002064776236188726 -0.0010247776482669568 -0.001024777648266727 -0.0010247776482669568 0.0020647762361887573 -0.001024777648267356 -0.001024777648266727 -0.001024777648267356 0.002064776236188643" free_energy=-2934.768416555263 pbc="T T T"
Si       0.04407899       0.04407899       0.04407899        0        0        0        0        0        0       21        1       0.00065349       0.00065349       0.00065349
Si       1.41188731       1.41188731       1.41188731        0        0        0        0        0        0       21        2      -0.00250965      -0.00250965      -0.00250965
Si       2.77706213       0.02891405       2.77706213        0       -1        0        0        0        0       20        3       0.00175073       0.00175073       0.00175073
Si      -1.21165891      -3.95980699      -1.21165891        0       -1        1        0        0        0       20        4       0.00056117       0.00056117       0.00056117
Si      -2.69049809       0.05764999      -2.69049809        1       -1        1        0        0        0       20        5      -0.00120078      -0.00120078      -0.00120078
Si      -1.31069497       1.43745310      -1.31069497        1       -1        1        0        0        0       20        6       0.00113877       0.00113877       0.00113877
Si       5.49201917       5.49201917       5.49201917        0        0        0        0        0        0       21        1      -0.00041886      -0.00041886      -0.00041886
Si       6.85802972       6.85802972       6.85802972        0        0        0        0        0        0       21        2       0.00002988       0.00002988       0.00002988
Si       8.22343931       5.47529123       8.22343931        0       -1        0        0        0        0       20        3       0.00030366       0.00030366       0.00030366
Si       4.14322705       1.39507897       4.14322705        0       -1        1        0        0        0       20        4      -0.00030366      -0.00030366      -0.00030366
Si       2.76048855       5.50863663       2.76048855        1       -1        1        0        0        0       20        5      -0.00002988      -0.00002988      -0.00002988
Si       4.12649911       6.87464719       4.12649911        1       -1        1        0        0        0       20        6       0.00041886       0.00041886       0.00041886
Si      10.92921325      10.92921325      10.92921325        0        0        0        0        0        0       21        1      -0.00113877      -0.00113877      -0.00113877
Si      12.30901637      12.30901637      12.30901637        0        0        0        0        0        0       21        2       0.00120078       0.00120078       0.00120078
Si      13.57832527      10.83017719      13.57832527        0       -1        0        0        0        0       20        3      -0.00056117      -0.00056117      -0.00056117
Si       9.58960423       6.84145615       9.58960423        0       -1        1        0        0        0       20        4      -0.00175073      -0.00175073      -0.00175073
Si       8.20663096      10.95477904       8.20663096        1       -1        1        0        0        0       20        5       0.00250965       0.00250965       0.00250965
Si       9.57443929      12.32258736       9.57443929        1       -1        1        0        0        0       20        6      -0.00065349      -0.00065349      -0.00065349
