65
Lattice="10.981539187727403 0.0 0.0 0.0 10.981539187727403 0.0 0.0 0.0 10.981539187727403" Properties=species:S:1:pos:R:3:forces:R:3 cutoff=-1.0 nneightol=1.2 Zs=14 interstitial_position="mean 4 5 6 7" bulk_struct_test=bulk_Si_diamond supercell_a1_in_bulk_lattice_coords="2 2 -2" n_minim_iter=0 energy=-10602.65646124856 stress="0.0010674633784368622 -2.6623163905536893e-10 -2.643283308027562e-10 -2.6623163905536893e-10 0.001067463378431368 -2.643283022572533e-10 -2.643283308027562e-10 -2.643283022572533e-10 0.0010674633787555229" pbc="T T T"
Si       0.00000000       0.00000000       0.00000000      -0.23624346      -0.23624346      -0.23624346
Si       2.74538480       2.74538480       0.00000000      -0.00000006      -0.00000006      -0.61819736
Si       2.74538480       0.00000000       2.74538480      -0.00000006      -0.61819736      -0.00000006
Si       0.00000000       2.74538480       2.74538480      -0.61819736      -0.00000006      -0.00000006
Si       1.37269240       1.37269240       1.37269240      -0.60403722      -0.60403722      -0.60403722
Si       4.11807719       4.11807719       1.37269240       0.60403727       0.60403727      -0.60403722
Si       4.11807719       1.37269240       4.11807719       0.60403727      -0.60403722       0.60403727
Si       1.37269240       4.11807719       4.11807719      -0.60403722       0.60403727       0.60403727
Si       0.00000000       0.00000000       5.49076959      -0.02777134      -0.02777134       0.02777135
Si       2.74538480       2.74538480       5.49076959      -0.00000006      -0.00000006       0.61819736
Si       2.74538480       0.00000000       8.23615439      -0.00000007       0.01736772      -0.00000000
Si       0.00000000       2.74538480       8.23615439       0.01736772      -0.00000007      -0.00000000
Si       1.37269240       1.37269240       6.86346199      -0.08844017      -0.08844017       0.04014012
Si       4.11807719       4.11807719       6.86346199       0.08844022       0.08844022       0.04014012
Si       4.11807719       1.37269240       9.60884679       0.08844022      -0.08844017      -0.04014012
Si       1.37269240       4.11807719       9.60884679      -0.08844017       0.08844022      -0.04014012
Si       0.00000000       5.49076959       0.00000000      -0.02777134       0.02777135      -0.02777134
Si       2.74538480       8.23615439       0.00000000      -0.00000007      -0.00000000       0.01736772
Si       2.74538480       5.49076959       2.74538480      -0.00000006       0.61819736      -0.00000006
Si       0.00000000       8.23615439       2.74538480       0.01736772      -0.00000000      -0.00000007
Si       1.37269240       6.86346199       1.37269240      -0.08844017       0.04014012      -0.08844017
Si       4.11807719       9.60884679       1.37269240       0.08844022      -0.04014012      -0.08844017
Si       4.11807719       6.86346199       4.11807719       0.08844022       0.04014012       0.08844022
Si       1.37269240       9.60884679       4.11807719      -0.08844017      -0.04014012       0.08844022
Si       0.00000000       5.49076959       5.49076959      -0.23624346       0.23624347       0.23624347
Si       2.74538480       8.23615439       5.49076959      -0.00000007       0.00000000      -0.01736771
Si       2.74538480       5.49076959       8.23615439      -0.00000007      -0.01736771       0.00000000
Si       0.00000000       8.23615439       8.23615439      -0.02419559       0.00000000       0.00000000
Si       1.37269240       6.86346199       6.86346199       0.04714894       0.01093766       0.01093766
Si       4.11807719       9.60884679       6.86346199      -0.04714888      -0.01093766       0.01093766
Si       4.11807719       6.86346199       9.60884679      -0.04714888       0.01093766      -0.01093766
Si       1.37269240       9.60884679       9.60884679       0.04714894      -0.01093766      -0.01093766
Si       5.49076959       0.00000000       0.00000000       0.02777135      -0.02777134      -0.02777134
Si       8.23615439       2.74538480       0.00000000      -0.00000000      -0.00000007       0.01736772
Si       8.23615439       0.00000000       2.74538480      -0.00000000       0.01736772      -0.00000007
Si       5.49076959       2.74538480       2.74538480       0.61819736      -0.00000006      -0.00000006
Si       6.86346199       1.37269240       1.37269240       0.04014012      -0.08844017      -0.08844017
Si       9.60884679       4.11807719       1.37269240      -0.04014012       0.08844022      -0.08844017
Si       9.60884679       1.37269240       4.11807719      -0.04014012      -0.08844017       0.08844022
Si       6.86346199       4.11807719       4.11807719       0.04014012       0.08844022       0.08844022
Si       5.49076959       0.00000000       5.49076959       0.23624347      -0.23624346       0.23624347
Si       8.23615439       2.74538480       5.49076959       0.00000000      -0.00000007      -0.01736771
Si       8.23615439       0.00000000       8.23615439       0.00000000      -0.02419559       0.00000000
Si       5.49076959       2.74538480       8.23615439      -0.01736771      -0.00000007       0.00000000
Si       6.86346199       1.37269240       6.86346199       0.01093766       0.04714894       0.01093766
Si       9.60884679       4.11807719       6.86346199      -0.01093766      -0.04714888       0.01093766
Si       9.60884679       1.37269240       9.60884679      -0.01093766       0.04714894      -0.01093766
Si       6.86346199       4.11807719       9.60884679       0.01093766      -0.04714888      -0.01093766
Si       5.49076959       5.49076959       0.00000000       0.23624347       0.23624347      -0.23624346
Si       8.23615439       8.23615439       0.00000000       0.00000000       0.00000000      -0.02419559
Si       8.23615439       5.49076959       2.74538480       0.00000000      -0.01736771      -0.00000007
Si       5.49076959       8.23615439       2.74538480      -0.01736771       0.00000000      -0.00000007
Si       6.86346199       6.86346199       1.37269240       0.01093766       0.01093766       0.04714894
Si       9.60884679       9.60884679       1.37269240      -0.01093766      -0.01093766       0.04714894
Si       9.60884679       6.86346199       4.11807719      -0.01093766       0.01093766      -0.04714888
Si       6.86346199       9.60884679       4.11807719       0.01093766      -0.01093766      -0.04714888
Si       5.49076959       5.49076959       5.49076959       0.02777135       0.02777135       0.02777135
Si       8.23615439       8.23615439       5.49076959       0.00000000       0.00000000       0.02419560
Si       8.23615439       5.49076959       8.23615439       0.00000000       0.02419560       0.00000000
Si       5.49076959       8.23615439       8.23615439       0.02419560       0.00000000       0.00000000
Si       6.86346199       6.86346199       6.86346199      -0.01174399      -0.01174399      -0.01174399
Si       9.60884679       9.60884679       6.86346199       0.01174399       0.01174399      -0.01174399
Si       9.60884679       6.86346199       9.60884679       0.01174399      -0.01174399       0.01174399
Si       6.86346199       9.60884679       9.60884679      -0.01174399       0.01174399       0.01174399
Si       2.74538479       2.74538479       2.74538479      -0.00000001      -0.00000001      -0.00000001
