4
Lattice="3.875886509179124 -5.747963756815996e-67 2.374432116057147e-68 -8.400870106115685e-67 3.875886509179124 -7.28236376146585e-51 -5.461772821099388e-50 5.097654633026095e-50 3.875886509179124" Properties=species:S:1:pos:R:3:forces:R:3 n_minim_iter=2 energy=-650.3426032628093 stress="0.0018685097839410234 -2.3164208489483148e-17 -1.7473708397532946e-17 -2.3164208489483148e-17 0.001868509783941004 4.4019444428567655e-17 -1.7473708397532946e-17 4.4019444428567655e-17 0.001868509783940938" free_energy=-650.3426032628093 pbc="T T T"
Si       0.00000000       0.00000000       0.00000000      -0.00000000      -0.00000000      -0.00000000
Si       1.93794325       1.93794325      -0.00000000       0.00000000       0.00000000      -0.00000000
Si       1.93794325       0.00000000       1.93794325       0.00000000      -0.00000000       0.00000000
Si      -0.00000000       1.93794325       1.93794325      -0.00000000       0.00000000      -0.00000000
