63
Lattice="10.982754685698184 0.0 0.0 0.0 10.982754685698184 0.0 0.0 0.0 10.982754685698184" Properties=species:S:1:pos:R:3:forces:R:3 cutoff=-1.0 nneightol=1.2 vacancies=0 relax_radial_0=0.13 relax_symm_break_0=0.01 bulk_struct_test=bulk_Si_diamond supercell_a1_in_bulk_lattice_coords="2 2 -2" n_minim_iter=0 pbc="T T T"
Si       2.70747542       2.70751683       0.00922954      -0.00227982      -0.00232501      -0.00390607
Si       2.70811119       0.00860497       2.70823363      -0.00295497      -0.00283200      -0.00306313
Si       0.00806948       2.70866965       2.70875064      -0.00183664      -0.00365734      -0.00372046
Si       1.27125533       1.27249832       1.27400899      -0.00393403      -0.00461091      -0.00553118
Si       4.10923774       4.10913777       1.36781316       0.00265205       0.00259606      -0.00442051
Si       4.10897773       1.36847895       4.10876659       0.00301811      -0.00384808       0.00294610
Si       1.36911451       4.10857370       4.10846245      -0.00328336       0.00329998       0.00328346
Si       0.00070882       0.00035350       5.49138609      -0.00063648      -0.00031436       0.00000969
Si       2.74360329       2.74320230       5.48875881       0.00053514       0.00088869       0.00259755
Si       2.70553549      -0.00916953       8.27712413      -0.00132998       0.00417136       0.00141020
Si      -0.00915529       2.70346525       8.27923578       0.00444789      -0.00035680       0.00039175
Si       1.37215333       1.37202243       6.87349100      -0.00001508       0.00063592       0.00199318
Si       4.11803645       4.11744696       6.86588861      -0.00145741      -0.00125428       0.00111069
Si       4.10955023       1.37167887       9.61120869      -0.00099769      -0.00033660      -0.00017008
Si       1.37197004       4.10938726       9.61104852      -0.00044519      -0.00152342      -0.00071332
Si       0.00070896       5.49144929       0.00000282      -0.00063744       0.00050474      -0.00001131
Si       2.70625649       8.27629430      -0.00849814      -0.00205519       0.00219678       0.00309420
Si       2.74410380       5.48842685       2.74327775      -0.00024826       0.00319270       0.00048338
Si      -0.00841408       8.28050307       2.70217013       0.00365579       0.00016430      -0.00013117
Si       1.37252355       6.87295310       1.37225075      -0.00078878       0.00261389       0.00056926
Si       4.11014895       9.61118794       1.37170315      -0.00121680       0.00053343      -0.00098881
Si       4.11835294       6.86622227       4.11713015      -0.00163752       0.00089325      -0.00107751
Si       1.37231614       9.61084804       4.10987810      -0.00119302      -0.00062317      -0.00220591
Si       0.00075410       5.49292059       5.49135297       0.00049196      -0.00085236      -0.00000616
Si       2.74385251       8.24018841       5.49472865      -0.00001893      -0.00105075      -0.00279389
Si       2.74336478       5.49441990       8.24022303       0.00075608      -0.00219313      -0.00144211
Si       0.00742595       8.27521667       8.27532538      -0.00114132       0.00360007       0.00353846
Si       1.36920121       6.87582536       6.87569017      -0.00352824      -0.00436700      -0.00435284
Si       4.10809601       9.61555898       6.87489643       0.00336030       0.00515363      -0.00326408
Si       4.10787635       6.87525105       9.61485886       0.00374836      -0.00366769       0.00460647
Si       1.26581493       9.71267229       9.71437145      -0.00159664       0.00405934       0.00298602
Si       5.49152146       0.00035378       0.00000281       0.00101455      -0.00031628      -0.00001127
Si       8.27750973       2.70495778      -0.00780805       0.00201684      -0.00188078       0.00237126
Si       8.27960768      -0.00773817       2.70294077       0.00099767       0.00265866      -0.00092509
Si       5.48809988       2.74420301       2.74377803       0.00370170      -0.00071635      -0.00033791
Si       6.87240382       1.37276398       1.37262191       0.00314365      -0.00086048      -0.00015313
Si       9.61103073       4.11055699       1.37200238       0.00067818      -0.00193245      -0.00163460
Si       9.61085123       1.37232425       4.11044917       0.00006374      -0.00173052      -0.00239549
Si       6.86656641       4.11805907       4.11742585       0.00069262      -0.00155634      -0.00120018
Si       5.49446558       0.00037716       5.49135299      -0.00168221       0.00024509      -0.00000662
Si       8.24045615       2.74366890       5.49544782      -0.00084978      -0.00024528      -0.00292457
Si       8.27694981       0.00727127       8.27718321       0.00276042      -0.00141486       0.00265925
Si       5.49488168       2.74271915       8.24046776      -0.00179575       0.00132752      -0.00166272
Si       6.87711494       1.36864293       6.87680821      -0.00514454      -0.00440745      -0.00509448
Si       9.61621937       4.10675851       6.87613405       0.00596117       0.00397203      -0.00393149
Si       9.71655031       1.26136949       9.72005969       0.00275199       0.00018116       0.00053525
Si       6.87684414       4.10635487       9.61478124      -0.00477992       0.00476913       0.00492260
Si       5.49446563       5.49292069       0.00003164      -0.00167748      -0.00084294      -0.00011669
Si       8.27896406       8.27908877       0.00715443       0.00178405       0.00174463      -0.00170278
Si       8.24073288       5.49590376       2.74296761      -0.00110013      -0.00255756       0.00037477
Si       5.49564646       8.24070971       2.74250552      -0.00202899      -0.00151892       0.00117244
Si       6.87832190       6.87815032       1.36804267      -0.00584611      -0.00581086      -0.00537764
Si       9.72241489       9.72422558       1.25701445       0.00019830      -0.00095189       0.00183201
Si       9.61615299       6.87773428       4.10518222       0.00636140      -0.00500692       0.00501671
Si       6.87809036       9.61541524       4.10499762      -0.00545372       0.00586960       0.00542787
Si       5.49206067       5.49171869       5.49137993      -0.00069317      -0.00034258      -0.00008074
Si       8.24027319       8.23978803       5.48660312      -0.00028028       0.00009887       0.00300152
Si       8.23998366       5.48703564       8.23904583      -0.00002199       0.00336191       0.00073876
Si       5.48742771       8.23921572       8.23876289       0.00373986       0.00059841       0.00098304
Si       6.86629041       6.86565065       6.86500071       0.00076843       0.00109138       0.00148722
Si       9.61072997       9.61058788       6.87178180       0.00128508       0.00178543       0.00256564
Si       9.61052653       6.87184251       9.61023831       0.00069672       0.00296566       0.00185582
Si       6.87186429       9.61015218       9.61000614       0.00330488       0.00073173       0.00138939
