18
Lattice="0.0 -2.7464073716425044 2.7464073716425044 2.7464073716425044 -2.7464073716425044 0.0 22.083389563193247 22.083389563193247 22.083389563193247" Properties=species:S:1:pos:R:3:travel:I:3:map_shift:I:3:n_neighb:I:1:orig_index:I:1:forces:R:3 cutoff=2.0 nneightol=1.2 bulk_struct_test=bulk_Si_diamond supercell_a1_in_bulk_lattice_coords="1 -1 0" n_minim_iter=0 pbc="T T T"
Si       0.04113090       0.04113090       0.04113090        0        0        0        0        0        0       21        1       0.00055255       0.00055255       0.00055255
Si       1.40855852       1.40855852       1.40855852        0        0        0        0        0        0       21        2      -0.00072390      -0.00072390      -0.00072390
Si       2.77358042       0.02717304       2.77358042        0       -1        0        0        0        0       20        3       0.00014375       0.00014375       0.00014375
Si      -1.22131901      -3.96772638      -1.22131901        0       -1        1        0        0        0       20        4       0.00036783       0.00036783       0.00036783
Si      -2.69540194       0.05100543      -2.69540194        1       -1        1        0        0        0       20        5      -0.00073891      -0.00073891      -0.00073891
Si      -1.31479700       1.43161037      -1.31479700        1       -1        1        0        0        0       20        6       0.00025962       0.00025962       0.00025962
Si       5.48888951       5.48888951       5.48888951        0        0        0        0        0        0       21        1      -0.00348641      -0.00348641      -0.00348641
Si       6.85411905       6.85411905       6.85411905        0        0        0        0        0        0       21        2       0.00418555       0.00418555       0.00418555
Si       8.21949844       5.47309107       8.21949844        0       -1        0        0        0        0       20        3      -0.00088352      -0.00088352      -0.00088352
Si       4.13933473       1.39292736       4.13933473        0       -1        1        0        0        0       20        4       0.00088352       0.00088352       0.00088352
Si       2.75830675       5.50471412       2.75830675        1       -1        1        0        0        0       20        5      -0.00418555      -0.00418555      -0.00418555
Si       4.12353629       6.86994366       4.12353629        1       -1        1        0        0        0       20        6       0.00348641       0.00348641       0.00348641
Si      10.92722280      10.92722280      10.92722280        0        0        0        0        0        0       21        1      -0.00025962      -0.00025962      -0.00025962
Si      12.30782774      12.30782774      12.30782774        0        0        0        0        0        0       21        2       0.00073891       0.00073891       0.00073891
Si      13.58015218      10.83374481      13.58015218        0       -1        0        0        0        0       20        3      -0.00036783      -0.00036783      -0.00036783
Si       9.58525276       6.83884538       9.58525276        0       -1        1        0        0        0       20        4      -0.00014375      -0.00014375      -0.00014375
Si       8.20386728      10.95027465       8.20386728        1       -1        1        0        0        0       20        5       0.00072390       0.00072390       0.00072390
Si       9.57129490      12.31770227       9.57129490        1       -1        1        0        0        0       20        6      -0.00055255      -0.00055255      -0.00055255
