2
Lattice="4.809986007616315 8.610774868131505e-18 1.788596256073607e-16 8.610774868131156e-18 4.809986007616314 -2.326335978262282e-16 2.4049930038081575 2.404993003808157 1.3261191408684236" Properties=species:S:1:pos:R:3:forces:R:3 cutoff=-1.0 nneightol=1.2 n_minim_iter=2 energy=-325.713165760874 stress="-0.0012761676752567608 2.068677490740615e-17 -2.637839545696304e-16 2.068677490740615e-17 -0.001276167675257925 1.9412372759600578e-16 -2.637839545696304e-16 1.9412372759600578e-16 -0.0014434393540533387" free_energy=-325.713165760874 pbc="T T T"
Si      -0.00000000      -1.20249650      -0.33152979       0.00000000      -0.00000000      -0.00000000
Si      -0.00000000       1.20249650       0.33152979      -0.00000000       0.00000000       0.00000000
