2
Lattice="4.810237310512116 4.870565280245237e-17 1.414037994083224e-16 4.870565280245134e-17 4.810237310512116 -3.08974655380785e-16 2.405118655256058 2.405118655256058 1.326323321459581" Properties=species:S:1:pos:R:3 cutoff=-1.0 nneightol=1.2 n_minim_iter=2 stress="-0.0013754079364070044 6.627065479537737e-17 3.310288219652101e-17 6.627065479537737e-17 -0.0013754079364068016 3.158906514826186e-17 3.310288219652101e-17 3.158906514826186e-17 -0.0013515384327664989" pbc="T T T"
Si      -0.00000000      -1.20255933      -0.33158083
Si      -0.00000000       1.20255933       0.33158083
