64
Lattice="10.908168980085632 0.0 0.0 0.0 10.908168980085632 0.0 0.0 0.0 10.908168980085632" Properties=species:S:1:pos:R:3:forces:R:3 cutoff=-1.0 nneightol=1.2 Zs=14 interstitial_position="mean 4 5 6 7" bulk_struct_test=bulk_Si_diamond supercell_a1_in_bulk_lattice_coords="2 2 -2" n_minim_iter=0 energy=-10443.31399322069 stress="-0.0019129334987645914 -2.8812593497567143e-10 -2.881259864797101e-10 -2.8812593497567143e-10 -0.0019129334987645888 -2.8812598705173964e-10 -2.881259864797101e-10 -2.8812598705173964e-10 -0.0019129334987645801" pbc="T T T"
Si       0.00000000       0.00000000       0.00000000      -0.00000000      -0.00000000      -0.00000000
Si       2.72704225       2.72704225       0.00000000      -0.00000007      -0.00000007      -0.00000000
Si       2.72704225       0.00000000       2.72704225      -0.00000007      -0.00000000      -0.00000007
Si       0.00000000       2.72704225       2.72704225      -0.00000000      -0.00000007      -0.00000007
Si       1.36352112       1.36352112       1.36352112      -0.00000001      -0.00000001      -0.00000001
Si       4.09056336       4.09056336       1.36352112       0.00000007       0.00000007      -0.00000001
Si       4.09056336       1.36352112       4.09056336       0.00000007      -0.00000001       0.00000007
Si       1.36352112       4.09056336       4.09056336      -0.00000001       0.00000007       0.00000007
Si       0.00000000       0.00000000       5.45408449      -0.00000000      -0.00000000       0.00000001
Si       2.72704225       2.72704225       5.45408449      -0.00000007      -0.00000007       0.00000001
Si       2.72704225       0.00000000       8.18112673      -0.00000007      -0.00000000       0.00000000
Si       0.00000000       2.72704225       8.18112673      -0.00000000      -0.00000007       0.00000000
Si       1.36352112       1.36352112       6.81760561      -0.00000001      -0.00000001       0.00000000
Si       4.09056336       4.09056336       6.81760561       0.00000007       0.00000007       0.00000000
Si       4.09056336       1.36352112       9.54464786       0.00000007      -0.00000001      -0.00000000
Si       1.36352112       4.09056336       9.54464786      -0.00000001       0.00000007      -0.00000000
Si       0.00000000       5.45408449       0.00000000      -0.00000000       0.00000001      -0.00000000
Si       2.72704225       8.18112673       0.00000000      -0.00000007       0.00000000      -0.00000000
Si       2.72704225       5.45408449       2.72704225      -0.00000007       0.00000001      -0.00000007
Si       0.00000000       8.18112673       2.72704225      -0.00000000       0.00000000      -0.00000007
Si       1.36352112       6.81760561       1.36352112      -0.00000001       0.00000000      -0.00000001
Si       4.09056336       9.54464786       1.36352112       0.00000007      -0.00000000      -0.00000001
Si       4.09056336       6.81760561       4.09056336       0.00000007       0.00000000       0.00000007
Si       1.36352112       9.54464786       4.09056336      -0.00000001      -0.00000000       0.00000007
Si       0.00000000       5.45408449       5.45408449      -0.00000000       0.00000001       0.00000001
Si       2.72704225       8.18112673       5.45408449      -0.00000007       0.00000000       0.00000001
Si       2.72704225       5.45408449       8.18112673      -0.00000007       0.00000001       0.00000000
Si       0.00000000       8.18112673       8.18112673      -0.00000000       0.00000000       0.00000000
Si       1.36352112       6.81760561       6.81760561      -0.00000001       0.00000000       0.00000000
Si       4.09056336       9.54464786       6.81760561       0.00000007      -0.00000000       0.00000000
Si       4.09056336       6.81760561       9.54464786       0.00000007       0.00000000      -0.00000000
Si       1.36352112       9.54464786       9.54464786      -0.00000001      -0.00000000      -0.00000000
Si       5.45408449       0.00000000       0.00000000       0.00000001      -0.00000000      -0.00000000
Si       8.18112673       2.72704225       0.00000000       0.00000000      -0.00000007      -0.00000000
Si       8.18112673       0.00000000       2.72704225       0.00000000      -0.00000000      -0.00000007
Si       5.45408449       2.72704225       2.72704225       0.00000001      -0.00000007      -0.00000007
Si       6.81760561       1.36352112       1.36352112       0.00000000      -0.00000001      -0.00000001
Si       9.54464786       4.09056336       1.36352112      -0.00000000       0.00000007      -0.00000001
Si       9.54464786       1.36352112       4.09056336      -0.00000000      -0.00000001       0.00000007
Si       6.81760561       4.09056336       4.09056336       0.00000000       0.00000007       0.00000007
Si       5.45408449       0.00000000       5.45408449       0.00000001      -0.00000000       0.00000001
Si       8.18112673       2.72704225       5.45408449       0.00000000      -0.00000007       0.00000001
Si       8.18112673       0.00000000       8.18112673       0.00000000      -0.00000000       0.00000000
Si       5.45408449       2.72704225       8.18112673       0.00000001      -0.00000007       0.00000000
Si       6.81760561       1.36352112       6.81760561       0.00000000      -0.00000001       0.00000000
Si       9.54464786       4.09056336       6.81760561      -0.00000000       0.00000007       0.00000000
Si       9.54464786       1.36352112       9.54464786      -0.00000000      -0.00000001      -0.00000000
Si       6.81760561       4.09056336       9.54464786       0.00000000       0.00000007      -0.00000000
Si       5.45408449       5.45408449       0.00000000       0.00000001       0.00000001      -0.00000000
Si       8.18112673       8.18112673       0.00000000       0.00000000       0.00000000      -0.00000000
Si       8.18112673       5.45408449       2.72704225       0.00000000       0.00000001      -0.00000007
Si       5.45408449       8.18112673       2.72704225       0.00000001       0.00000000      -0.00000007
Si       6.81760561       6.81760561       1.36352112       0.00000000       0.00000000      -0.00000001
Si       9.54464786       9.54464786       1.36352112      -0.00000000      -0.00000000      -0.00000001
Si       9.54464786       6.81760561       4.09056336      -0.00000000       0.00000000       0.00000007
Si       6.81760561       9.54464786       4.09056336       0.00000000      -0.00000000       0.00000007
Si       5.45408449       5.45408449       5.45408449       0.00000001       0.00000001       0.00000001
Si       8.18112673       8.18112673       5.45408449       0.00000000       0.00000000       0.00000001
Si       8.18112673       5.45408449       8.18112673       0.00000000       0.00000001       0.00000000
Si       5.45408449       8.18112673       8.18112673       0.00000001       0.00000000       0.00000000
Si       6.81760561       6.81760561       6.81760561       0.00000000       0.00000000       0.00000000
Si       9.54464786       9.54464786       6.81760561      -0.00000000      -0.00000000       0.00000000
Si       9.54464786       6.81760561       9.54464786      -0.00000000       0.00000000      -0.00000000
Si       6.81760561       9.54464786       9.54464786       0.00000000      -0.00000000      -0.00000000
