64
Lattice="10.982918485455217 0.0 0.0 0.0 10.982918485455217 0.0 0.0 0.0 10.982918485455217" Properties=species:S:1:pos:R:3:forces:R:3 cutoff=-1.0 nneightol=1.2 Zs=14 interstitial_position="mean 1 3 4 5 7 18" interstitial_constraint="plane atoms 4 5 7" bulk_struct_test=bulk_Si_diamond supercell_a1_in_bulk_lattice_coords="2 2 -2" n_minim_iter=0 energy=-10443.258122584999 stress="0.008877397693165343 -2.5551961557318835e-10 -2.555194954264665e-10 -2.5551961557318835e-10 0.008877397693165395 -2.5551955243260906e-10 -2.555194954264665e-10 -2.5551955243260906e-10 0.008877397693168079" pbc="T T T"
Si       0.00000000       0.00000000       0.00000000      -0.00000000      -0.00000000      -0.00000000
Si       2.74572962       2.74572962       0.00000000      -0.00000007      -0.00000007      -0.00000000
Si       2.74572962       0.00000000       2.74572962      -0.00000007      -0.00000000      -0.00000007
Si       0.00000000       2.74572962       2.74572962      -0.00000000      -0.00000007      -0.00000007
Si       1.37286481       1.37286481       1.37286481      -0.00000001      -0.00000001      -0.00000001
Si       4.11859443       4.11859443       1.37286481       0.00000007       0.00000007      -0.00000001
Si       4.11859443       1.37286481       4.11859443       0.00000007      -0.00000001       0.00000007
Si       1.37286481       4.11859443       4.11859443      -0.00000001       0.00000007       0.00000007
Si       0.00000000       0.00000000       5.49145924      -0.00000000      -0.00000000       0.00000001
Si       2.74572962       2.74572962       5.49145924      -0.00000007      -0.00000007       0.00000001
Si       2.74572962       0.00000000       8.23718886      -0.00000007      -0.00000000       0.00000000
Si       0.00000000       2.74572962       8.23718886      -0.00000000      -0.00000007       0.00000000
Si       1.37286481       1.37286481       6.86432405      -0.00000001      -0.00000001       0.00000000
Si       4.11859443       4.11859443       6.86432405       0.00000007       0.00000007       0.00000000
Si       4.11859443       1.37286481       9.61005367       0.00000007      -0.00000001      -0.00000000
Si       1.37286481       4.11859443       9.61005367      -0.00000001       0.00000007      -0.00000000
Si       0.00000000       5.49145924       0.00000000      -0.00000000       0.00000001      -0.00000000
Si       2.74572962       8.23718886       0.00000000      -0.00000007       0.00000000      -0.00000000
Si       2.74572962       5.49145924       2.74572962      -0.00000007       0.00000001      -0.00000007
Si       0.00000000       8.23718886       2.74572962      -0.00000000       0.00000000      -0.00000007
Si       1.37286481       6.86432405       1.37286481      -0.00000001       0.00000000      -0.00000001
Si       4.11859443       9.61005367       1.37286481       0.00000007      -0.00000000      -0.00000001
Si       4.11859443       6.86432405       4.11859443       0.00000007       0.00000000       0.00000007
Si       1.37286481       9.61005367       4.11859443      -0.00000001      -0.00000000       0.00000007
Si       0.00000000       5.49145924       5.49145924      -0.00000000       0.00000001       0.00000001
Si       2.74572962       8.23718886       5.49145924      -0.00000007       0.00000000       0.00000001
Si       2.74572962       5.49145924       8.23718886      -0.00000007       0.00000001       0.00000000
Si       0.00000000       8.23718886       8.23718886      -0.00000000       0.00000000       0.00000000
Si       1.37286481       6.86432405       6.86432405      -0.00000001       0.00000000       0.00000000
Si       4.11859443       9.61005367       6.86432405       0.00000007      -0.00000000       0.00000000
Si       4.11859443       6.86432405       9.61005367       0.00000007       0.00000000      -0.00000000
Si       1.37286481       9.61005367       9.61005367      -0.00000001      -0.00000000      -0.00000000
Si       5.49145924       0.00000000       0.00000000       0.00000001      -0.00000000      -0.00000000
Si       8.23718886       2.74572962       0.00000000       0.00000000      -0.00000007      -0.00000000
Si       8.23718886       0.00000000       2.74572962       0.00000000      -0.00000000      -0.00000007
Si       5.49145924       2.74572962       2.74572962       0.00000001      -0.00000007      -0.00000007
Si       6.86432405       1.37286481       1.37286481       0.00000000      -0.00000001      -0.00000001
Si       9.61005367       4.11859443       1.37286481      -0.00000000       0.00000007      -0.00000001
Si       9.61005367       1.37286481       4.11859443      -0.00000000      -0.00000001       0.00000007
Si       6.86432405       4.11859443       4.11859443       0.00000000       0.00000007       0.00000007
Si       5.49145924       0.00000000       5.49145924       0.00000001      -0.00000000       0.00000001
Si       8.23718886       2.74572962       5.49145924       0.00000000      -0.00000007       0.00000001
Si       8.23718886       0.00000000       8.23718886       0.00000000      -0.00000000       0.00000000
Si       5.49145924       2.74572962       8.23718886       0.00000001      -0.00000007       0.00000000
Si       6.86432405       1.37286481       6.86432405       0.00000000      -0.00000001       0.00000000
Si       9.61005367       4.11859443       6.86432405      -0.00000000       0.00000007       0.00000000
Si       9.61005367       1.37286481       9.61005367      -0.00000000      -0.00000001      -0.00000000
Si       6.86432405       4.11859443       9.61005367       0.00000000       0.00000007      -0.00000000
Si       5.49145924       5.49145924       0.00000000       0.00000001       0.00000001      -0.00000000
Si       8.23718886       8.23718886       0.00000000       0.00000000       0.00000000      -0.00000000
Si       8.23718886       5.49145924       2.74572962       0.00000000       0.00000001      -0.00000007
Si       5.49145924       8.23718886       2.74572962       0.00000001       0.00000000      -0.00000007
Si       6.86432405       6.86432405       1.37286481       0.00000000       0.00000000      -0.00000001
Si       9.61005367       9.61005367       1.37286481      -0.00000000      -0.00000000      -0.00000001
Si       9.61005367       6.86432405       4.11859443      -0.00000000       0.00000000       0.00000007
Si       6.86432405       9.61005367       4.11859443       0.00000000      -0.00000000       0.00000007
Si       5.49145924       5.49145924       5.49145924       0.00000001       0.00000001       0.00000001
Si       8.23718886       8.23718886       5.49145924       0.00000000       0.00000000       0.00000001
Si       8.23718886       5.49145924       8.23718886       0.00000000       0.00000001       0.00000000
Si       5.49145924       8.23718886       8.23718886       0.00000001       0.00000000       0.00000000
Si       6.86432405       6.86432405       6.86432405       0.00000000       0.00000000       0.00000000
Si       9.61005367       9.61005367       6.86432405      -0.00000000      -0.00000000       0.00000000
Si       9.61005367       6.86432405       9.61005367      -0.00000000       0.00000000      -0.00000000
Si       6.86432405       9.61005367       9.61005367       0.00000000      -0.00000000      -0.00000000
