65
Lattice="10.982246682433962 0.0 0.0 0.0 10.982246682433962 0.0 0.0 0.0 10.982246682433962" Properties=species:S:1:pos:R:3:forces:R:3 cutoff=-1.0 nneightol=1.2 Zs=14 interstitial_position="mean 1 3 4 5 7 18" interstitial_constraint="plane atoms 4 5 7" bulk_struct_test=bulk_Si_diamond supercell_a1_in_bulk_lattice_coords="2 2 -2" n_minim_iter=0 energy=-10601.445881449725 stress="-0.009092984389041674 -0.009221869226420234 0.009221868781226392 -0.009221869226420234 -0.009092984286482607 -0.00922186922641388 0.009221868781226392 -0.00922186922641388 -0.00909298438904692" pbc="T T T"
Si       0.00000000       0.00000000       0.00000000      -0.12312775       0.21066909      -0.12312775
Si       2.74556167       2.74556167       0.00000000       1.63216377      -1.63216387      -6.38368442
Si       2.74556167       0.00000000       2.74556167       0.13055123      -0.12802316       0.13055123
Si       0.00000000       2.74556167       2.74556167      -6.38368442      -1.63216387       1.63216377
Si       1.37278084       1.37278084       1.37278084      -1.63216384      -6.38368448      -1.63216384
Si       4.11834250       4.11834250       1.37278084       6.38368456       1.63216390      -1.63216386
Si       4.11834250       1.37278084       4.11834250      -0.02049198       0.02049204      -0.02049198
Si       1.37278084       4.11834250       4.11834250      -1.63216386       1.63216390       6.38368456
Si       0.00000000       0.00000000       5.49112334       0.14882013       0.13140305      -0.13140304
Si       2.74556167       2.74556167       5.49112334       0.13055125      -0.13055138       0.12802318
Si       2.74556167       0.00000000       8.23668501      -0.10172352       0.00415950      -0.01104447
Si       0.00000000       2.74556167       8.23668501       0.05683314      -0.04086034       0.14382301
Si       1.37278084       1.37278084       6.86390417      -0.04086028       0.05683314      -0.14382302
Si       4.11834250       4.11834250       6.86390417      -0.05683308       0.04086033      -0.14382302
Si       4.11834250       1.37278084       9.60946585       0.12312782      -0.12312776       0.21066908
Si       1.37278084       4.11834250       9.60946585      -0.13055132       0.13055138      -0.12802317
Si       0.00000000       5.49112334       0.00000000       0.02049205      -0.02049204       0.02049205
Si       2.74556167       8.23668501       0.00000000       0.04086020      -0.14382301       0.05683314
Si       2.74556167       5.49112334       2.74556167       1.63216378       6.38368445       1.63216378
Si       0.00000000       8.23668501       2.74556167       0.05683314      -0.14382301       0.04086020
Si       1.37278084       6.86390417       1.37278084      -0.13055132       0.12802317      -0.13055132
Si       4.11834250       9.60946585       1.37278084      -0.05683307       0.14382301      -0.04086028
Si       4.11834250       6.86390417       4.11834250       0.12312781      -0.21066909       0.12312781
Si       1.37278084       9.60946585       4.11834250      -0.04086028       0.14382301      -0.05683307
Si       0.00000000       5.49112334       5.49112334      -0.12312776       0.12312777      -0.21066906
Si       2.74556167       8.23668501       5.49112334      -0.10172352       0.01104448      -0.00415949
Si       2.74556167       5.49112334       8.23668501       0.04086019      -0.05683313       0.14382301
Si       0.00000000       8.23668501       8.23668501      -0.03165815       0.00595175      -0.00595175
Si       1.37278084       6.86390417       6.86390417       0.10172344      -0.00415951       0.01104447
Si       4.11834250       9.60946585       6.86390417       0.03165822      -0.00595175       0.00595175
Si       4.11834250       6.86390417       9.60946585      -0.14882006      -0.13140305       0.13140305
Si       1.37278084       9.60946585       9.60946585       0.10172344      -0.01104447       0.00415950
Si       5.49112334       0.00000000       0.00000000      -0.13140304       0.13140305       0.14882013
Si       8.23668501       2.74556167       0.00000000       0.14382301      -0.04086034       0.05683314
Si       8.23668501       0.00000000       2.74556167      -0.01104447       0.00415950      -0.10172352
Si       5.49112334       2.74556167       2.74556167       0.12802318      -0.13055138       0.13055125
Si       6.86390417       1.37278084       1.37278084      -0.14382302       0.05683314      -0.04086028
Si       9.60946585       4.11834250       1.37278084      -0.12802317       0.13055138      -0.13055132
Si       9.60946585       1.37278084       4.11834250       0.21066908      -0.12312776       0.12312782
Si       6.86390417       4.11834250       4.11834250      -0.14382302       0.04086033      -0.05683308
Si       5.49112334       0.00000000       5.49112334      -0.00206598       0.00206599      -0.00206598
Si       8.23668501       2.74556167       5.49112334      -0.01104447       0.10172337      -0.00415949
Si       8.23668501       0.00000000       8.23668501       0.01048811      -0.01086775       0.01048811
Si       5.49112334       2.74556167       8.23668501      -0.00415949       0.10172337      -0.01104447
Si       6.86390417       1.37278084       6.86390417       0.00595175      -0.03165816       0.00595175
Si       9.60946585       4.11834250       6.86390417       0.00415950      -0.10172338       0.01104447
Si       9.60946585       1.37278084       9.60946585       0.13140304       0.14882012       0.13140304
Si       6.86390417       4.11834250       9.60946585       0.01104447      -0.10172338       0.00415950
Si       5.49112334       5.49112334       0.00000000      -0.21066906       0.12312777      -0.12312776
Si       8.23668501       8.23668501       0.00000000      -0.00595175       0.00595175      -0.03165815
Si       8.23668501       5.49112334       2.74556167       0.14382301      -0.05683313       0.04086019
Si       5.49112334       8.23668501       2.74556167      -0.00415949       0.01104448      -0.10172352
Si       6.86390417       6.86390417       1.37278084       0.01104447      -0.00415951       0.10172344
Si       9.60946585       9.60946585       1.37278084       0.00415950      -0.01104447       0.10172344
Si       9.60946585       6.86390417       4.11834250       0.13140305      -0.13140305      -0.14882006
Si       6.86390417       9.60946585       4.11834250       0.00595175      -0.00595175       0.03165822
Si       5.49112334       5.49112334       5.49112334      -0.13140304      -0.14882012      -0.13140304
Si       8.23668501       8.23668501       5.49112334       0.01048811      -0.01048811       0.01086776
Si       8.23668501       5.49112334       8.23668501      -0.00595175       0.03165816      -0.00595175
Si       5.49112334       8.23668501       8.23668501       0.01086776      -0.01048811       0.01048811
Si       6.86390417       6.86390417       6.86390417      -0.01048811       0.01086775      -0.01048811
Si       9.60946585       9.60946585       6.86390417      -0.01086775       0.01048811      -0.01048811
Si       9.60946585       6.86390417       9.60946585       0.00206599      -0.00206599       0.00206599
Si       6.86390417       9.60946585       9.60946585      -0.01048811       0.01048811      -0.01086775
Si       2.05917125       3.43195209       2.05917125      -0.00000004      -0.00000009      -0.00000004
