65
Lattice="10.989396633524017 0.0 0.0 0.0 10.989396633524017 0.0 0.0 0.0 10.989396633524017" Properties=species:S:1:pos:R:3:forces:R:3 cutoff=-1.0 nneightol=1.2 Zs=14 interstitial_position="mean 4 5 6 7" bulk_struct_test=bulk_Si_diamond supercell_a1_in_bulk_lattice_coords="2 2 -2" n_minim_iter=0 energy=-10602.77786827352 stress="0.0032897920880846565 -2.440338285850793e-10 -2.4403380456581727e-10 -2.440338285850793e-10 0.0032897920880846664 -2.440337998315026e-10 -2.4403380456581727e-10 -2.440337998315026e-10 0.003289792088084616" pbc="T T T"
Si       0.00000000       0.00000000       0.00000000      -0.23908038      -0.23908038      -0.23908038
Si       2.74734916       2.74734916       0.00000000      -0.00000006      -0.00000006      -0.53746433
Si       2.74734916       0.00000000       2.74734916      -0.00000006      -0.53746433      -0.00000006
Si       0.00000000       2.74734916       2.74734916      -0.53746433      -0.00000006      -0.00000006
Si       1.37367458       1.37367458       1.37367458      -0.58663586      -0.58663586      -0.58663586
Si       4.12102373       4.12102373       1.37367458       0.58663591       0.58663591      -0.58663586
Si       4.12102373       1.37367458       4.12102373       0.58663591      -0.58663586       0.58663591
Si       1.37367458       4.12102373       4.12102373      -0.58663586       0.58663591       0.58663591
Si       0.00000000       0.00000000       5.49469831       0.01090591       0.01090591      -0.01090590
Si       2.74734916       2.74734916       5.49469831      -0.00000006      -0.00000006       0.53746433
Si       2.74734916       0.00000000       8.24204747      -0.00000007       0.00838297      -0.00000000
Si       0.00000000       2.74734916       8.24204747       0.00838297      -0.00000007      -0.00000000
Si       1.37367458       1.37367458       6.86837289      -0.11546479      -0.11546479       0.00756736
Si       4.12102373       4.12102373       6.86837289       0.11546485       0.11546485       0.00756736
Si       4.12102373       1.37367458       9.61572205       0.11546485      -0.11546479      -0.00756736
Si       1.37367458       4.12102373       9.61572205      -0.11546479       0.11546485      -0.00756736
Si       0.00000000       5.49469831       0.00000000       0.01090591      -0.01090590       0.01090591
Si       2.74734916       8.24204747       0.00000000      -0.00000007      -0.00000000       0.00838297
Si       2.74734916       5.49469831       2.74734916      -0.00000006       0.53746433      -0.00000006
Si       0.00000000       8.24204747       2.74734916       0.00838297      -0.00000000      -0.00000007
Si       1.37367458       6.86837289       1.37367458      -0.11546479       0.00756736      -0.11546479
Si       4.12102373       9.61572205       1.37367458       0.11546485      -0.00756736      -0.11546479
Si       4.12102373       6.86837289       4.12102373       0.11546485       0.00756736       0.11546485
Si       1.37367458       9.61572205       4.12102373      -0.11546479      -0.00756736       0.11546485
Si       0.00000000       5.49469831       5.49469831      -0.23908038       0.23908039       0.23908039
Si       2.74734916       8.24204747       5.49469831      -0.00000007       0.00000000      -0.00838297
Si       2.74734916       5.49469831       8.24204747      -0.00000007      -0.00838297       0.00000000
Si       0.00000000       8.24204747       8.24204747      -0.01241044       0.00000000       0.00000000
Si       1.37367458       6.86837289       6.86837289       0.05382732      -0.01409994      -0.01409994
Si       4.12102373       9.61572205       6.86837289      -0.05382726       0.01409994      -0.01409994
Si       4.12102373       6.86837289       9.61572205      -0.05382726      -0.01409994       0.01409994
Si       1.37367458       9.61572205       9.61572205       0.05382732       0.01409994       0.01409994
Si       5.49469831       0.00000000       0.00000000      -0.01090590       0.01090591       0.01090591
Si       8.24204747       2.74734916       0.00000000      -0.00000000      -0.00000007       0.00838297
Si       8.24204747       0.00000000       2.74734916      -0.00000000       0.00838297      -0.00000007
Si       5.49469831       2.74734916       2.74734916       0.53746433      -0.00000006      -0.00000006
Si       6.86837289       1.37367458       1.37367458       0.00756736      -0.11546479      -0.11546479
Si       9.61572205       4.12102373       1.37367458      -0.00756736       0.11546485      -0.11546479
Si       9.61572205       1.37367458       4.12102373      -0.00756736      -0.11546479       0.11546485
Si       6.86837289       4.12102373       4.12102373       0.00756736       0.11546485       0.11546485
Si       5.49469831       0.00000000       5.49469831       0.23908039      -0.23908038       0.23908039
Si       8.24204747       2.74734916       5.49469831       0.00000000      -0.00000007      -0.00838297
Si       8.24204747       0.00000000       8.24204747       0.00000000      -0.01241044       0.00000000
Si       5.49469831       2.74734916       8.24204747      -0.00838297      -0.00000007       0.00000000
Si       6.86837289       1.37367458       6.86837289      -0.01409994       0.05382732      -0.01409994
Si       9.61572205       4.12102373       6.86837289       0.01409994      -0.05382726      -0.01409994
Si       9.61572205       1.37367458       9.61572205       0.01409994       0.05382732       0.01409994
Si       6.86837289       4.12102373       9.61572205      -0.01409994      -0.05382726       0.01409994
Si       5.49469831       5.49469831       0.00000000       0.23908039       0.23908039      -0.23908038
Si       8.24204747       8.24204747       0.00000000       0.00000000       0.00000000      -0.01241044
Si       8.24204747       5.49469831       2.74734916       0.00000000      -0.00838297      -0.00000007
Si       5.49469831       8.24204747       2.74734916      -0.00838297       0.00000000      -0.00000007
Si       6.86837289       6.86837289       1.37367458      -0.01409994      -0.01409994       0.05382732
Si       9.61572205       9.61572205       1.37367458       0.01409994       0.01409994       0.05382732
Si       9.61572205       6.86837289       4.12102373       0.01409994      -0.01409994      -0.05382726
Si       6.86837289       9.61572205       4.12102373      -0.01409994       0.01409994      -0.05382726
Si       5.49469831       5.49469831       5.49469831      -0.01090590      -0.01090590      -0.01090590
Si       8.24204747       8.24204747       5.49469831       0.00000000       0.00000000       0.01241045
Si       8.24204747       5.49469831       8.24204747       0.00000000       0.01241045       0.00000000
Si       5.49469831       8.24204747       8.24204747       0.01241045       0.00000000       0.00000000
Si       6.86837289       6.86837289       6.86837289      -0.01311399      -0.01311399      -0.01311399
Si       9.61572205       9.61572205       6.86837289       0.01311399       0.01311399      -0.01311399
Si       9.61572205       6.86837289       9.61572205       0.01311399      -0.01311399       0.01311399
Si       6.86837289       9.61572205       9.61572205      -0.01311399       0.01311399       0.01311399
Si       2.74734916       2.74734916       2.74734916      -0.00000000      -0.00000000      -0.00000000
