2
Lattice="2.745688671424546 9.664691703397671e-17 2.745688671424546 2.745688671424546 2.745688671424546 1.7297060190769515e-16 1.0770127163423169e-16 2.745688671424546 2.745688671424546" Properties=species:S:1:pos:R:3 n_minim_iter=2 stress="0.008844717893562217 -2.648911757877345e-16 -3.2155408486974887e-17 -2.648911757877345e-16 0.008844717893562318 -8.112444480310589e-17 -3.2155408486974887e-17 -8.112444480310589e-17 0.008844717893562616" pbc="T T T"
Si       0.00000000       0.00000000       0.00000000
Si       1.37284434       1.37284434       1.37284434
