63
Lattice="10.982908742188398 0.0 0.0 0.0 10.982908742188398 0.0 0.0 0.0 10.982908742188398" Properties=species:S:1:pos:R:3:forces:R:3 cutoff=-1.0 nneightol=1.2 vacancies=0 relax_radial_0=0.13 relax_symm_break_0=0.01 bulk_struct_test=bulk_Si_diamond supercell_a1_in_bulk_lattice_coords="2 2 -2" n_minim_iter=0 pbc="T T T"
Si       2.70868925       2.70880845       0.01244093       0.00023440       0.00004994       0.00054071
Si       2.70930130       0.01180821       2.70956816      -0.00019154       0.00131932      -0.00060194
Si       0.01122201       2.70990304       2.71005094       0.00200971      -0.00079200      -0.00100414
Si       1.27193401       1.27334697       1.27500204      -0.00097555      -0.00213486      -0.00346639
Si       4.11112753       4.11104546       1.36900030      -0.00151300      -0.00158761      -0.00325156
Si       4.11089934       1.36965008       4.11070042      -0.00151149      -0.00292829      -0.00142942
Si       1.37021070       4.11049671       4.11040027      -0.00219091      -0.00118393      -0.00126359
Si       0.00057865       0.00028750       5.49145362      -0.00070099      -0.00036222       0.00003206
Si       2.74299770       2.74264583       5.49079923       0.00483348       0.00512465       0.00156119
Si       2.70648828      -0.01252963       8.27616766       0.00128176      -0.00015233      -0.00090957
Si      -0.01264121       2.70425885       8.27851433       0.00019833       0.00215881      -0.00198880
Si       1.37132160       1.37133854       6.87526877       0.00078545       0.00080657       0.00434803
Si       4.11712700       4.11652797       6.86697168       0.00539869       0.00574663      -0.00604472
Si       4.10804263       1.37091946       9.61197056      -0.00422586       0.00015311      -0.00011553
Si       1.37109747       4.10781934       9.61177031       0.00048457      -0.00429267      -0.00047141
Si       0.00057863       5.49160894       0.00000421      -0.00071518       0.00013672      -0.00000649
Si       2.70716306       8.27531556      -0.01183994       0.00082767      -0.00022762      -0.00092463
Si       2.74348733       5.49047402       2.74274607       0.00418477       0.00181814       0.00487732
Si      -0.01200937       8.27998555       2.70276169      -0.00024980      -0.00237991       0.00257210
Si       1.37164430       6.87477555       1.37167050       0.00049026       0.00464241       0.00056117
Si       4.10867482       9.61187993       1.37101849      -0.00464252       0.00060700      -0.00050776
Si       4.11750904       6.86723765       4.11628465       0.00508136      -0.00625875       0.00582791
Si       1.37140202       9.61147095       4.10826795       0.00021496      -0.00017275      -0.00467907
Si       0.00031615       5.49316520       5.49143163       0.00205109      -0.00120302       0.00001476
Si       2.74324092       8.24083209       5.49290060       0.00425100      -0.00519247      -0.00188688
Si       2.74275825       5.49260146       8.24088413       0.00485733      -0.00157606      -0.00543714
Si       0.01069164       8.27428922       8.27446365       0.00231506       0.00061342       0.00039056
Si       1.37033782       6.87419931       6.87405413      -0.00297818       0.00009789       0.00028222
Si       4.10981742       9.61443976       6.87330149      -0.00070289       0.00451966       0.00069486
Si       4.10959789       6.87362536       9.61379269      -0.00050372       0.00055581       0.00391995
Si       1.26582247       9.71234101       9.71416728       0.00205968       0.00172466       0.00023552
Si       5.49176365       0.00028926       0.00000374       0.00028045      -0.00035982      -0.00000325
Si       8.27674456       2.70565734      -0.01125929      -0.00062642       0.00123258      -0.00128402
Si       8.27906616      -0.01131645       2.70348485      -0.00168941      -0.00095492       0.00207969
Si       5.49015488       2.74361820       2.74322817       0.00208684       0.00397004       0.00421390
Si       6.87426337       1.37198536       1.37199459       0.00490169       0.00025764       0.00027267
Si       9.61160580       4.10906040       1.37128018       0.00087066      -0.00501454      -0.00077483
Si       9.61139915       1.37148134       4.10887637       0.00047632      -0.00042804      -0.00501726
Si       6.86752394       4.11726449       4.11665657      -0.00635911       0.00516038       0.00558138
Si       5.49487862       0.00015878       5.49143096      -0.00238486       0.00102727       0.00003996
Si       8.24105081       2.74305929       5.49372657      -0.00500349       0.00411064      -0.00242472
Si       8.27621854       0.01067286       8.27659058      -0.00015094       0.00192034      -0.00057011
Si       5.49313555       2.74216106       8.24113000      -0.00163660       0.00518125      -0.00545949
Si       6.87563505       1.36981383       6.87537331      -0.00085239      -0.00404453      -0.00072206
Si       9.61501447       4.10831311       6.87470429       0.00580343       0.00025590      -0.00012891
Si       9.71668020       1.26096069       9.72044437       0.00013778       0.00407593      -0.00287563
Si       6.87536841       4.10794105       9.61368861      -0.00065073       0.00042893       0.00470297
Si       5.49487729       5.49316941       0.00003087      -0.00240350      -0.00119694      -0.00011979
Si       8.27846401       8.27866178       0.01069060      -0.00120273      -0.00141000       0.00160509
Si       8.24128897       5.49423719       2.74243797      -0.00487087      -0.00235910       0.00436402
Si       5.49395885       8.24132911       2.74200007      -0.00205946      -0.00525093       0.00485944
Si       6.87699402       6.87687467       1.36929893      -0.00169073      -0.00178131      -0.00537976
Si       9.72306775       9.72500868       1.25622300      -0.00308865      -0.00462592       0.00595706
Si       9.61492254       6.87644788       4.10659973       0.00655264      -0.00136241       0.00121431
Si       6.87677208       9.61424203       4.10642103      -0.00149222       0.00606920       0.00146265
Si       5.49194785       5.49170051       5.49146530      -0.00019828      -0.00013548      -0.00008232
Si       8.24085310       8.24041880       5.48840897      -0.00430658      -0.00394467       0.00264489
Si       8.24057716       5.48892242       8.23974068      -0.00421391       0.00247888      -0.00364819
Si       5.48939162       8.23987375       8.23947203       0.00235314      -0.00394421      -0.00358368
Si       6.86717241       6.86653208       6.86588318      -0.00615913      -0.00571085      -0.00522221
Si       9.61134311       9.61134769       6.87344958       0.00116042       0.00107819       0.00540870
Si       9.61111134       6.87358843       9.61111910       0.00074845       0.00533219       0.00067449
Si       6.87368527       9.61085857       9.61086130       0.00521029       0.00031409       0.00034570
