4
Lattice="1.94317798550601 -3.365682999045749 3.1040122802156546e-35 1.94317798550601 3.365682999045749 -3.1040122802156476e-35 -1.1781245528620233e-49 5.891158855352668e-35 6.387788260541534" Properties=species:S:1:pos:R:3 cutoff=-1.0 nneightol=1.2 n_minim_iter=1 energy=-652.6421032925527 free_energy=-652.6421032925527 pbc="T T T"
Si       1.94317799       1.12189433       0.39846337
Si       1.94317799      -1.12189433       3.59235750
Si       1.94317799       1.12189433       2.79543077
Si       1.94317799      -1.12189433      -0.39846337
4
Lattice="1.9427084618192967 -3.364869760165005 3.387487453659203e-35 1.9427084618192967 3.364869760165005 -3.3874874536592164e-35 -1.7430153933318717e-51 5.354570890236942e-35 6.390876300137923" Properties=species:S:1:pos:R:3 cutoff=-1.0 nneightol=1.2 n_minim_iter=2 stress="0.011222635440748115 -6.648366417104659e-17 -4.402139808247434e-17 -6.648366417104659e-17 0.01122263544074803 6.190494771951463e-18 -4.402139808247434e-17 6.190494771951463e-18 0.01131234756615981" pbc="T T T"
Si       1.94270846       1.12162325       0.39891933
Si       1.94270846      -1.12162325       3.59435748
Si       1.94270846       1.12162325       2.79651882
Si       1.94270846      -1.12162325      -0.39891933
4
Lattice="1.9424001218833544 -3.3643356997299505 3.4415858583320125e-35 1.9424001218833544 3.3643356997299505 -3.44158585833201e-35 -1.1945605790307262e-49 5.253062438855672e-35 6.392905458571378" Properties=species:S:1:pos:R:3 cutoff=-1.0 nneightol=1.2 n_minim_iter=3 stress="0.011168530937700458 -1.1509795165557768e-16 -1.871671764013588e-17 -1.1509795165557768e-16 0.011168530937701308 -3.350800471655046e-17 -1.871671764013588e-17 -3.350800471655046e-17 0.01138065205011478" pbc="T T T"
Si       1.94240012       1.12144523       0.39972050
Si       1.94240012      -1.12144523       3.59617323
Si       1.94240012       1.12144523       2.79673223
Si       1.94240012      -1.12144523      -0.39972050
