4
Lattice="2.002202911503092 -3.467917169785689 4.546658651629678e-21 2.0022029115030935 3.467917169785689 -4.546658651629677e-21 -1.2406537461210317e-36 8.657884527494898e-21 6.6037124639122595" Properties=species:S:1:pos:R:3 cutoff=-1.0 nneightol=1.2 n_minim_iter=1 energy=-652.381774322431 free_energy=-652.381774322431 pbc="T T T"
Si       2.00220291       1.15597239       0.41558772
Si       2.00220291      -1.15597239       3.71744395
Si       2.00220291       1.15597239       2.88626852
Si       2.00220291      -1.15597239      -0.41558772
4
Lattice="2.0019143938677266 -3.4674174425823567 4.5467542977066875e-21 2.001914393867728 3.4674174425823567 -4.546754297706687e-21 -1.2352270587650302e-36 8.658950640806623e-21 6.605616066590177" Properties=species:S:1:pos:R:3 cutoff=-1.0 nneightol=1.2 n_minim_iter=2 stress="0.049803733213022526 5.175189691081364e-17 -2.2037444212265728e-17 5.175189691081364e-17 0.04980373321302268 -4.505280650433111e-17 -2.2037444212265728e-17 -4.505280650433111e-17 0.049751685456754714" pbc="T T T"
Si       2.00191439       1.15580581       0.41672658
Si       2.00191439      -1.15580581       3.71953462
Si       2.00191439       1.15580581       2.88608145
Si       2.00191439      -1.15580581      -0.41672658
