4
Lattice="1.9272495806894974 -3.3380941926200243 3.078568412220296e-35 1.9272495806894971 3.3380941926200243 -3.0785684122202887e-35 -1.2664117908100468e-49 5.842868496061672e-35 6.335426985323824" Properties=species:S:1:pos:R:3 cutoff=-1.0 nneightol=1.2 n_minim_iter=1 energy=-652.6537599736885 free_energy=-652.6537599736885 pbc="T T T"
Si       1.92724958       1.11269806       0.39519713
Si       1.92724958      -1.11269806       3.56291062
Si       1.92724958       1.11269806       2.77251637
Si       1.92724958      -1.11269806      -0.39519713
