4
Lattice="1.8783224042905171 -3.2533498372261054 8.946699868406986e-19 1.8783224042905171 3.2533498372261054 -8.946699868406988e-19 -3.162959393106063e-34 1.6966230678179435e-18 6.169546830346929" Properties=species:S:1:pos:R:3 cutoff=-1.0 nneightol=1.2 n_minim_iter=1 energy=-652.5231804971999 free_energy=-652.5231804971999 pbc="T T T"
Si       1.87832240       1.08444995       0.38506019
Si       1.87832240      -1.08444995       3.46983360
Si       1.87832240       1.08444995       2.69971323
Si       1.87832240      -1.08444995      -0.38506019
4
Lattice="1.8784547080649396 -3.2535789940854385 8.963639318727966e-19 1.8784547080649396 3.2535789940854385 -8.963639318727974e-19 -3.075759072786918e-34 1.6932912454161516e-18 6.168677790935635" Properties=species:S:1:pos:R:3 cutoff=-1.0 nneightol=1.2 n_minim_iter=2 stress="-0.04764625940957682 2.0245319274938267e-17 -9.579232978185743e-18 2.0245319274938267e-17 -0.047646259409575877 -1.0028302826972614e-16 -9.579232978185743e-18 -1.0028302826972614e-16 -0.048514264144833716" pbc="T T T"
Si       1.87845471       1.08452633       0.38564990
Si       1.87845471      -1.08452633       3.46998880
Si       1.87845471       1.08452633       2.69868899
Si       1.87845471      -1.08452633      -0.38564990
4
Lattice="1.8775821791665854 -3.2520677297024174 8.679730727323832e-19 1.8775821791665854 3.2520677297024174 -8.67973072732384e-19 -3.647007194836416e-34 1.7479244495390405e-18 6.174412400381225" Properties=species:S:1:pos:R:3 cutoff=-1.0 nneightol=1.2 n_minim_iter=3 stress="-0.047727785954975045 -2.848559053209861e-17 -1.6506994084294847e-18 -2.848559053209861e-17 -0.04772778595497401 8.086592934849645e-18 -1.6506994084294847e-18 8.086592934849645e-18 -0.04798662429080448" pbc="T T T"
Si       1.87758218       1.08402258       0.38752014
Si       1.87758218      -1.08402258       3.47472634
Si       1.87758218       1.08402258       2.69968606
Si       1.87758218      -1.08402258      -0.38752014
