4
Lattice="1.8775821791665854 -3.2520677297024174 8.679730727323832e-19 1.8775821791665854 3.2520677297024174 -8.67973072732384e-19 -3.647007194836416e-34 1.7479244495390405e-18 6.174412400381225" Properties=species:S:1:pos:R:3 cutoff=-1.0 nneightol=1.2 n_minim_iter=3 stress="-0.047727785954975045 -2.848559053209861e-17 -1.6506994084294847e-18 -2.848559053209861e-17 -0.04772778595497401 8.086592934849645e-18 -1.6506994084294847e-18 8.086592934849645e-18 -0.04798662429080448" pbc="T T T"
Si       1.87758218       1.08402258       0.38752014
Si       1.87758218      -1.08402258       3.47472634
Si       1.87758218       1.08402258       2.69968606
Si       1.87758218      -1.08402258      -0.38752014
