4
Lattice="2.015868178966291 -3.4915861073309666 4.559749944701528e-21 2.015868178966291 3.4915861073309666 -4.5597499447015295e-21 1.0708988178823507e-37 8.767754935274695e-21 6.659251102405481" Properties=species:S:1:pos:R:3 cutoff=-1.0 nneightol=1.2 n_minim_iter=3 stress="0.056324955345832074 5.86826819824794e-18 -1.1288073215650217e-17 5.86826819824794e-18 0.056324955345832456 -3.180315332822842e-18 -1.1288073215650217e-17 -3.180315332822842e-18 0.0565195778544351" pbc="T T T"
Si       2.01586818       1.16386204       0.42087869
Si       2.01586818      -1.16386204       3.75050424
Si       2.01586818       1.16386204       2.90874686
Si       2.01586818      -1.16386204      -0.42087869
