4
Lattice="1.957403711621383 -3.3903226794521344 3.253369098018343e-35 1.9574037116213825 3.3903226794521344 -3.2533690980183687e-35 -3.4189089823559975e-49 7.004901594390465e-35 6.448820577140261" Properties=species:S:1:pos:R:3 cutoff=-1.0 nneightol=1.2 n_minim_iter=3 stress="0.02235531068231191 8.838235506802109e-17 -4.8560744634508363e-17 8.838235506802109e-17 0.022355310682312408 -6.6000683122013455e-18 -4.8560744634508363e-17 -6.6000683122013455e-18 0.022499450645925557" pbc="T T T"
Si       1.95740371       1.13010756       0.40420438
Si       1.95740371      -1.13010756       3.62861467
Si       1.95740371       1.13010756       2.82020591
Si       1.95740371      -1.13010756      -0.40420438
