4
Lattice="1.895094027471484 -3.2823991407009405 9.026585344171626e-19 1.895094027471484 3.2823991407009405 -9.026585344171628e-19 3.4166218624783995e-35 -1.712185922326134e-18 6.224634984755113" Properties=species:S:1:pos:R:3 cutoff=-1.0 nneightol=1.2 n_minim_iter=2 stress="-0.02831452003036709 9.72550952108764e-17 -1.7826864936702478e-17 9.72550952108764e-17 -0.02831452003036654 -1.638952939061774e-17 -1.7826864936702478e-17 -1.638952939061774e-17 -0.02850243040388989" pbc="T T T"
Si       1.89509403       1.09413305       0.38849841
Si       1.89509403      -1.09413305       3.50081590
Si       1.89509403       1.09413305       2.72381909
Si       1.89509403      -1.09413305      -0.38849841
