4
Lattice="1.8024207044882663 -3.121884236787767 1.871948914783279e-17 1.8024207044882663 3.121884236787767 -1.871948914783281e-17 -3.0299002410316456e-33 3.009985016063092e-17 5.975763803885997" Properties=species:S:1:pos:R:3 cutoff=-1.0 nneightol=1.2 n_minim_iter=3 stress="-0.15555393236812484 -1.7427455088859286e-17 -2.3963463526954606e-17 -1.7427455088859286e-17 -0.1555539323681257 -1.9039845674552177e-16 -2.3963463526954606e-17 -1.9039845674552177e-16 -0.15569680464336125" pbc="T T T"
Si       1.80242070       1.04062808       0.38604796
Si       1.80242070      -1.04062808       3.37392986
Si       1.80242070       1.04062808       2.60183394
Si       1.80242070      -1.04062808      -0.38604796
