2
Lattice="3.027512845313187 -9.722490862714151e-16 3.274519042075942e-41 -1.5137564226565927 2.621903034324928 2.615379757289748e-25 -2.1193188734510235e-40 -4.933623749172722e-25 4.945929187575496" Properties=species:S:1:pos:R:3 n_minim_iter=1 energy=-3186.935531229482 free_energy=-3186.935531229482 pbc="T T T"
Ti       0.00000000       0.00000000       0.00000000
Ti       0.00000000       1.74793536       2.47296459
