2
Lattice="3.0067758051556073 -9.655896369559834e-16 3.252090125555437e-41 -1.503387902577803 2.603944230749166 2.5974656350959484e-25 -1.4144806654232258e-40 -4.89983074513399e-25 4.912051897066861" Properties=species:S:1:pos:R:3 n_minim_iter=1 stress="0.06585132619729499 -3.707715489133943e-17 -2.7644531383309643e-17 -3.707715489133943e-17 0.06585132619729502 -1.9709113123677367e-17 -2.7644531383309643e-17 -1.9709113123677367e-17 0.061756990965171066" pbc="T T T"
Ti       0.00000000       0.00000000       0.00000000
Ti       0.00000000       1.73596282       2.45602595
