2
Lattice="2.8560176092189504 3.9059113839796585e-17 2.8560176092189504 2.8560176092189504 2.8560176092189504 2.0219938827602414e-16 6.56256605438479e-17 2.8560176092189504 2.8560176092189504" Properties=species:S:1:pos:R:3 n_minim_iter=1 stress="0.053985049003352464 4.429234817912699e-18 -1.0016822819387616e-17 4.429234817912699e-18 0.05398504900335231 1.8467125227064322e-17 -1.0016822819387616e-17 1.8467125227064322e-17 0.05398504900335208" pbc="T T T"
Si       0.00000000       0.00000000      -0.00000000
Si       1.42800880       1.42800880       1.42800880
