2
Lattice="2.6512918887104293 3.625926932992204e-17 2.6512918887104293 2.6512918887104293 2.6512918887104293 1.877052845570656e-16 6.092146663575741e-17 2.6512918887104293 2.6512918887104293" Properties=species:S:1:pos:R:3 n_minim_iter=1 stress="-0.03813281957878066 -7.569527677880185e-17 1.0185274721583687e-17 -7.569527677880185e-17 -0.03813281957878066 1.5560127821313695e-17 1.0185274721583687e-17 1.5560127821313695e-17 -0.038132819578781035" pbc="T T T"
Si       0.00000000       0.00000000      -0.00000000
Si       1.32564594       1.32564594       1.32564594
