2
Lattice="2.8347032506260588 3.876761705209657e-17 2.8347032506260588 2.8347032506260588 2.8347032506260588 2.0069038137947453e-16 6.513589855596244e-17 2.8347032506260588 2.8347032506260588" Properties=species:S:1:pos:R:3 n_minim_iter=1 stress="0.047843068494090195 -7.948997991067815e-18 7.765100145769621e-17 -7.948997991067815e-18 0.047843068494090195 9.930818441386859e-17 7.765100145769621e-17 9.930818441386859e-17 0.047843068494090035" pbc="T T T"
Si       0.00000000       0.00000000      -0.00000000
Si       1.41735163       1.41735163       1.41735163
