2
Lattice="2.791085494574105 3.8171097306010117e-17 2.791085494574105 2.791085494574105 2.791085494574105 1.9760234594047392e-16 6.413364841467822e-17 2.791085494574105 2.791085494574105" Properties=species:S:1:pos:R:3 n_minim_iter=1 stress="0.03141852941110052 -1.767960222061758e-18 3.4932259843244625e-17 -1.767960222061758e-18 0.03141852941110052 1.9147940903638112e-18 3.4932259843244625e-17 1.9147940903638112e-18 0.03141852941110101" pbc="T T T"
Si       0.00000000       0.00000000      -0.00000000
Si       1.39554275       1.39554275       1.39554275
