2
Lattice="2.938249941922108 4.018372947031542e-17 2.938249941922108 2.938249941922108 2.938249941922108 2.0802124571675475e-16 6.751519761612877e-17 2.938249941922108 2.938249941922108" Properties=species:S:1:pos:R:3 n_minim_iter=1 stress="0.06766697115147713 9.141896463761619e-18 -1.228983530807083e-17 9.141896463761619e-18 0.06766697115147713 -5.864056901739172e-18 -1.228983530807083e-17 -5.864056901739172e-18 0.0676669711514767" pbc="T T T"
Si       0.00000000       0.00000000      -0.00000000
Si       1.46912497       1.46912497       1.46912497
