2
Lattice="2.708037392737693 -8.612257210569313e-16 4.614403704572403e-41 -1.3540186963688459 2.345229176509019 2.3393942621628073e-25 -2.0916298950475353e-40 -4.278697056399016e-25 4.2893689774348465" Properties=species:S:1:pos:R:3 n_minim_iter=1 energy=-3186.9085186007337 free_energy=-3186.9085186007337 pbc="T T T"
Ti       0.00000000       0.00000000       0.00000000
Ti       0.00000000       1.56348612       2.14468449
