2
Lattice="2.566365746955353 -8.546075054746877e-16 2.2424109776069304e-41 -1.2831828734776758 2.222537932265562 2.217008272906097e-25 -1.741578674307834e-40 -4.203645549913412e-25 4.214130277572316" Properties=species:S:1:pos:R:3 n_minim_iter=3 stress="-0.57725844571663 8.268132510836045e-16 -6.052891024618388e-18 8.268132510836045e-16 -0.577258445716629 -6.984159150711451e-18 -6.052891024618388e-18 -6.984159150711451e-18 -0.5742699926287249" pbc="T T T"
Ti      -0.00000000       0.00000000       0.00000000
Ti       0.00000000       1.48169195       2.10706514
