2
Lattice="2.7601277580789563 -8.777918004513503e-16 4.703163917207528e-41 -1.3800638790394775 2.390340756186966 2.3843936045353023e-25 -2.1318633739809967e-40 -4.360999794703195e-25 4.371876995129601" Properties=species:S:1:pos:R:3 n_minim_iter=1 stress="-0.08188715512803599 6.389443165398184e-16 1.0203579281182699e-16 6.389443165398184e-16 -0.08188715512803638 -2.4803789171143544e-17 1.0203579281182699e-16 -2.4803789171143544e-17 -0.08289333845237579" pbc="T T T"
Ti       0.00000000       0.00000000       0.00000000
Ti       0.00000000       1.59356050       2.18593850
