2
Lattice="3.0335413981604424 -9.281413087287034e-16 5.743367500334095e-41 -1.51677069908022 2.627123914238708 2.620587647689576e-25 -2.137669491373297e-40 -5.014320475285995e-25 5.026827187365681" Properties=species:S:1:pos:R:3 n_minim_iter=1 stress="0.05989341689404176 -4.133047289332692e-16 2.0200485979394075e-19 -4.133047289332692e-16 0.059893416894042116 5.737486611638436e-19 2.0200485979394075e-19 5.737486611638436e-19 0.062437992034472055" pbc="T T T"
Ti       0.00000000       0.00000000       0.00000000
Ti       0.00000000       1.75141594       2.51341359
