4
Lattice="1.8571118851149726 -3.2166121403591488 -1.9812873111039483e-19 1.8571118851149722 3.2166121403591488 1.9812873111039485e-19 -4.221685978138645e-35 3.76610129561404e-19 6.109143087296169" Properties=species:S:1:pos:R:3:forces:R:3 cutoff=-1.0 nneightol=1.2 n_minim_iter=2 energy=-652.3979037931196 stress="-0.07105902626513846 -2.4068866599686786e-16 1.6649330476813713e-16 -2.4068866599686786e-16 -0.07105902626513916 -1.3801286237567912e-16 1.6649330476813713e-16 -1.3801286237567912e-16 -0.07258831997953" free_energy=-652.3979037931196 pbc="T T T"
Si       1.85711189       1.07220405       0.38409634      -0.00000000       0.00000000       0.00741045
Si       1.85711189      -1.07220405       3.43866788      -0.00000000      -0.00000000       0.00741045
Si       1.85711189       1.07220405       2.67047521       0.00000000       0.00000000      -0.00741045
Si       1.85711189      -1.07220405      -0.38409634       0.00000000      -0.00000000      -0.00741045
