4
Lattice="2.039488327582911 -3.532497404817279 -2.8072115297078982e-18 2.039488327582911 3.532497404817279 2.8072115297078536e-18 -8.573021361405201e-32 -1.5411728754292822e-18 6.753870426658788" Properties=species:S:1:pos:R:3:forces:R:3 cutoff=-1.0 nneightol=1.2 n_minim_iter=4 energy=-652.0691571624457 stress="0.062471157379657284 2.7247773509079377e-17 -2.6192439792927123e-17 2.7247773509079377e-17 0.06247115737965752 -3.01873089483093e-17 -2.6192439792927123e-17 -3.01873089483093e-17 0.06264024257118594" free_energy=-652.0691571624457 pbc="T T T"
Si       2.03948833       1.17749913       0.43565952       0.00000000      -0.00000000       0.00226888
Si       2.03948833      -1.17749913       3.81259473       0.00000000       0.00000000       0.00226888
Si       2.03948833       1.17749913       2.94127569      -0.00000000      -0.00000000      -0.00226888
Si       2.03948833      -1.17749913      -0.43565952      -0.00000000       0.00000000      -0.00226888
