4
Lattice="1.742549975758829 -3.018185092742207 -4.9300453663683086e-18 1.7425499757588294 3.018185092742207 4.9300453663682886e-18 2.513199378155769e-32 -3.910935568020143e-18 5.782354389385098" Properties=species:S:1:pos:R:3:forces:R:3 cutoff=-1.0 nneightol=1.2 n_minim_iter=3 energy=-650.1907253568284 stress="-0.32633125229398385 -3.4513846444833878e-16 4.7513733116172015e-18 -3.4513846444833878e-16 -0.32633125229398424 1.0252540382939509e-17 4.7513733116172015e-18 1.0252540382939509e-17 -0.3266816422809905" free_energy=-650.1907253568284 pbc="T T T"
Si       1.74254998       1.00606170       0.38229406      -0.00000000       0.00000000       0.00839546
Si       1.74254998      -1.00606170       3.27347126       0.00000000       0.00000000       0.00839546
Si       1.74254998       1.00606170       2.50888313      -0.00000000      -0.00000000      -0.00839546
Si       1.74254998      -1.00606170      -0.38229406       0.00000000       0.00000000      -0.00839546
