4
Lattice="1.8908168573147948 -3.2749908646769357 -7.02115699849626e-35 1.8908168573147952 3.2749908646769357 7.02115699849634e-35 -1.2838158094855397e-48 -1.3336356373953867e-34 6.220690593036018" Properties=species:S:1:pos:R:3:forces:R:3 cutoff=-1.0 nneightol=1.2 n_minim_iter=1 energy=-652.5954748207132 stress="-0.02882615475057479 1.6575728884689956e-16 4.153483784830864e-17 1.6575728884689956e-16 -0.028826154750574352 3.83551972585622e-18 4.153483784830864e-17 3.83551972585622e-18 -0.02902499564881575" free_energy=-652.5954748207132 pbc="T T T"
Si       1.89081686       1.09166362       0.38915601       0.00000000      -0.00000000       0.00147753
Si       1.89081686      -1.09166362       3.49950131      -0.00000000       0.00000000       0.00147753
Si       1.89081686       1.09166362       2.72118928       0.00000000      -0.00000000      -0.00147753
Si       1.89081686      -1.09166362      -0.38915601      -0.00000000       0.00000000      -0.00147753
