4
Lattice="1.8740830871823346 -3.2460071246053364 -6.959019607017954e-35 1.874083087182335 3.2460071246053364 6.959019607018033e-35 -1.272454011770843e-48 -1.3218329331248504e-34 6.16563734657996" Properties=species:S:1:pos:R:3:forces:R:3 cutoff=-1.0 nneightol=1.2 n_minim_iter=1 energy=-652.5954748207132 stress="-0.02882615475057479 1.6575728884689956e-16 4.153483784830864e-17 1.6575728884689956e-16 -0.028826154750574352 3.83551972585622e-18 4.153483784830864e-17 3.83551972585622e-18 -0.02902499564881575" free_energy=-652.5954748207132 pbc="T T T"
Si       1.87408309       1.08200237       0.38571198       0.00000000      -0.00000000       0.00147753
Si       1.87408309      -1.08200237       3.46853065      -0.00000000       0.00000000       0.00147753
Si       1.87408309       1.08200237       2.69710670       0.00000000      -0.00000000      -0.00147753
Si       1.87408309      -1.08200237      -0.38571198      -0.00000000       0.00000000      -0.00147753
