4
Lattice="1.838206500976458 -3.1838670544946366 -2.062700386807757e-19 1.8382065009764583 3.1838670544946366 2.0627003868077552e-19 -4.069322795358471e-35 -3.541028167042289e-19 6.062243607216582" Properties=species:S:1:pos:R:3:forces:R:3 cutoff=-1.0 nneightol=1.2 n_minim_iter=3 energy=-652.2252656996382 stress="-0.09959766034594661 4.995425143331219e-16 -1.1042176023261246e-16 4.995425143331219e-16 -0.09959766034594593 -7.292097889036538e-17 -1.1042176023261246e-16 -7.292097889036538e-17 -0.0997036438503142" free_energy=-652.2252656996382 pbc="T T T"
Si       1.83820650       1.06128902       0.38465885       0.00000000      -0.00000000      -0.00172769
Si       1.83820650      -1.06128902       3.41578066      -0.00000000       0.00000000      -0.00172769
Si       1.83820650       1.06128902       2.64646295       0.00000000      -0.00000000       0.00172769
Si       1.83820650      -1.06128902      -0.38465885      -0.00000000       0.00000000       0.00172769
