8
Lattice="2.91850372 5e-08 4e-08 9e-08 5.31564756 -1.6e-07 4e-08 -6e-08 3.25645151" Properties=species:S:1:pos:R:3:frac_pos:R:3:force:R:3:REF_forces:R:3 cutoff=-1.0 max_scf_cycles=200 mixing_scheme=Pulay pdos_calculate_weights=F mix_charge_amp=0.15 geom_stress_tol=0.01 castep_run_time=78.61 spin_polarized=F fix_occupancy=F virial="-0.17020839 -0.0 -0.0 -0.0 -0.17263908 -3.729e-05 -0.0 -3.729e-05 -0.16744429" geom_force_tol=0.005 mix_history_length=20 nneightol=1.2 task="geometry optimisation" opt_strategy=speed nextra_bands=12 write_checkpoint=none popn_calculate=F enthalpy=-723.437874 REF_energy=-54.303655 REF_virial="-0.00145113192024361 3.168013747345789e-06 -2.6600342363500622e-06 3.168013747345789e-06 -0.004276294498117761 4.142981250759065e-06 -2.6600342363500622e-06 4.142981250759065e-06 0.0027783184164011316" elec_energy_tol=1e-06 pbc="T T T" smearing_width="0.1 eV" geom_energy_tol=1e-06 castep_file_name=100.castep calculate_stress=T xc_functional=PBE finite_basis_corr=automatic cut_off_energy="800 eV"
B       0.00000005       4.48388490       2.96136063       0.00000000       0.84419300       0.91013800       0.00000000      -0.00034558       0.00104170       0.00000194       0.00012728       0.00051341 
B       1.45925201       1.82606524       2.96134601       0.50000000       0.34417400       0.91013100       0.00000000      -0.00085238       0.00053094       0.00000058       0.00010203       0.00059478 
B       0.00000011       1.82606135       1.92331648       0.00000000       0.34416600       0.58990000      -0.00000001      -0.00102753      -0.00036305       0.00000195       0.00012298      -0.00051402 
B       1.45925190       4.48388909       1.92333114       0.50000000       0.84421000       0.58993100      -0.00000001       0.00033101       0.00058509       0.00000250       0.00010346      -0.00059650 
B       0.00000016       3.48958631       1.33313500      -0.00000000       0.65583400       0.41010000      -0.00000000       0.00102755       0.00036305      -0.00000290      -0.00012525       0.00051261 
B       1.45925180       0.83175846       1.33312012       0.50000000       0.15579000       0.41006900      -0.00000000      -0.00033102      -0.00058508      -0.00000184      -0.00010251       0.00059897 
B       1.45925198       3.48958220       0.29510544       0.50000000       0.65582600       0.08986900       0.00000000       0.00085239      -0.00053095      -0.00000116      -0.00010122      -0.00059558 
B      -0.00000007       0.83176254       0.29509069      -0.00000000       0.15580700       0.08986200       0.00000001       0.00034557      -0.00104170      -0.00000107      -0.00012677      -0.00051366 
