2
Lattice="2.628509077959048 8.507917704835087e-17 2.628509077959048 2.628509077959048 2.628509077959048 4.0784971173150174e-17 -2.9548677708649237e-18 2.628509077959048 2.628509077959048" Properties=species:S:1:pos:R:3:forces:R:3 n_minim_iter=1 energy=-326.1951578266927 stress="-0.08055808994946928 7.15216646876349e-17 3.4070285976116637e-16 7.15216646876349e-17 -0.08055808994946942 -1.744060552190298e-16 3.4070285976116637e-16 -1.744060552190298e-16 -0.08055808994946945" free_energy=-326.1951578266927 pbc="T T T"
Si       0.00000000       0.00000000       0.00000000       0.00000000       0.00000000       0.00000000
Si       1.31425454       1.31425454       1.31425454      -0.00000000      -0.00000000      -0.00000000
