2
Lattice="2.899920458009006 9.386417880080339e-17 2.899920458009006 2.899920458009006 2.899920458009006 4.499629591394107e-17 -3.259977898229715e-18 2.899920458009006 2.899920458009006" Properties=species:S:1:pos:R:3:forces:R:3 n_minim_iter=1 energy=-326.046007409301 stress="0.06629764820996492 -1.421353604450179e-16 1.039696975209615e-16 -1.421353604450179e-16 0.0662976482099648 -1.1745577918142464e-16 1.039696975209615e-16 -1.1745577918142464e-16 0.06629764820996473" free_energy=-326.046007409301 pbc="T T T"
Si       0.00000000       0.00000000       0.00000000      -0.00000000      -0.00000000      -0.00000000
Si       1.44996023       1.44996023       1.44996023       0.00000000       0.00000000       0.00000000
