2
Lattice="2.7708610769796187 8.968680463062336e-17 2.7708610769796187 2.7708610769796187 2.7708610769796187 4.29937602639614e-17 -3.1148943568680765e-18 2.7708610769796187 2.7708610769796187" Properties=species:S:1:pos:R:3:forces:R:3 n_minim_iter=1 energy=-326.3340548615475 stress="0.02128388561697574 -9.656720099690984e-17 9.166761907501083e-17 -9.656720099690984e-17 0.021283885616975706 -1.4339083272941145e-16 9.166761907501083e-17 -1.4339083272941145e-16 0.021283885616975754" free_energy=-326.3340548615475 pbc="T T T"
Si       0.00000000       0.00000000       0.00000000      -0.00000000       0.00000000      -0.00000000
Si       1.38543054       1.38543054       1.38543054       0.00000000      -0.00000000       0.00000000
