2
Lattice="2.8152023628343095 9.112203654266685e-17 2.8152023628343095 2.8152023628343095 2.8152023628343095 4.3681776934905594e-17 -3.1647411074802027e-18 2.8152023628343095 2.8152023628343095" Properties=species:S:1:pos:R:3:forces:R:3 n_minim_iter=1 energy=-326.3067058713665 stress="0.03120173807374242 -1.3914349045456028e-16 4.504963592194479e-17 -1.3914349045456028e-16 0.031201738073742425 -1.1047824891922413e-16 4.504963592194479e-17 -1.1047824891922413e-16 0.031201738073742383" free_energy=-326.3067058713665 pbc="T T T"
Si       0.00000000       0.00000000       0.00000000      -0.00000000       0.00000000      -0.00000000
Si       1.40760118       1.40760118       1.40760118       0.00000000      -0.00000000       0.00000000
