2
Lattice="2.8543357708633095 1.9215483706597095e-17 2.8543357708633095 2.8543357708633095 2.8543357708633095 1.3425682031902123e-16 -2.1626267678376276e-16 2.8543357708633095 2.8543357708633095" Properties=species:S:1:pos:R:3 n_minim_iter=1 energy=-326.1762480343983 free_energy=-326.1762480343983 pbc="T T T"
Si       0.00000000      -0.00000000      -0.00000000
Si       1.42716789       1.42716789       1.42716789
