2
Lattice="2.721379389181326 1.8320416906125487e-17 2.721379389181326 2.721379389181326 2.721379389181326 1.2800307076791413e-16 -2.0979870112466062e-16 2.721379389181326 2.721379389181326" Properties=species:S:1:pos:R:3 n_minim_iter=1 stress="0.007052116928552461 -3.4298122675587224e-18 -1.7100666296231468e-17 -3.4298122675587224e-18 0.0070521169285524396 1.4769992186005237e-17 -1.7100666296231468e-17 1.4769992186005237e-17 0.0070521169285524396" pbc="T T T"
Si       0.00000000      -0.00000000      -0.00000000
Si       1.36068969       1.36068969       1.36068969
