2
Lattice="2.8960107851312333 1.9496041294044237e-17 2.8960107851312333 2.8960107851312333 2.8960107851312333 1.3621705042210718e-16 -2.1942024157785025e-16 2.8960107851312333 2.8960107851312333" Properties=species:S:1:pos:R:3 n_minim_iter=1 stress="0.05871922912225453 -1.3490976943542194e-16 -3.9240501866978985e-17 -1.3490976943542194e-16 0.0587192291222545 8.946645464447832e-17 -3.9240501866978985e-17 8.946645464447832e-17 0.05871922912225457" pbc="T T T"
Si      -0.00000000      -0.00000000      -0.00000000
Si       1.44800539       1.44800539       1.44800539
