2
Lattice="2.67404142137151 1.8001736126366417e-17 2.67404142137151 2.67404142137151 2.67404142137151 1.2577647742056322e-16 -2.0614928561138743e-16 2.67404142137151 2.67404142137151" Properties=species:S:1:pos:R:3 n_minim_iter=1 stress="-0.01936019650742673 -2.28920691854709e-17 8.084830553613576e-18 -2.28920691854709e-17 -0.01936019650742683 6.324948806925697e-17 8.084830553613576e-18 6.324948806925697e-17 -0.019360196507426902" pbc="T T T"
Si      -0.00000000      -0.00000000      -0.00000000
Si       1.33702071       1.33702071       1.33702071
