2
Lattice="2.789441893139892 1.8778615955163954e-17 2.789441893139892 2.789441893139892 2.789441893139892 1.3120446545234682e-16 -2.1134590285456943e-16 2.789441893139892 2.789441893139892" Properties=species:S:1:pos:R:3 n_minim_iter=1 stress="0.02963862819023314 -1.828485340015543e-16 3.2467261177548026e-17 -1.828485340015543e-16 0.02963862819023305 1.508968898656812e-16 3.2467261177548026e-17 1.508968898656812e-16 0.029638628190233416" pbc="T T T"
Si       0.00000000      -0.00000000      -0.00000000
Si       1.39472095       1.39472095       1.39472095
