14
Lattice="7.056678145527839 2.269874518921819 -0.29587177004895265 -0.8261833341451706 7.366577111406814 0.2958709948790708 -3.9912953395265243 -4.251812391777599 4.451866170983866" Properties=species:S:1:pos:R:3:forces:R:3 unique_starting_index=10 config_type=initial n_minim_iter=1 energy=-2278.752113034834 stress="0.003415669442665623 -0.0017551520672466096 0.002392762786596866 -0.0017551520672466096 0.001835849197708297 -0.0015470526521511117 0.002392762786596866 -0.0015470526521511117 -0.0017826023744570542" free_energy=-2278.752113034834 pbc="T T T"
Si       2.45638645       4.99019768       2.56293052      -0.00191542       0.09012160       0.05843938
Si      -0.44882704       0.03617335       1.88893491       0.08296832       0.03523959      -0.05843939
Si       0.99366134       3.13440144       2.32390062      -0.02984566      -0.07221462      -0.03627656
Si       4.68966883       7.57713397       2.12796435      -0.05360400      -0.05685355       0.03627657
Si      -0.24211927      -3.00564027       3.96693227       0.00191542      -0.09012160      -0.05843938
Si      -0.40228860       3.93032192       0.48493348      -0.08296832      -0.03523959       0.05843939
Si       1.22060583      -1.14984403       4.20596217       0.02984566       0.07221462       0.03627656
Si       0.68971035       6.02581294       0.24590326       0.05360400       0.05685355      -0.03627657
Si       4.22436739       6.53365636      -0.00000053       0.01489400       0.02303595      -0.00000000
Si      -2.47177918      -1.90163885       4.45186598       0.03157924       0.04884232      -0.00000000
Si       1.15501179       7.06929055       2.37386814      -0.01489400      -0.02303595       0.00000000
Si      -2.37063180       1.61632174       2.37386858      -0.03157924      -0.04884232       0.00000000
Si       3.27025972       1.69645695       2.07799698      -0.01379926      -0.02134275       0.00000000
Si       2.93530280       4.53991285      -0.00000037       0.01379926       0.02134275      -0.00000000
14
Lattice="7.024813600470347 2.2825806579090946 -0.3187548273602095 -0.8015192138760956 7.342734369743187 0.31875405308617183 -3.9986844147059983 -4.239138911497314 4.469916228159181" Properties=species:S:1:pos:R:3:forces:R:3 unique_starting_index=10 config_type=initial n_minim_iter=2 energy=-2278.760277361192 stress="-0.0012995617096018192 0.00022671223167915276 -0.00011493702902059081 0.00022671223167915276 -0.0010954970476538413 7.431287177769218e-05 -0.00011493702902059081 7.431287177769218e-05 -0.0037464348204821365" free_energy=-2278.760277361192 pbc="T T T"
Si       2.44686945       4.98936837       2.57394891      -0.02102882       0.05487772       0.03082863
Si      -0.45306655       0.03982789       1.89596657       0.05867351       0.00334578      -0.03082863
Si       0.98775127       3.13321957       2.33458215      -0.02070479      -0.08789548       0.01088446
Si       4.67642710       7.57279639       2.13533287      -0.07165489      -0.05495345      -0.01088445
Si      -0.26501848      -2.98780012       3.97154743       0.02102882      -0.05487772      -0.03082863
Si      -0.39121166       3.91829860       0.49836838      -0.05867351      -0.00334578       0.03082863
Si       1.19409970      -1.13165133       4.21091420       0.02070479       0.08789548      -0.01088446
Si       0.70258907       6.01064513       0.25900130       0.07165489       0.05495345       0.01088445
Si       4.21958927       6.52626624      -0.00000052       0.01285892       0.01988836      -0.00000000
Si      -2.48070407      -1.89134077       4.46991604       0.03067741       0.04744750      -0.00000000
Si       1.15942690       7.05717529       2.39433470      -0.01285892      -0.01988836       0.00000000
Si      -2.36225856       1.61032835       2.39433514      -0.03067741      -0.04744750       0.00000000
Si       3.24852860       1.70589212       2.07558048      -0.00544387      -0.00841981       0.00000000
Si       2.93200678       4.53481503      -0.00000036       0.00544387       0.00841981      -0.00000000
14
Lattice="7.025167457173635 2.2867981236000214 -0.325245915134088 -0.7978185150352904 7.344787919367403 0.32524514035560087 -4.004375970211439 -4.239905260787447 4.491339973635411" Properties=species:S:1:pos:R:3:forces:R:3 unique_starting_index=10 config_type=initial n_minim_iter=3 energy=-2278.762397627383 stress="0.00044463538801527223 0.00022958738893295418 -0.0004064940545911693 0.00022958738893295418 0.0006512880426449754 0.00026282065208752106 -0.0004064940545911693 0.00026282065208752106 2.9967542837427704e-05" free_energy=-2278.762397627383 pbc="T T T"
Si       2.44663894       4.99413642       2.58657812      -0.00781789       0.03432931       0.02711714
Si      -0.45431549       0.04080817       1.90476111       0.03451352       0.00695972      -0.02711715
Si       0.98694866       3.13559750       2.34609701      -0.02977241      -0.10219281       0.01555730
Si       4.67728793       7.57854507       2.14524176      -0.08097128      -0.06908994      -0.01555728
Si      -0.27010746      -2.98690571       3.98780830       0.00781789      -0.03432931      -0.02711714
Si      -0.38994451       3.91952968       0.50353126      -0.03451352      -0.00695972       0.02711715
Si       1.18958282      -1.12836678       4.22828941       0.02977241       0.10219281      -0.01555730
Si       0.70580100       6.01337883       0.26304983       0.08097128       0.06908994       0.01555728
Si       4.22242032       6.53064490      -0.00000053       0.02034510       0.03146693      -0.00000000
Si      -2.48521837      -1.89028630       4.49133978       0.03785430       0.05854770      -0.00000000
Si       1.16066862       7.06127899       2.40829211      -0.02034510      -0.03146693       0.00000000
Si      -2.36341760       1.61071889       2.40829255      -0.03785430      -0.05854770       0.00000000
Si       3.24694213       1.70929174       2.08304681      -0.01052243      -0.01627460       0.00000000
Si       2.93396533       4.53784424      -0.00000037       0.01052243       0.01627460      -0.00000000
14
Lattice="7.012861067298929 2.278490121924552 -0.32037424067068804 -0.8003440188819577 7.330156037332344 0.3203734677375179 -3.9915879176125615 -4.231908679489162 4.498984716686817" Properties=species:S:1:pos:R:3:forces:R:3 unique_starting_index=10 config_type=initial n_minim_iter=4 energy=-2278.763033726426 stress="-0.0007293708608116534 -0.0008918560126258805 0.00033748761327187396 -0.0008918560126258805 -0.0015321343014489516 -0.00021820402155580033 0.00033748761327187396 -0.00021820402155580033 0.0008894531344950926" free_energy=-2278.763033726426 pbc="T T T"
Si       2.44248365       4.98172916       2.59143357       0.01901247       0.03083370       0.04138384
Si      -0.45113632       0.03992353       1.90755040       0.02031456       0.02999182      -0.04138385
Si       0.98547474       3.12556065       2.34992577      -0.05331602      -0.11265803       0.00132793
Si       4.66669636       7.55813852       2.14905775      -0.08085216      -0.09485441      -0.00132791
Si      -0.26404720      -2.98386249       3.99685581      -0.01901247      -0.03083370      -0.04138384
Si      -0.39170038       3.91136170       0.50212849      -0.02031456      -0.02999182       0.04138385
Si       1.19296171      -1.12769398       4.23836360       0.05331602       0.11265803      -0.00132793
Si       0.70298399       6.00179287       0.26062038       0.08085216       0.09485441       0.00132791
Si       4.21269052       6.51559623      -0.00000052       0.02697850       0.04172654      -0.00000000
Si      -2.47542393      -1.88691982       4.49898453       0.03167400       0.04898889      -0.00000000
Si       1.15698982       7.04433516       2.40967865      -0.02697850      -0.04172654       0.00000000
Si      -2.35900069       1.60629637       2.40967909      -0.03167400      -0.04898889       0.00000000
Si       3.24287549       1.70247385       2.08930502      -0.00327385      -0.00506353       0.00000000
Si       2.92714887       4.52730150      -0.00000036       0.00327385       0.00506353      -0.00000000
14
Lattice="7.0115789155809605 2.2892767701410164 -0.31605707065565414 -0.7899814341348494 7.333413723685885 0.3160562965927376 -3.991349452500149 -4.242020526622465 4.499850100470446" Properties=species:S:1:pos:R:3:forces:R:3 unique_starting_index=10 config_type=initial n_minim_iter=5 energy=-2278.764716905554 stress="-0.0007162091410090191 0.0010008639635435848 0.0007930240895284816 0.0010008639635435848 0.00018467261931649832 -0.000512733630606474 0.0007930240895284816 -0.000512733630606474 0.0003732104058293515" free_energy=-2278.764716905554 pbc="T T T"
Si       2.44963284       4.98802190       2.59311651      -0.00394299      -0.02465236       0.03766086
Si      -0.44809355       0.03891362       1.90673284      -0.02086236      -0.01371307      -0.03766086
Si       0.98951718       3.12376883       2.35042749      -0.02274231      -0.06132012      -0.00153503
Si       4.67272225       7.56502196       2.14942141      -0.04658451      -0.04590483       0.00153504
Si      -0.26466944      -2.98939642       3.99862952       0.00394299       0.02465236      -0.03766086
Si      -0.38717253       3.91245561       0.50122016       0.02086236       0.01371307       0.03766086
Si       1.19544621      -1.12514336       4.24131854       0.02274231       0.06132012       0.00153503
Si       0.71360916       6.00903777       0.25853082       0.04658451       0.04590483      -0.00153504
Si       4.21964492       6.52635231      -0.00000052      -0.00816674      -0.01263116       0.00000000
Si      -2.47166135      -1.89158106       4.49984991       0.03103265       0.04799693      -0.00000000
Si       1.16668649       7.04770742       2.40795276       0.00816674       0.01263116      -0.00000000
Si      -2.35495417       1.60092977       2.40795319      -0.03103265      -0.04799693       0.00000000
Si       3.24458373       1.70626043       2.09189630      -0.01214306      -0.01878118       0.00000000
Si       2.93172911       4.53438557      -0.00000036       0.01214306       0.01878118      -0.00000000
14
Lattice="7.018934505245924 2.2766463809467234 -0.3252332115759756 -0.8045178972362846 7.334937749480656 0.32523243840647076 -3.9975336396168957 -4.230147514247924 4.499233843571637" Properties=species:S:1:pos:R:3:forces:R:3 unique_starting_index=10 config_type=initial n_minim_iter=6 energy=-2278.767478939346 stress="0.00022436477201441028 0.0005511425002589664 -9.524013959231982e-05 0.0005511425002589664 0.0007204504917888919 6.157787024159628e-05 -9.524013959231982e-05 6.157787024159628e-05 -0.0002486989478167798" free_energy=-2278.767478939346 pbc="T T T"
Si       2.44030947       4.98794114       2.59517905      -0.00828117      -0.04978420       0.02202389
Si      -0.45052503       0.04225148       1.90405405      -0.04199977      -0.02798328      -0.02202388
Si       0.97947941       3.11813906       2.35122329       0.00856523      -0.02389850      -0.01768506
Si       4.65834292       7.55432464       2.14800935      -0.02530834      -0.00199738       0.01768506
Si      -0.26633022      -2.98615111       3.99105453       0.00828117       0.04978420      -0.02202389
Si      -0.39689658       3.91303968       0.50817890       0.04199977       0.02798328       0.02202388
Si       1.19449984      -1.11634903       4.23501029      -0.00856523       0.02389850       0.01768506
Si       0.70865207       6.01255065       0.26422282       0.02530834       0.00199738      -0.01768506
Si       4.21578211       6.52037786      -0.00000052      -0.01590487      -0.02459942       0.00000000
Si      -2.47727305      -1.87882261       4.49923365       0.03156597       0.04882180      -0.00000000
Si       1.15121288       7.04649743       2.41223270       0.01590487       0.02459942      -0.00000000
Si      -2.36768220       1.60396626       2.41223314      -0.03156597      -0.04882180       0.00000000
Si       3.24255323       1.70183536       2.08700010      -0.01359490      -0.02102668       0.00000000
Si       2.92895966       4.53010218      -0.00000036       0.01359490       0.02102668      -0.00000000
14
Lattice="7.016165612817298 2.2686189226376667 -0.3266015848547552 -0.8107018011219922 7.329118283708879 0.32660081279911657 -3.994297341287299 -4.222422259265832 4.503566719536218" Properties=species:S:1:pos:R:3:forces:R:3 unique_starting_index=10 config_type=initial n_minim_iter=7 energy=-2278.768417121144 stress="0.00013267072307382923 2.9055460661671073e-05 -9.722246884427997e-05 2.9055460661671073e-05 0.0001588236836493311 6.285963818639104e-05 -9.722246884427997e-05 6.285963818639104e-05 -0.00011239368037731569" free_energy=-2278.768417121144 pbc="T T T"
Si       2.43513693       4.98216297       2.59959957      -0.00384500      -0.06290557       0.01854879
Si      -0.45043503       0.04288849       1.90396640      -0.05578583      -0.02932298      -0.01854879
Si       0.97484997       3.11012181       2.35351880       0.01397622      -0.00720442      -0.02522843
Si       4.64721541       7.54069105       2.15004672      -0.01230564       0.00978825       0.02522843
Si      -0.26440227      -2.98318398       3.99244913       0.00384500       0.06290557      -0.01854879
Si      -0.40069859       3.90989383       0.51111717       0.05578583       0.02932298       0.01854879
Si       1.19588469      -1.11114282       4.23852991      -0.01397622       0.00720442       0.02522843
Si       0.70711479       6.00982848       0.26503608       0.01230564      -0.00978825      -0.02522843
Si       4.21024095       6.51180758      -0.00000052      -0.01433111      -0.02216534       0.00000000
Si      -2.47417690      -1.87131411       4.50356653       0.02733350       0.04227560      -0.00000000
Si       1.14408924       7.03871195       2.41508332       0.01433111       0.02216534      -0.00000000
Si      -2.37125406       1.60167418       2.41508376      -0.02733350      -0.04227560       0.00000000
Si       3.23970325       1.69691486       2.08848235      -0.00985466      -0.01524180       0.00000000
Si       2.92532874       4.52448639      -0.00000036       0.00985466       0.01524180      -0.00000000
14
Lattice="7.010389386482555 2.259505224601194 -0.32735037235372433 -0.8166420286247557 7.3201106215481095 0.32734960175579364 -3.988602261272064 -4.213256095054762 4.512095858692453" Properties=species:S:1:pos:R:3:forces:R:3 unique_starting_index=10 config_type=initial n_minim_iter=8 energy=-2278.769456580319 stress="-0.0001025524031276554 -0.0006722649509228303 2.129333733565847e-05 -0.0006722649509228303 -0.0007076609416199289 -1.376720402285454e-05 2.129333733565847e-05 -1.376720402285454e-05 0.0001891827397461701" free_energy=-2278.769456580319 pbc="T T T"
Si       2.42906080       4.97161868       2.60864036      -0.00731894      -0.06392785       0.00735559
Si      -0.45186166       0.04218638       1.90345476      -0.05529232      -0.03291042      -0.00735558
Si       0.96962941       3.09676787       2.35682291       0.01659679       0.01372716      -0.01639658
Si       4.63115907       7.52149470       2.15527176       0.00570646       0.02076836       0.01639658
Si      -0.26145897      -2.97703831       3.99582766       0.00731894       0.06392785      -0.00735559
Si      -0.40232364       3.90614485       0.51626778       0.05529232       0.03291042       0.00735558
Si       1.19797241      -1.10218751       4.24764512      -0.01659679      -0.01372716       0.01639658
Si       0.70840299       6.00645238       0.26445001      -0.00570646      -0.02076836      -0.01639658
Si       4.20267760       6.50010964      -0.00000052       0.00163756       0.00253275      -0.00000000
Si      -2.46671390      -1.85941358       4.51209567       0.01571816       0.02431063      -0.00000000
Si       1.13688446       7.02783744       2.41972229      -0.00163756      -0.00253275       0.00000000
Si      -2.37607366       1.59448872       2.41972273      -0.01571816      -0.02431063       0.00000000
Si       3.23501557       1.68975360       2.09237253       0.00033821       0.00052310      -0.00000000
Si       2.92118851       4.51808286      -0.00000036      -0.00033821      -0.00052310       0.00000000
14
Lattice="7.011126830961456 2.272969996094694 -0.32598043074680605 -0.804666103855705 7.326309098564596 0.3259796585671356 -3.9925716104459803 -4.2246312626195275 4.51298685864466" Properties=species:S:1:pos:R:3:forces:R:3 unique_starting_index=10 config_type=initial n_minim_iter=9 energy=-2278.770998358415 stress="-1.8151690223323706e-05 0.0001011998796480414 4.574685168908604e-05 0.0001011998796480414 7.293874276647518e-05 -2.957786838689361e-05 4.574685168908604e-05 -2.957786838689361e-05 -8.860930660047177e-05" free_energy=-2278.770998358415 pbc="T T T"
Si       2.43566561       4.97295618       2.61139500      -0.03798943      -0.01249494      -0.01027573
Si      -0.45732198       0.03738308       1.90159111       0.00419684      -0.03977067       0.01027573
Si       0.97604144       3.09971012       2.35487074       0.00836542       0.00122452       0.03515757
Si       4.63995461       7.53683745       2.15811492      -0.00231656       0.00813101      -0.03515757
Si      -0.26411406      -2.97395875       3.99509449       0.03798943       0.01249494       0.01027573
Si      -0.38968170       3.91327562       0.51789195      -0.00419684       0.03977067      -0.01027573
Si       1.19551010      -1.10071268       4.25161875      -0.00836542      -0.00122452      -0.03515757
Si       0.71950244       6.01310035       0.26136737       0.00231656      -0.00813101       0.03515757
Si       4.21043248       6.51210380      -0.00000052       0.02180825       0.03372993      -0.00000000
Si      -2.46425868      -1.86085213       4.51298667       0.00532408       0.00823454      -0.00000000
Si       1.14902457       7.03783400       2.41948282      -0.02180825      -0.03372993       0.00000000
Si      -2.37531660       1.58687957       2.41948326      -0.00532408      -0.00823454       0.00000000
Si       3.23601344       1.69484110       2.09350300       0.00246146       0.00380704      -0.00000000
Si       2.92810971       4.52878760      -0.00000036      -0.00246146      -0.00380704       0.00000000
14
Lattice="7.010398345909429 2.2752427598834677 -0.32946236156320874 -0.8022945885248473 7.326577542543172 0.32946158917911983 -3.995583223490894 -4.224485847655438 4.517498766027673" Properties=species:S:1:pos:R:3:forces:R:3 unique_starting_index=10 config_type=initial n_minim_iter=10 energy=-2278.771704744995 stress="0.00013786075401131314 -0.00012010488591243442 -6.862927471560032e-05 -0.00012010488591243442 2.9753848706817645e-05 4.437261625522714e-05 -6.862927471560032e-05 4.437261625522714e-05 0.0002491088421938843" free_energy=-2278.771704744995 pbc="T T T"
Si       2.43220874       4.97151862       2.61483726      -0.01383684      -0.00214250      -0.00809502
Si      -0.46022579       0.03378619       1.90266076       0.00372494      -0.01349716       0.00809502
Si       0.97598762       3.09894730       2.35906289      -0.00389610      -0.00646313       0.01531427
Si       4.63791250       7.53916193       2.15843468      -0.00429478      -0.00620537      -0.01531427
Si      -0.26430658      -2.96926078       3.99667913       0.01383684       0.00214250       0.00809502
Si      -0.38668717       3.91771475       0.52081922      -0.00372494       0.01349716      -0.00809502
Si       1.19191454      -1.09668946       4.25245350       0.00389610       0.00646313      -0.01531427
Si       0.72327829       6.01415931       0.26504453       0.00429478       0.00620537       0.01531427
Si       4.21303701       6.51613213      -0.00000052       0.00167087       0.00258426      -0.00000000
Si      -2.46451362      -1.85644308       4.51749858      -0.00254868      -0.00394194       0.00000000
Si       1.14815378       7.03718911       2.42347974      -0.00167087      -0.00258426       0.00000000
Si      -2.37798256       1.58345817       2.42348018       0.00254868       0.00394194      -0.00000000
Si       3.23424631       1.69620937       2.09401799      -0.00931526      -0.01440753       0.00000000
Si       2.92923907       4.53053433      -0.00000036       0.00931526       0.01440753      -0.00000000
14
Lattice="7.009730689634544 2.27732576389984 -0.3294955512113802 -0.8001210804746832 7.326823577910386 0.3294947786399401 -3.9960535796960657 -4.225833064164144 4.51737141357457" Properties=species:S:1:pos:R:3:forces:R:3 unique_starting_index=10 config_type=initial n_minim_iter=11 energy=-2278.771815865613 stress="1.696207299898064e-05 -3.0407147715221574e-05 -8.264606705497842e-06 -3.0407147715221574e-05 -1.0407528217959138e-05 5.343525938536491e-06 -8.264606705497842e-06 5.343525938536491e-06 2.1601898418589126e-05" free_energy=-2278.771815865613 pbc="T T T"
Si       2.43183244       4.97128955       2.61492752      -0.00653119      -0.00171453      -0.00554819
Si      -0.46075061       0.03200180       1.90244316       0.00111694      -0.00665947       0.00554819
Si       0.97673808       3.09854330       2.35982131      -0.00636369      -0.00430427       0.00509986
Si       4.63827159       7.54066229       2.15754890      -0.00131339      -0.00756957      -0.00509986
Si      -0.26384025      -2.96826424       3.99638125       0.00653119       0.00171453       0.00554819
Si      -0.38493432       3.91953080       0.52098975      -0.00111694       0.00665947      -0.00554819
Si       1.19125411      -1.09551799       4.25148745       0.00636369       0.00430427      -0.00509986
Si       0.72565309       6.01501966       0.26588323       0.00131339       0.00756957       0.00509986
Si       4.21456613       6.51849716      -0.00000052      -0.00825903      -0.01277390       0.00000000
Si      -2.46383118      -1.85600731       4.51737122      -0.00528627      -0.00817606       0.00000000
Si       1.14935855       7.03718479       2.42343265       0.00825903       0.01277390      -0.00000000
Si      -2.37790733       1.58170685       2.42343309       0.00528627       0.00817606      -0.00000000
Si       3.23379264       1.69675565       2.09393772      -0.01170070      -0.01809700       0.00000000
Si       2.93025312       4.53210272      -0.00000036       0.01170070       0.01809700      -0.00000000
14
Lattice="7.0090204810079495 2.2801501978473735 -0.3295827908023979 -0.7972539960459297 7.327335095595801 0.32958201796260916 -3.9967950129651055 -4.227718931955901 4.5175402389677455" Properties=species:S:1:pos:R:3:forces:R:3 unique_starting_index=10 config_type=initial n_minim_iter=12 energy=-2278.771885749377 stress="-7.680364467093483e-05 6.879600271168198e-05 4.68318469236724e-05 6.879600271168198e-05 -1.4880078992037973e-05 -3.0279373511974153e-05 4.68318469236724e-05 -3.0279373511974153e-05 -0.00014968301237301682" free_energy=-2278.771885749377 pbc="T T T"
Si       2.43162508       4.97152916       2.61493945      -0.00069381      -0.00299135      -0.00167404
Si      -0.46118843       0.03002519       1.90260005      -0.00244307      -0.00186035       0.00167404
Si       0.97741983       3.09825586       2.36088067      -0.00841990      -0.00015413      -0.00572062
Si       4.63914513       7.54261610       2.15665837       0.00331501      -0.00774139       0.00572062
Si      -0.26348250      -2.96741848       3.99657893       0.00069381       0.00299135       0.00167404
Si      -0.38289445       3.92165423       0.52096089       0.00244307       0.00186035      -0.00167404
Si       1.19072276      -1.09414518       4.25063771       0.00841990       0.00015413       0.00572062
Si       0.72853848       6.01654861       0.26690179      -0.00331501       0.00774139      -0.00572062
Si       4.21609792       6.52086630      -0.00000052      -0.01034699      -0.01600326       0.00000000
Si      -2.46355400      -1.85631773       4.51754005      -0.00565872      -0.00875211       0.00000000
Si       1.15158569       7.03829841       2.42356069       0.01034699       0.01600326      -0.00000000
Si      -2.37732390       1.58027821       2.42356113       0.00565872       0.00875211      -0.00000000
Si       3.23285699       1.69690039       2.09397851      -0.00593386      -0.00917767       0.00000000
Si       2.93208061       4.53492923      -0.00000036       0.00593386       0.00917767      -0.00000000
14
Lattice="7.009219345409903 2.280247684476762 -0.32994955680513294 -0.7972467123855981 7.327556449747286 0.3299487839396963 -3.9971831482326365 -4.22769404457022 4.518076147352969" Properties=species:S:1:pos:R:3:forces:R:3 unique_starting_index=10 config_type=initial n_minim_iter=13 energy=-2278.771942272533 stress="7.786340741997473e-06 -3.027175244120856e-06 -5.820085725150691e-06 -3.027175244120856e-06 5.0615684874878e-06 3.7630052762578393e-06 -5.820085725150691e-06 3.7630052762578393e-06 8.804966986094868e-06" free_energy=-2278.771942272533 pbc="T T T"
Si       2.43154472       4.97193757       2.61485530      -0.00350141      -0.00294907      -0.00107086
Si      -0.46117116       0.03014440       1.90322011      -0.00125227      -0.00440326       0.00107086
Si       0.97685316       3.09860267       2.36111330      -0.00799993      -0.00031019      -0.00372824
Si       4.63951196       7.54258541       2.15696165       0.00300034      -0.00742247       0.00372824
Si      -0.26373029      -2.96750169       3.99728357       0.00350141       0.00294907       0.00107086
Si      -0.38305061       3.92173784       0.52079216       0.00125227       0.00440326      -0.00107086
Si       1.19096127      -1.09416678       4.25102556       0.00799993       0.00031019       0.00372824
Si       0.72823890       6.01710097       0.26704985      -0.00300034       0.00742247      -0.00372824
Si       4.21558442       6.52007210      -0.00000052       0.00224275       0.00346877      -0.00000000
Si      -2.46449639      -1.85715008       4.51807596      -0.00209500      -0.00324025       0.00000000
Si       1.15216644       7.03961428       2.42401202      -0.00224275      -0.00346877       0.00000000
Si      -2.37690853       1.58133829       2.42401246       0.00209500       0.00324025      -0.00000000
Si       3.23232324       1.69628241       2.09406308       0.00423516       0.00655035      -0.00000000
Si       2.93267434       4.53584752      -0.00000036      -0.00423516      -0.00655035       0.00000000
