6
Lattice="4.807208067067971 -3.066889643760454e-16 8.448377183080364e-14 3.006801944779708e-16 4.802331323898872 -2.728193540829289e-14 -7.224556277677178e-14 2.747212926053755e-14 4.801992417476016" Properties=species:S:1:pos:R:3:forces:R:3 unique_starting_index=12 config_type=initial n_minim_iter=12 energy=-974.5863280915268 stress="-1.2799452851554548e-05 -1.3562144282927963e-17 -1.0484699279496907e-16 -1.3562144282927963e-17 3.374311565192633e-05 8.168338074044719e-17 -1.0484699279496907e-16 8.168338074044719e-17 9.693463555695806e-06" free_energy=-974.5863280915268 pbc="T T T"
Si       0.33673443       2.40116566       3.57486095       0.00126807      -0.00000000      -0.00126363
Si       0.33673443       2.40116566       1.22713147       0.00126807       0.00000000       0.00126363
Si       2.74205486       1.22726590       2.40099621      -0.00126549       0.00061615      -0.00000000
Si       2.74205486       3.57506542       2.40099621      -0.00126549      -0.00061615      -0.00000000
Si       0.33790194      -0.00000000       0.00000000      -0.00649345      -0.00000000       0.00000000
Si       2.74090829      -0.00000000       0.00000000       0.00648829       0.00000000       0.00000000
