8
Lattice="5.828744677997577 0.5182498876064413 0.741843614220091 -2.3923119269136683 5.340383049148777 -0.7418436142200808 -2.3923122973568756 -2.5339195680932485 4.759125225248567" Properties=species:S:1:pos:R:3:forces:R:3 unique_starting_index=16 config_type=initial n_minim_iter=17 energy=-1301.776735281764 stress="-5.979953291427653e-05 0.00010469102919959698 0.00014985883453685144 0.00010469102919959698 5.7276453977799274e-05 -8.790101933316339e-05 0.00014985883453685144 -8.790101933316339e-05 -7.141058359196419e-06" free_energy=-1301.776735281764 pbc="T T T"
Si      -0.63789685       0.37401040       2.78902486       0.00286747      -0.00128643      -0.00352566
Si       3.34416528       1.97575543       0.57452317       0.00355732      -0.00248209      -0.00186875
Si       1.68188371       0.83471333       3.44816606      -0.00252226       0.00266534       0.00297350
Si      -2.29991007       3.46494689       2.70653707      -0.00390253       0.00110318       0.00242090
Si       1.68188381       2.95047404       1.97010072      -0.00252226       0.00187496       0.00352566
Si      -2.29991017       1.34918618       4.18460241      -0.00390253       0.00189356       0.00186875
Si       3.34416518      -0.14031251       2.05280314       0.00355732      -0.00090070      -0.00297350
Si      -0.63789675       2.49007834       1.31074489       0.00286747      -0.00286782      -0.00242090
