22
Lattice="5.388733736692968 -1.4097025673960857 1.0641004403608882 -3.7361222399059897 11.153363025112474 -3.263128539379516 0.0911380546521609 -5.144965083515346 9.56064651881469" Properties=species:S:1:pos:R:3:forces:R:3 unique_starting_index=18 config_type=initial n_minim_iter=1 energy=-3579.226589544048 stress="0.0021837697291199744 0.0032550501917808228 -0.0028758645158739105 0.0032550501917808228 0.01140831390521896 0.004277792055301999 -0.0028758645158739105 0.004277792055301999 -0.004245553676063605" free_energy=-3579.226589544048 pbc="T T T"
Si       0.36385732       9.47416346      -0.76161343      -0.26486400      -0.59935661      -0.00260589
Si       1.74004399      -0.57345755       5.44355651       0.36739699       0.07593204       0.58314463
Si       0.18729884      -4.57557812       9.25373249      -0.92188914       0.52203373      -0.18262246
Si       4.45344626      -3.16987353       9.16445258      -0.28814741       0.61528243      -1.34074306
Si      -1.41616048       0.40049030       7.35330412       0.08402206      -0.14634036      -0.22575410
Si       3.73291761       1.90172229       1.44648241       0.72026841      -0.77472611       1.55402630
Si       1.73469722      -0.12632903       1.51778313       0.25803552       0.43868561      -0.06800119
Si       1.81116865      -0.29772671       7.86954775      -0.20094209      -0.46946744      -0.39646364
Si       2.51073680      -4.71548598       9.01703906       0.23081090       0.18285249       0.02200548
Si      -0.30161292       0.67446076       5.28556494      -0.28775827      -0.07681121       0.12358059
Si       3.89935862      -0.38572222       4.41593328      -0.28466873       0.72798428      -0.15283504
Si      -0.59690754       4.67897254       4.15090074       0.08392038      -0.52966400       0.38285878
Si      -0.38944184      -1.75208080       4.77174982       0.14894028       0.62769034      -0.20809049
Si      -1.86719438       7.89937044      -1.68277075       0.61334757       0.01243970      -0.18133648
Si       2.50351077       1.97405062       5.03975031      -0.39732991       0.03615900       0.32578696
Si      -0.12509738       6.99851928      -0.39717740       0.08972005      -0.27353849      -0.05848897
Si       0.31562944      -1.77245308       2.50738209      -0.18794035      -0.32867664       0.21851804
Si       5.03942252      -4.79061965       7.53151110      -0.01947312      -0.37676320       0.20772517
Si       1.81754667       1.89505808       2.79673627      -0.18896652       0.14550993      -0.36666302
Si       0.10415604       3.08132693       5.86244119       0.69065984       0.26921184      -0.18422457
Si      -0.32470142       2.97732692       2.42557038      -0.12711200      -0.01112303      -0.19342573
Si       1.76984568      -2.78300194       7.40095863      -0.11803046      -0.06731431       0.14360869
22
Lattice="5.382574885242425 -1.4188996951788275 1.1039515454232318 -3.793103932374151 11.00103618640798 -3.373347766725796 0.15831532314059246 -5.118993929322435 9.656850890389565" Properties=species:S:1:pos:R:3:forces:R:3 unique_starting_index=18 config_type=initial n_minim_iter=2 energy=-3579.397593105318 stress="-0.003304156060301082 0.0015011632392692013 0.0007978151439258734 0.0015011632392692013 -0.003326212674833333 -0.0010992305876820815 0.0007978151439258734 -0.0010992305876820815 -0.0021261904056117976" free_energy=-3579.397593105318 pbc="T T T"
Si       0.31175705       9.31231058      -0.82653220      -0.16206803      -0.56338075      -0.32436437
Si       1.76235295      -0.60729481       5.49244265       0.46197102      -0.00043020       0.65560863
Si       0.24690188      -4.55614113       9.34401613      -0.87975403       0.29509217       0.03742604
Si       4.49375063      -3.19473622       9.25991263      -0.18045026       0.58439380      -0.52592645
Si      -1.38076848       0.35231944       7.39167598       0.00326551      -0.13421186      -0.26538334
Si       3.72004936       1.83860787       1.46530087       0.68190440      -0.45833555       0.75733970
Si       1.73713741      -0.14111417       1.53591579       0.18810109       0.36649678      -0.34139822
Si       1.84066741      -0.35419158       7.92947320      -0.06647305      -0.42921577      -0.50009507
Si       2.56618446      -4.70469159       9.11764427       0.18955330       0.17101159       0.16003983
Si      -0.28160486       0.62974800       5.31475332      -0.47472983      -0.03196607      -0.04710836
Si       3.90687832      -0.42456858       4.46389838      -0.22516627       0.53700488       0.09056808
Si      -0.59939307       4.57266797       4.14625998       0.12645192      -0.54359426       0.45287738
Si      -0.35801013      -1.74893912       4.81183323       0.10470309       0.39017526      -0.27900203
Si      -1.90530240       7.78360096      -1.75390581       0.70085779       0.04153702      -0.15120571
Si       2.50640665       1.89512523       5.07193448      -0.53802210       0.05573705       0.17492833
Si      -0.16060173       6.88038002      -0.44598009      -0.19483521      -0.24513769       0.00065654
Si       0.33374742      -1.76088475       2.53739116      -0.27601622      -0.32556858       0.37767765
Si       5.07951762      -4.78318424       7.63469402       0.07830480      -0.39788383       0.03254145
Si       1.81389676       1.83581650       2.80943470      -0.19119641       0.40634607      -0.01220033
Si       0.11677913       2.99058316       5.88050979       0.72024251       0.47954867      -0.12889249
Si      -0.32803238       2.91190231       2.41996455      -0.01191372       0.04886287      -0.27010503
Si       1.80993594      -2.79213644       7.47561112      -0.05473030      -0.24648160       0.10601778
22
Lattice="5.425301949806266 -1.4499048570660786 1.1116998235355162 -3.8784479133078156 11.032274295095796 -3.3985301249580706 0.18635211184643768 -5.124780598202782 9.730389826106444" Properties=species:S:1:pos:R:3:forces:R:3 unique_starting_index=18 config_type=initial n_minim_iter=3 energy=-3579.466810689184 stress="0.005196564992754893 -7.129456500463333e-05 0.0021163689683450595 -7.129456500463333e-05 0.0016563707076771362 -0.001543046535197658 0.0021163689683450595 -0.001543046535197658 0.008967167254045998" free_energy=-3579.466810689184 pbc="T T T"
Si       0.26094129       9.31569099      -0.83453218      -0.10445243      -0.43305523      -0.31892936
Si       1.77932019      -0.61764157       5.53842173       0.39654188       0.09022825       0.62859077
Si       0.26652408      -4.55961074       9.41504612      -0.69905044       0.16075018       0.20504670
Si       4.53791137      -3.21875412       9.32520211      -0.07706555       0.36869031      -0.13665940
Si      -1.39269971       0.35930377       7.44644769       0.01667283       0.00147436      -0.32637696
Si       3.73844647       1.81631962       1.48228401       0.41708532      -0.29118308       0.27326525
Si       1.75027226      -0.14838793       1.54545794       0.08672129       0.39752996      -0.36871368
Si       1.85279894      -0.36753107       7.98646926       0.07522993      -0.48416357      -0.47424200
Si       2.60895764      -4.72227044       9.18767143       0.14679248       0.14798533       0.15002795
Si      -0.29063314       0.63159992       5.35518345      -0.44270661      -0.05752981      -0.05964202
Si       3.93234901      -0.44284096       4.49766004      -0.18470601       0.40948804       0.07869799
Si      -0.62850019       4.57667932       4.18095952       0.14985721      -0.55945262       0.50342988
Si      -0.35064268      -1.74583839       4.84672287       0.18172249       0.33722498      -0.26399583
Si      -1.95621207       7.80157987      -1.76802272       0.53788090       0.04477707      -0.14400335
Si       2.50802919       1.88338466       5.11164068      -0.61805782       0.04493912       0.05490024
Si      -0.20073217       6.88611147      -0.44938617      -0.27608281      -0.19776456      -0.05649714
Si       0.34366868      -1.76650012       2.55901735      -0.21711406      -0.35271208       0.30527367
Si       5.13842231      -4.81828634       7.69271711       0.06884743      -0.19028091       0.04656695
Si       1.81375560       1.82978633       2.83002943      -0.13460002       0.39855995       0.02295520
Si       0.10468826       2.99540286       5.92438039       0.74829996       0.42569824      -0.10361337
Si      -0.34698023       2.91665978       2.43673971       0.02578365       0.02259675      -0.14118740
Si       1.83568110      -2.80616829       7.53312022      -0.09759961      -0.28380068       0.12510590
22
Lattice="5.437008080555101 -1.4978285579386141 1.0729893996977966 -3.9762402361970977 11.037811285313133 -3.3206677204805044 0.18978608638059574 -5.082681452492852 9.653685095242002" Properties=species:S:1:pos:R:3:forces:R:3 unique_starting_index=18 config_type=initial n_minim_iter=4 energy=-3579.563296185526 stress="0.00413071251449663 -0.002419707823075801 0.0012143891023529087 -0.002419707823075801 -0.002661826907018352 -0.0006820333581508855 0.0012143891023529087 -0.0006820333581508855 0.006017367532984176" free_energy=-3579.563296185526 pbc="T T T"
Si       0.16708864       9.28303666      -0.80335306      -0.07016337      -0.27467635      -0.30102141
Si       1.76591638      -0.61472879       5.50564312       0.36137669       0.20810563       0.44966453
Si       0.25116580      -4.51529944       9.34265312      -0.35489855      -0.02443168       0.24087324
Si       4.52265221      -3.21665717       9.22638769       0.15687863       0.15984111       0.28144851
Si      -1.43435853       0.39697223       7.40538035       0.02467639       0.17000562      -0.20901618
Si       3.72484898       1.77221948       1.47409983       0.11622018       0.05959401      -0.31073016
Si       1.74751057      -0.15388644       1.52149089      -0.12954555       0.48680349      -0.40085411
Si       1.81637244      -0.36512521       7.91999663       0.18088492      -0.45693358      -0.27275011
Si       2.61522300      -4.70457033       9.10592151       0.05874888       0.00040655       0.15403148
Si      -0.33196450       0.65138111       5.32642127      -0.29883071      -0.11521798      -0.02100720
Si       3.91181255      -0.45694914       4.45053811      -0.23297374       0.19487986      -0.09573222
Si      -0.69444457       4.57928461       4.18319349       0.09602213      -0.50425289       0.41364017
Si      -0.35529175      -1.71512908       4.80881455       0.15232102       0.29242124      -0.20387628
Si      -2.01709783       7.80016185      -1.72334611       0.16805245       0.09134019      -0.10208502
Si       2.45453472       1.87329194       5.07801255      -0.69076922       0.07188645       0.16603009
Si      -0.27220753       6.86916190      -0.42222921      -0.40798193      -0.33795405      -0.04820923
Si       0.34488875      -1.76311596       2.54184405       0.04424426      -0.43097448       0.12293468
Si       5.15247875      -4.83943649       7.60566737      -0.04427830      -0.06677933       0.07052243
Si       1.77826205       1.82400181       2.80946159      -0.13933078       0.42409034      -0.08604082
Si       0.05638940       3.01606269       5.89662163       0.82137232       0.31370035       0.00582727
Si      -0.38974645       2.92349625       2.43014454       0.17748275       0.07990520      -0.00713575
Si       1.82597053      -2.79675361       7.47142337       0.01049155      -0.34175972       0.15348609
22
Lattice="5.388402573695198 -1.5152102617535177 1.0550562540930795 -3.9384211349419336 11.154887477392867 -3.3136238708696193 0.16548159489204683 -5.153812413983705 9.601286767132489" Properties=species:S:1:pos:R:3:forces:R:3 unique_starting_index=18 config_type=initial n_minim_iter=5 energy=-3579.609604759021 stress="-0.0005460560031035186 -0.00033031575960147083 0.0011122969756904696 -0.00033031575960147083 -0.00021903414284616784 -0.002017026661753896 0.0011122969756904696 -0.002017026661753896 0.0021141872318128745" free_energy=-3579.609604759021 pbc="T T T"
Si       0.15986131       9.36419516      -0.82746271      -0.07471015      -0.15475283      -0.37045437
Si       1.74895592      -0.62988027       5.48283419       0.19938247       0.29597239       0.24199717
Si       0.20718157      -4.57385930       9.29336770       0.02123958      -0.20791695       0.18696237
Si       4.46002746      -3.25642844       9.15147375       0.31664820       0.09557402       0.57121494
Si      -1.44052124       0.38532454       7.35259773       0.22955259       0.24488827       0.06657257
Si       3.70176217       1.77788467       1.46343437      -0.07269855       0.31973343      -0.78001936
Si       1.72987318      -0.14553269       1.49730931      -0.60062175       0.46364514      -0.18299030
Si       1.78163884      -0.39896407       7.85263724       0.11181807      -0.42501343      -0.07397799
Si       2.57549973      -4.76829871       9.05394169       0.05403114      -0.03936951       0.16711064
Si      -0.35386419       0.64450854       5.29074507      -0.12086224      -0.12253743      -0.04076052
Si       3.85932667      -0.45843360       4.41047290      -0.12741309       0.18483517      -0.31391291
Si      -0.69768607       4.60021432       4.15995468       0.04105165      -0.43934478       0.31876077
Si      -0.36029188      -1.73076175       4.77482706       0.10543141       0.18672807       0.09871750
Si      -1.98560513       7.88303960      -1.72868462      -0.09866595       0.03597483      -0.19497722
Si       2.40187050       1.88343086       5.04035413      -0.69059437       0.06075443       0.26606194
Si      -0.27878713       6.92971195      -0.43526102      -0.44674101      -0.36137807      -0.05795636
Si       0.33332994      -1.79735460       2.53536378       0.32726909      -0.28414618      -0.15554279
Si       5.09108873      -4.91142607       7.55576058      -0.21873460       0.05340495      -0.10841206
Si       1.74948651       1.84729563       2.77838278      -0.11460817       0.33549530      -0.16041907
Si       0.06236733       3.04366181       5.84831907       0.82102888       0.09076377       0.12949005
Si      -0.39221096       2.94905984       2.40424274       0.18188861       0.01370382       0.16588308
Si       1.79167798      -2.84825359       7.42808530       0.15630818      -0.34701442       0.22665193
22
Lattice="5.39013423564252 -1.5327894592441582 1.0038703016629391 -3.9684299764835544 11.159157303563887 -3.189370269528578 0.12820872114817472 -5.0927521898613595 9.496185529348445" Properties=species:S:1:pos:R:3:forces:R:3 unique_starting_index=18 config_type=initial n_minim_iter=6 energy=-3579.697258060664 stress="-0.001645504593256964 -0.00031402350200215694 -0.0025351265970418972 -0.00031402350200215694 -0.001340201801795806 0.0022721870595293456 -0.0025351265970418972 0.0022721870595293456 -0.004225299784922084" free_energy=-3579.697258060664 pbc="T T T"
Si       0.11785058       9.34877763      -0.77214016      -0.04849225      -0.00914707      -0.05433005
Si       1.73387137      -0.59306778       5.45049009       0.10913207       0.38062420      -0.15895681
Si       0.14660407      -4.50949685       9.19895020       0.25074323      -0.19801344       0.08616400
Si       4.42033426      -3.19993103       9.03055487       0.48263415      -0.14545556       0.55017046
Si      -1.48436126       0.44561769       7.30483988       0.17348517       0.35167455       0.17175690
Si       3.70073842       1.76691311       1.44848261      -0.32396662       0.43950540      -0.90493623
Si       1.71430703      -0.12110032       1.46218825      -0.74559719       0.47277595      -0.07314640
Si       1.73698921      -0.37401996       7.76871668       0.07675730      -0.27213529       0.37751343
Si       2.54633202      -4.71860131       8.94723852      -0.03797288      -0.16920881       0.10438887
Si      -0.40361802       0.67934232       5.25912258       0.05955426      -0.13451177      -0.02318311
Si       3.82408166      -0.42703944       4.34542492      -0.13405528      -0.03458750      -0.59983699
Si      -0.73976221       4.61207994       4.18461396      -0.11173380      -0.23660909       0.08774087
Si      -0.37732741      -1.68144784       4.72469060       0.09847017       0.14253575       0.24473154
Si      -1.99631332       7.88879442      -1.65797049      -0.34562301       0.10264640      -0.16341527
Si       2.33297821       1.91352212       5.01412140      -0.67625890       0.12472323       0.31835295
Si      -0.32014176       6.91940638      -0.38475933      -0.26923265      -0.57059566      -0.02570121
Si       0.32709193      -1.79949387       2.50836377       0.46969428      -0.26215752      -0.41011210
Si       5.06395928      -4.89386436       7.43798541      -0.34592639       0.18625783      -0.04298514
Si       1.71614523       1.87744993       2.75323852       0.02425570       0.21878228      -0.30500386
Si       0.04952975       3.09837381       5.82541895       0.89410764      -0.15524160       0.31082749
Si      -0.41657091       2.97169634       2.40693126       0.23971939       0.11883474       0.26758064
Si       1.75992037      -2.82050306       7.35228735       0.16030562      -0.35069703       0.24238001
22
Lattice="5.390487692025114 -1.5348091343470984 1.0048762605026633 -3.971951553425441 11.163829323288748 -3.1908422172258724 0.1315370448022153 -5.095612819527689 9.494374517171213" Properties=species:S:1:pos:R:3:forces:R:3 unique_starting_index=18 config_type=initial n_minim_iter=7 energy=-3579.697519471389 stress="-0.0015721258406220092 -0.00024533378166160684 -0.002284497309373951 -0.00024533378166160684 -0.001285461158961964 0.002106088611852054 -0.002284497309373951 0.002106088611852054 -0.004288872561855787" free_energy=-3579.697519471389 pbc="T T T"
Si       0.11481676       9.35060701      -0.77390775      -0.04495161      -0.00531980      -0.06120758
Si       1.73592374      -0.59393588       5.45047907       0.09765333       0.38452653      -0.17750908
Si       0.14866741      -4.51200457       9.19745834       0.28057980      -0.21333357       0.07916718
Si       4.42319087      -3.20266051       9.02951366       0.48451297      -0.14535022       0.55883188
Si      -1.48263148       0.44540466       7.30225754       0.17717976       0.35074636       0.18898603
Si       3.70093364       1.76611278       1.44836851      -0.32710328       0.45584583      -0.91636023
Si       1.71374988      -0.12043432       1.46146116      -0.77935648       0.47270199      -0.06061056
Si       1.73874907      -0.37695007       7.76655572       0.07954532      -0.27207127       0.39476484
Si       2.54959185      -4.72186853       8.94640515      -0.03727108      -0.17183699       0.10654611
Si      -0.40340294       0.67861275       5.25747820       0.06542500      -0.13311778      -0.03932486
Si       3.82430282      -0.42793415       4.34443319      -0.12277328      -0.04352884      -0.59599784
Si      -0.73996540       4.61162051       4.18372782      -0.11334131      -0.23382171       0.08763696
Si      -0.37554294      -1.68163823       4.72340475       0.10000021       0.13519283       0.25675976
Si      -1.99814318       7.89196450      -1.65949982      -0.35367399       0.09650982      -0.16376434
Si       2.33143590       1.91300571       5.01370091      -0.67875273       0.12560754       0.31556140
Si      -0.32289132       6.92043950      -0.38577416      -0.27258095      -0.56275124      -0.02451565
Si       0.32838174      -1.80144203       2.50806604       0.47046656      -0.25651127      -0.42431946
Si       5.06622558      -4.89795961       7.43770806      -0.34691000       0.19523113      -0.04821316
Si       1.71573609       1.87810357       2.75210882       0.02790687       0.21853017      -0.30090146
Si       0.05228766       3.09887374       5.82355427       0.89458799      -0.16074541       0.31575982
Si      -0.41656329       2.97244631       2.40579999       0.23899834       0.11899810       0.26549396
Si       1.76225070      -2.82373917       7.35159577       0.15985856      -0.35550223       0.24321628
22
Lattice="5.3904876901283485 -1.5348091383278195 1.0048762599565582 -3.971951557851115 11.163829330978196 -3.190842218016502 0.13153704658045398 -5.095612823041577 9.494374517688755" Properties=species:S:1:pos:R:3:forces:R:3 unique_starting_index=18 config_type=initial n_minim_iter=8 energy=-3579.697519470149 stress="-0.0015721259980061503 -0.00024533367269548556 -0.002284497099106136 -0.00024533367269548556 -0.0012854611144919295 0.0021060884066816613 -0.002284497099106136 0.0021060884066816613 -0.004288872324983493" free_energy=-3579.697519470149 pbc="T T T"
Si       0.11481676       9.35060701      -0.77390775      -0.04495161      -0.00531979      -0.06120759
Si       1.73592374      -0.59393588       5.45047907       0.09765331       0.38452654      -0.17750911
Si       0.14866741      -4.51200457       9.19745834       0.28057986      -0.21333360       0.07916717
Si       4.42319087      -3.20266051       9.02951366       0.48451298      -0.14535022       0.55883190
Si      -1.48263148       0.44540466       7.30225754       0.17717978       0.35074635       0.18898605
Si       3.70093363       1.76611278       1.44836851      -0.32710329       0.45584586      -0.91636025
Si       1.71374988      -0.12043432       1.46146116      -0.77935655       0.47270200      -0.06061053
Si       1.73874907      -0.37695007       7.76655572       0.07954532      -0.27207126       0.39476486
Si       2.54959185      -4.72186853       8.94640515      -0.03727108      -0.17183700       0.10654611
Si      -0.40340294       0.67861275       5.25747820       0.06542500      -0.13311777      -0.03932487
Si       3.82430282      -0.42793415       4.34443319      -0.12277327      -0.04352885      -0.59599784
Si      -0.73996540       4.61162050       4.18372782      -0.11334131      -0.23382171       0.08763696
Si      -0.37554294      -1.68163823       4.72340475       0.10000021       0.13519282       0.25675976
Si      -1.99814318       7.89196451      -1.65949982      -0.35367401       0.09650982      -0.16376435
Si       2.33143590       1.91300571       5.01370091      -0.67875273       0.12560754       0.31556139
Si      -0.32289132       6.92043950      -0.38577416      -0.27258096      -0.56275123      -0.02451565
Si       0.32838174      -1.80144203       2.50806604       0.47046657      -0.25651126      -0.42431947
Si       5.06622558      -4.89795962       7.43770806      -0.34691001       0.19523115      -0.04821316
Si       1.71573608       1.87810357       2.75210882       0.02790688       0.21853017      -0.30090145
Si       0.05228767       3.09887374       5.82355427       0.89458799      -0.16074542       0.31575983
Si      -0.41656329       2.97244631       2.40579999       0.23899833       0.11899811       0.26549396
Si       1.76225070      -2.82373918       7.35159577       0.15985856      -0.35550224       0.24321629
22
Lattice="5.390427196983993 -1.5359777329369777 1.004670755160066 -3.9736596099288732 11.165889791032926 -3.190868818562586 0.13214075097090466 -5.096540469054965 9.493886975082773" Properties=species:S:1:pos:R:3:forces:R:3 unique_starting_index=18 config_type=initial n_minim_iter=9 energy=-3579.697566639897 stress="-0.0015683052941281937 -0.00022649496090964728 -0.0022265581274467303 -0.00022649496090964728 -0.0012737004968745413 0.0020469570070526214 -0.0022265581274467303 0.0020469570070526214 -0.00427011658345614" free_energy=-3579.697566639897 pbc="T T T"
Si       0.11298482       9.35124027      -0.77454051      -0.04389058      -0.00208104      -0.06401492
Si       1.73615241      -0.59418619       5.45049282       0.09440875       0.38701486      -0.18462053
Si       0.14878923      -4.51285715       9.19710559       0.29456416      -0.22055296       0.07675561
Si       4.42344506      -3.20381968       9.02892199       0.48640931      -0.14587901       0.56189112
Si      -1.48270332       0.44564236       7.30170511       0.18063871       0.34964916       0.19447305
Si       3.70058787       1.76563524       1.44788856      -0.32978170       0.46342476      -0.92077321
Si       1.71306539      -0.12008297       1.46100808      -0.79465442       0.47302563      -0.05496037
Si       1.73854562      -0.37819296       7.76581627       0.08022090      -0.27170771       0.40104164
Si       2.55013909      -4.72317217       8.94606630      -0.03684446      -0.17433070       0.10725348
Si      -0.40399949       0.67843774       5.25703432       0.06718362      -0.13285093      -0.04317934
Si       3.82375248      -0.42843022       4.34365538      -0.11893056      -0.04811230      -0.59591303
Si      -0.74083833       4.61145092       4.18380069      -0.11444970      -0.23269867       0.08713119
Si      -0.37519192      -1.68151134       4.72309370       0.10079849       0.13141686       0.25876629
Si      -1.99919348       7.89334032      -1.65984361      -0.35833061       0.09538414      -0.16454370
Si       2.32978548       1.91278822       5.01356984      -0.67978942       0.12605820       0.31427109
Si      -0.32453256       6.92073042      -0.38602349      -0.27440223      -0.56070894      -0.02413889
Si       0.32879214      -1.80228233       2.50791486       0.47104240      -0.25427714      -0.42741243
Si       5.06637760      -4.89975387       7.43719374      -0.34876115       0.20005088      -0.05020217
Si       1.71504530       1.87839987       2.75154734       0.03035409       0.21847288      -0.29977501
Si       0.05278080       3.09920293       5.82313753       0.89502562      -0.16339369       0.31843652
Si      -0.41699824       2.97285670       2.40556274       0.23845384       0.11951065       0.26536398
Si       1.76250407      -2.82510721       7.35140612       0.16073495      -0.35741492       0.24414964
22
Lattice="5.390089358240495 -1.5376560019250867 1.004388030127565 -3.976015601697249 11.168822207816946 -3.1905906006141977 0.1330986391665692 -5.097535563321009 9.49326318978961" Properties=species:S:1:pos:R:3:forces:R:3 unique_starting_index=18 config_type=initial n_minim_iter=10 energy=-3579.697668875014 stress="-0.0015898601013013736 -0.00019143691914820914 -0.0021386483341507326 -0.00019143691914820914 -0.0012567934620698175 0.001979853232076409 -0.0021386483341507326 0.001979853232076409 -0.004217592737804357" free_energy=-3579.697668875014 pbc="T T T"
Si       0.11026889       9.35216525      -0.77513098      -0.04250416       0.00328763      -0.06759107
Si       1.73645651      -0.59430486       5.45066316       0.08957966       0.39055901      -0.19398015
Si       0.14906951      -4.51377775       9.19669422       0.31513587      -0.23088282       0.07291783
Si       4.42370089      -3.20516109       9.02826372       0.48962215      -0.14711018       0.56617662
Si      -1.48266664       0.44629456       7.30113974       0.18644703       0.34826388       0.20267183
Si       3.69989911       1.76503256       1.44730437      -0.33293865       0.47442945      -0.92716188
Si       1.71191039      -0.11946752       1.46040333      -0.81734336       0.47427933      -0.04616569
Si       1.73823225      -0.37973202       7.76499881       0.08035042      -0.27083917       0.40947513
Si       2.55089909      -4.72475319       8.94569199      -0.03575249      -0.17859459       0.10824769
Si      -0.40482054       0.67838668       5.25656427       0.06928617      -0.13236771      -0.04899172
Si       3.82278963      -0.42898441       4.34263981      -0.11274999      -0.05560227      -0.59608424
Si      -0.74206345       4.61136274       4.18423695      -0.11615845      -0.23113613       0.08608505
Si      -0.37460906      -1.68113385       4.72271562       0.10185243       0.12642716       0.26097176
Si      -2.00067682       7.89532630      -1.66010818      -0.36548548       0.09336846      -0.16633386
Si       2.32723397       1.91269213       5.01365331      -0.68150858       0.12674222       0.31170665
Si      -0.32696138       6.92113985      -0.38612267      -0.27702422      -0.55820440      -0.02377098
Si       0.32941718      -1.80343944       2.50768478       0.47153411      -0.25134852      -0.43080901
Si       5.06639725      -4.90208424       7.43651657      -0.35151681       0.20719507      -0.05253163
Si       1.71396945       1.87897660       2.75088466       0.03417285       0.21796300      -0.29759978
Si       0.05360759       3.09992608       5.82285161       0.89557768      -0.16756935       0.32245762
Si      -0.41759328       2.97357343       2.40541236       0.23731242       0.12108719       0.26490828
Si       1.76285983      -2.82685784       7.35127835       0.16211138      -0.35994726       0.24540155
22
Lattice="5.390089347933104 -1.5376560760033893 1.0043880146855353 -3.9760157060811907 11.168822337031665 -3.190590593728428 0.13309867454602883 -5.097535614240112 9.493263161713582" Properties=species:S:1:pos:R:3:forces:R:3 unique_starting_index=18 config_type=initial n_minim_iter=11 energy=-3579.69766887268 stress="-0.0015898606347306268 -0.00019143561694773715 -0.002138644820635713 -0.00019143561694773715 -0.0012567927804592721 0.0019798498807448387 -0.002138644820635713 0.0019798498807448387 -0.004217590925236565" free_energy=-3579.69766887268 pbc="T T T"
Si       0.11026877       9.35216529      -0.77513101      -0.04250410       0.00328784      -0.06759124
Si       1.73645652      -0.59430487       5.45066316       0.08957946       0.39055917      -0.19398056
Si       0.14906952      -4.51377780       9.19669420       0.31513675      -0.23088326       0.07291767
Si       4.42370090      -3.20516116       9.02826368       0.48962228      -0.14711021       0.56617680
Si      -1.48266664       0.44629458       7.30113971       0.18644727       0.34826380       0.20267217
Si       3.69989908       1.76503253       1.44730434      -0.33293879       0.47442992      -0.92716214