22
Lattice="9.914974270987198 -0.7706944478580603 -1.3830935339534893 -4.87342996888621 8.668931022026825 1.3830935339535062 -3.6866038249059425 -3.204953184236317 8.77216391633237" Properties=species:S:1:pos:R:3:forces:R:3 unique_starting_index=6 config_type=initial n_minim_iter=1 energy=-3574.278193124251 stress="0.0003032047243034619 0.00018564834581712085 -5.186235774799359e-07 0.00018564834581712085 0.0004755453796341773 3.3104398886788615e-07 -5.186235774799359e-07 3.3104398886788615e-07 0.00018470303721808138" free_energy=-3574.278193124251 pbc="T T T"
Si      -4.82237308       6.30366724       8.54142636      -0.02628810      -0.08456961       0.03175241
Si       1.25242219       1.53323661       6.07341773       0.01920011       0.08909397      -0.02334352
Si       5.84776881       1.56406491      -0.95636314       0.00250910       0.09274995       0.05568102
Si      -0.24115073       0.41531890       4.68451885      -0.08972537      -0.03707871       0.04778863
Si       7.09180656      -2.19411629       1.31565265       0.07272938       0.05492556       0.02334352
Si      -0.81197471       3.74377924       1.61383108      -0.06564138      -0.05944991      -0.03175241
Si       1.83318516       4.64940310       4.08764507       0.00414353      -0.09699641      -0.04778863
Si      -4.72992229       2.75777989       9.72852705       0.08307274       0.04132516      -0.05568102
Si      -1.52786157       5.40637241       3.15336152       0.02749664      -0.13362896      -0.07469012
Si       0.37389432       6.44653756       4.19672801       0.11560175       0.04228745      -0.09507568
Si       1.39548557       3.46618075       2.11664250       0.06896467       0.02331470      -0.07639650
Si       1.28140523       5.94144406       0.68868112       0.03385734      -0.08894729      -0.04558713
Si       2.00333106      -0.15171155       4.57543590      -0.01031331       0.12266062       0.09507568
Si       1.86051714      -2.31463162       5.61880239      -0.13278508      -0.03131911       0.07469012
Si       1.16310732       0.45879608       8.08348279      -0.09493440      -0.00673790       0.04558713
Si      -1.13011718      -0.47985410       6.65552141      -0.00788761       0.07237049       0.07639650
Si      -2.57669250       2.42023341       2.17470588      -0.00686756       0.02369617      -0.08127855
Si       2.83632692       2.97219770       5.29803411      -0.07726977       0.03000975      -0.01853837
Si      -2.18480415       0.61909014       3.47412980       0.05975230      -0.05745317       0.01853837
Si      -5.27992359       4.14574000       7.98055156       0.02438504       0.00374724       0.08127855
Si       2.52077215       3.94911829      -0.00000000      -0.00000000      -0.00000000       0.00000000
Si       3.11418522      -1.98782381       3.69453519      -0.00000000       0.00000000       0.00000000
22
Lattice="9.908321163523345 -0.7741163372263716 -1.3824873877208914 -4.873732734511876 8.661455629144141 1.3824873877209078 -3.682614957994558 -3.199830676426081 8.768397029882381" Properties=species:S:1:pos:R:3:forces:R:3 unique_starting_index=6 config_type=initial n_minim_iter=2 energy=-3574.278955116359 stress="-0.0005535827343773757 5.223444100723128e-05 2.5722055364222818e-05 5.223444100723128e-05 -0.0005050925754452943 -1.6418713271303238e-05 2.5722055364222818e-05 -1.6418713271303238e-05 -0.0005869246451003718" free_energy=-3574.278955116359 pbc="T T T"
Si      -4.82177026       6.29849767       8.53785474      -0.03506313      -0.07117408       0.04444141
Si       1.25094969       1.53129266       6.07073429       0.00496941       0.09038328      -0.00873951
Si       5.84298265       1.56012341      -0.95576286       0.01513853       0.08166243       0.05672717
Si      -0.24145059       0.41483822       4.68266559      -0.08923482      -0.03436583       0.03117749
Si       7.08799900      -2.19456974       1.31517535       0.07989021       0.04256039       0.00873951
Si      -0.81323149       3.73979667       1.61302967      -0.04979650      -0.06176959      -0.04444141
Si       1.82990840       4.64315395       4.08573143       0.00639772      -0.09540929      -0.03117749
Si      -4.72749352       2.75690166       9.72415989       0.06769857       0.04811269      -0.05672717
Si      -1.52902121       5.40061579       3.15175535       0.00413086      -0.14312863      -0.07509134
Si       0.37123880       6.43939214       4.19460818       0.12701250       0.05941817      -0.08049152
Si       1.39323875       3.46182589       2.11548066       0.07152852       0.00027132      -0.08009652
Si       1.27805418       5.93403482       0.68823189       0.04668471      -0.07572832      -0.06014660
Si       2.00195667      -0.15200609       4.57378884       0.00042104       0.14022309       0.08049152
Si       1.85977268      -2.31298460       5.61664168      -0.13156440      -0.05651263       0.07509134
Si       1.16178646       0.45775959       8.08016513      -0.08834464       0.01046262       0.06014660
Si      -1.12913245      -0.47860305       6.65291637      -0.02986860       0.06499438       0.08009652
Si      -2.57594102       2.41874751       2.17349901      -0.02663798       0.01558138      -0.07195059
Si       2.83279897       2.96778720       5.29570014      -0.06000344       0.03972293      -0.03083706
Si      -2.18333051       0.61915571       3.47269689       0.06129325      -0.03770228       0.03083706
Si      -5.27790166       4.14344316       7.97738541       0.02534817      -0.01760204       0.07195059
Si       2.51729421       3.94366965      -0.00000000      -0.00000000       0.00000000       0.00000000
Si       3.11285310      -1.98697350       3.69295482      -0.00000000       0.00000000       0.00000000
22
Lattice="9.920564140240245 -0.8058493748582849 -1.389350853904208 -4.907670775643298 8.65920051930182 1.3893508539042245 -3.6775527526905902 -3.1791437553538398 8.795790618517314" Properties=species:S:1:pos:R:3:forces:R:3 unique_starting_index=6 config_type=initial n_minim_iter=3 energy=-3574.281974661184 stress="0.000490259504969323 -0.0009486716491470248 -2.3352822016372013e-05 -0.0009486716491470248 -0.0003904092291833977 1.4906401659172318e-05 -2.3352822016372013e-05 1.4906401659172318e-05 0.0010958086231897402" free_energy=-3574.281974661184 pbc="T T T"
Si      -4.85059839       6.29950901       8.56767171      -0.05883666       0.09379278       0.04938808
Si       1.24594628       1.52795823       6.08871468      -0.06713481      -0.01338360       0.10005907
Si       5.84373976       1.54017439      -0.95789699       0.00243794       0.07241987       0.03202983
Si      -0.24745633       0.41421931       4.69868754      -0.06054857      -0.03532712       0.03691012
Si       7.10438619      -2.21155807       1.31772508       0.01612524      -0.06652954      -0.10005907
Si      -0.82905286       3.73250563       1.61746976       0.10984623      -0.01387964      -0.04938808
Si       1.81524267       4.62414464       4.09710307      -0.00655162      -0.06979406      -0.03691012
Si      -4.74084489       2.76987645       9.75368761       0.06466224       0.03270131      -0.03202983
Si      -1.54866396       5.38959251       3.16000285      -0.00509004      -0.09856497      -0.03106080
Si       0.35327754       6.42658214       4.20523436       0.07235700       0.05562761      -0.04874185
Si       1.38493474       3.45047903       2.11938753      -0.01150798       0.01021942      -0.08960624
Si       1.26061599       5.91397687       0.68912637       0.07422727      -0.05025394       0.01519876
Si       2.00296152      -0.15300419       4.59055625       0.01999369       0.08905178       0.04874185
Si       1.86310611      -2.31475567       5.63578777      -0.08726065      -0.04611443       0.03106080
Si       1.15599682       0.45418442       8.10666424      -0.07683390       0.04617032      -0.01519876
Si      -1.13086632      -0.47022553       6.67640308       0.01411461      -0.00613580       0.08960624
Si      -2.58753904       2.42320910       2.17842445      -0.09253311      -0.07449604      -0.00728846
Si       2.82165193       2.95392588       5.31091703       0.05442992       0.09881778      -0.03791552
Si      -2.18614817       0.62389583       3.48487359       0.06671705       0.09097475       0.03791552
Si      -5.29784763       4.15323336       8.00671702      -0.02861387      -0.11529650       0.00728846
Si       2.50644668       3.92667558      -0.00000000      -0.00000000       0.00000000       0.00000000
Si       3.12150569      -1.99249656       3.70321988      -0.00000000       0.00000000       0.00000000
22
Lattice="9.909027505033396 -0.7754506637021107 -1.386905844151849 -4.8752404207607665 8.661534544589935 1.3869058441518651 -3.6859386756096972 -3.1968256456779196 8.769710344057419" Properties=species:S:1:pos:R:3:forces:R:3 unique_starting_index=6 config_type=initial n_minim_iter=4 energy=-3574.289123422365 stress="-4.516589771913771e-05 4.6985880667676735e-05 -0.00010575649644374955 4.6985880667676735e-05 -1.5480705302783368e-06 6.750570928688369e-05 -0.00010575649644374955 6.750570928688369e-05 -7.515755344633494e-05" free_energy=-3574.289123422365 pbc="T T T"
Si      -4.82892302       6.29557968       8.54551964      -0.05019472       0.04549570       0.07213240
Si       1.24858921       1.53939961       6.07077501      -0.06690414       0.02924998       0.06678868
Si       5.84387348       1.56663042      -0.95318445      -0.07570694       0.04167772      -0.05339066
Si      -0.25095803       0.41294784       4.68672907       0.04801846      -0.02400381       0.08623909
Si       7.09372886      -2.19162696       1.31202949       0.05469904      -0.04837087      -0.06678868
Si      -0.81769823       3.73516416       1.61109654       0.06239983      -0.02637482      -0.07213240
Si       1.82807145       4.63548395       4.08298127      -0.04198930       0.03344927      -0.08623909
Si      -4.72529009       2.76345428       9.72289479       0.06967778      -0.05112318       0.05339066
Si      -1.52959778       5.38949637       3.14795264       0.03177921      -0.01498600       0.04515371
Si       0.37885269       6.44425263       4.18911144      -0.04046408       0.02052967      -0.03485035
Si       1.39728897       3.46305195       2.10903450      -0.00988589      -0.01104786      -0.07049406
Si       1.28095785       5.92660309       0.68547757       0.06729299      -0.02559582       0.00238873
Si       1.99983610      -0.14004851       4.58059890       0.03565755      -0.02805973       0.03485035
Si       1.84660581      -2.31518401       5.62175770      -0.02697267       0.02251607      -0.04515371
Si       1.15049928       0.46026952       8.08423277      -0.05154823       0.05026203      -0.00238873
Si      -1.13304928      -0.47140807       6.66067584      -0.00585887      -0.01361835       0.07049406
Si      -2.57924069       2.42016879       2.16933481       0.01836214      -0.06595120       0.06841578
Si       2.82547447       2.97226400       5.29346740       0.08226372       0.00172044       0.05096241
Si      -2.17950980       0.61740184       3.47624294      -0.03307387       0.07534188      -0.05096241
Si      -5.28005467       4.14413252       7.98728138      -0.06755199      -0.01111112      -0.06841578
Si       2.51689354       3.94304194      -0.00000000      -0.00000000       0.00000000       0.00000000
Si       3.11154441      -1.98613815       3.69140225       0.00000000      -0.00000000      -0.00000000
22
Lattice="9.905893803150386 -0.7725282616884351 -1.363742088136727 -4.871270306828983 8.659922491120037 1.3637420881367432 -3.666831768442735 -3.209943946653265 8.765496510674076" Properties=species:S:1:pos:R:3:forces:R:3 unique_starting_index=6 config_type=initial n_minim_iter=5 energy=-3574.291741851641 stress="-5.39972536720303e-05 0.00013739064487074115 0.0008186100703210387 0.00013739064487074115 7.354492112791251e-05 -0.0005225291616571459 0.0008186100703210387 -0.0005225291616571459 -0.00014169564265054102" free_energy=-3574.291741851641 pbc="T T T"
Si      -4.81153171       6.28412354       8.52829532      -0.07024165       0.03906844       0.07088918
Si       1.26013519       1.53330683       6.07311542      -0.05713786       0.04223951       0.08022841
Si       5.83975375       1.57165246      -0.94302503      -0.02946647       0.02503265      -0.01008873
Si      -0.24066325       0.40490631       4.68868991       0.00568129      -0.00985026       0.03830645
Si       7.09931454      -2.19391521       1.32863899       0.06236946      -0.03404352      -0.08022841
Si      -0.81233456       3.73138542       1.60094327       0.06501004      -0.04726442      -0.07088918
Si       1.83638640       4.62962828       4.07680659      -0.01132663       0.00100611      -0.03830645
Si      -4.69989345       2.74871353       9.70852154       0.03511181      -0.01618849       0.01008873
Si      -1.52082352       5.38247017       3.13683581       0.04523277       0.00130428       0.04907611
Si       0.38970615       6.44059445       4.17793506      -0.05505311       0.00496416      -0.03742568
Si       1.40305849       3.46048277       2.10340717      -0.03587395      -0.02880575      -0.06077177
Si       1.28603260       5.92409448       0.67923202       0.07467491       0.00403861       0.01473997
Si       2.01105536      -0.14486229       4.58756145       0.02768103      -0.04784608       0.03742568
Si       1.85564547      -2.32330174       5.62866070      -0.01786070       0.04157764      -0.04907611
Si       1.16519419       0.45069812       8.08626449      -0.02777615       0.06943441      -0.01473997
Si      -1.11870182      -0.48037478       6.66208933      -0.01102481      -0.04466727       0.06077177
Si      -2.57419947       2.41509564       2.16091007      -0.00579001      -0.05091223       0.01903718
Si       2.83915786       2.96630712       5.29623248       0.04081296       0.02855664       0.02251253
Si      -2.17156703       0.61418715       3.46926403       0.00871945       0.04904234      -0.02251253
Si      -5.26370171       4.13183893       7.96832853      -0.04374239      -0.02668675      -0.01903718
Si       2.51731175       3.94369712      -0.00000000      -0.00000000       0.00000000       0.00000000
Si       3.11953102      -1.99123610       3.70087721      -0.00000000       0.00000000       0.00000000
22
Lattice="9.907596632892332 -0.7784293578053157 -1.3830344332150373 -4.877339832895669 8.658982588020477 1.3830344332150533 -3.6809102570434646 -3.1961433109596284 8.770106907219064" Properties=species:S:1:pos:R:3:forces:R:3 unique_starting_index=6 config_type=initial n_minim_iter=6 energy=-3574.297309416494 stress="-0.00011606185918939041 0.0002568610157645048 -0.00026456777333451085 0.0002568610157645048 0.00012238678192951052 0.0001688769559693802 -0.00026456777333451085 0.0001688769559693802 -0.00028001942883449233" free_energy=-3574.297309416494 pbc="T T T"
Si      -4.83711693       6.29476544       8.55571913      -0.02790101      -0.07327689       0.06017715
Si       1.24130237       1.54620337       6.08111510      -0.00941420       0.09709566      -0.01590798
Si       5.83339111       1.57597849      -0.95377884       0.00062317      -0.00520410       0.00560996
Si      -0.25016391       0.40589186       4.70099108      -0.00254893       0.00643334      -0.00332532
Si       7.10656566      -2.19766837       1.30595737       0.09203443       0.03233972       0.01590798
Si      -0.81205801       3.72551942       1.59742221      -0.05471922      -0.05615849      -0.06017715
Si       1.82283510       4.62838526       4.06911583       0.00690853       0.00039653       0.00332532
Si      -4.70736922       2.75856425       9.72388575      -0.00498276      -0.00162577      -0.00560996
Si      -1.52471405       5.37478660       3.14717747       0.04199033       0.00087505       0.05423419
Si       0.38123328       6.44654142       4.17708035      -0.05826761       0.00951494      -0.03492353
Si       1.39921075       3.45976722       2.09342898      -0.00447063      -0.04858285       0.02752886
Si       1.29151509       5.91413822       0.68209034       0.00012328       0.05135782      -0.02237135
Si       2.00593830      -0.13624323       4.59302655       0.03316219      -0.04884586       0.03492353
Si       1.83623556      -2.31626493       5.62292944      -0.01688491       0.03845587      -0.05423419
Si       1.13977663       0.46527991       8.08801657       0.04653235       0.02173432       0.02237135
Si      -1.13180939      -0.47036550       6.67667792      -0.04218500      -0.02450929      -0.02752886
Si      -2.57931920       2.41109518       2.17129007      -0.00438163       0.15674832      -0.12712763
Si       2.83275858       2.97284615       5.29867979      -0.17697906      -0.04098350      -0.08803088
Si      -2.17702007       0.62493635       3.47142711       0.03733693      -0.17778411       0.08803088
Si      -5.28532286       4.13837154       7.98185127       0.14402376       0.06201928       0.12712763
Si       2.51512840       3.94027662      -0.00000000      -0.00000000       0.00000000       0.00000000
Si       3.11334319      -1.98728633       3.69353623      -0.00000000       0.00000000       0.00000000
22
Lattice="9.908580448057258 -0.7891879291417406 -1.3757567032494717 -4.887512628860553 8.655345422676906 1.3757567032494877 -3.6701812469464725 -3.192861184131569 8.776724768562012" Properties=species:S:1:pos:R:3:forces:R:3 unique_starting_index=6 config_type=initial n_minim_iter=7 energy=-3574.300664483724 stress="9.024607459175077e-05 -0.00017262326371855595 0.00019306517171296304 -0.00017262326371855595 -7.0003165786331e-05 -0.00012323594099091165 0.00019306517171296304 -0.00012323594099091165 0.0002004336393686324" free_energy=-3574.300664483724 pbc="T T T"
Si      -4.83991924       6.28767513       8.55829966      -0.02955507       0.02932403       0.07008396
Si       1.24413790       1.54314188       6.08694004      -0.06381821       0.03027731       0.04069009
Si       5.83169794       1.56908632      -0.94937035      -0.01746900      -0.01618892      -0.02398773
Si      -0.24872393       0.40281506       4.70532785       0.03261889       0.00651855       0.00601455
Si       7.11430774      -2.20386178       1.31402802       0.05433165      -0.04513924      -0.04069009
Si      -0.81675326       3.71963741       1.59418181       0.03904163      -0.01446211      -0.07008396
Si       1.82097806       4.61728240       4.07139692      -0.00782042       0.03233148      -0.00601455
Si      -4.70217892       2.75740885       9.72609511      -0.00732947      -0.02266111       0.02398773
Si      -1.52780879       5.36704137       3.14589097       0.03143567       0.00691593       0.04572836
Si       0.37753727       6.43836008       4.17552168      -0.05078211       0.00543315      -0.02277657
Si       1.39748938       3.45250574       2.09366221      -0.04628282      -0.05228645       0.01404722
Si       1.28592111       5.90580800       0.67963431       0.02527114       0.06569847       0.01088013
Si       2.01080249      -0.13975806       4.60120308       0.02630827      -0.04377461       0.02277657
Si       1.84124217      -2.31905076       5.63083379      -0.00696183       0.03142553      -0.04572836
Si       1.14530485       0.45998085       8.09709045       0.04895241       0.05058241      -0.01088013
Si      -1.12694220      -0.47170195       6.68306256      -0.02794074      -0.06399443      -0.01404722
Si      -2.58183353       2.41386822       2.16582552      -0.02559873       0.01113476      -0.01444281
Si       2.82916268       2.96384276       5.30168626      -0.00981337       0.01146923      -0.02756858
Si      -2.17294368       0.62116622       3.47503851       0.01453479      -0.00407251       0.02756858
Si      -5.28119277       4.13690336       7.98665595       0.02087731      -0.01853148       0.01444281
Si       2.51053391       3.93307875      -0.00000000       0.00000000      -0.00000000       0.00000000
Si       3.11919960      -1.99102455       3.70048403      -0.00000000       0.00000000       0.00000000
22
Lattice="9.904546190343897 -0.7861129084936779 -1.3787633138070723 -4.883024932747057 8.652980772411704 1.3787633138070885 -3.672942288422801 -3.191598679359984 8.771669728898802" Properties=species:S:1:pos:R:3:forces:R:3 unique_starting_index=6 config_type=initial n_minim_iter=8 energy=-3574.305772380177 stress="2.9223124256642317e-05 -4.289612831744139e-05 -0.00011425729537687994 -4.289612831744139e-05 -1.059811321638136e-05 7.293187676381866e-05 -0.00011425729537687994 7.293187676381866e-05 5.6604293795309155e-05" free_energy=-3574.305772380177 pbc="T T T"
Si      -4.84972176       6.28791000       8.57332560       0.05518425      -0.04860584       0.05698882
Si       1.23016925       1.55858035       6.09232251      -0.04196817       0.04016985      -0.07266780
Si       5.82211603       1.57864178      -0.95369820      -0.00862370      -0.04235846      -0.03492122
Si      -0.24894328       0.40001577       4.71349082       0.05114284       0.01521795      -0.01552167
Si       7.12739699      -2.20569470       1.30058390       0.05410548      -0.02115518       0.07266780
Si      -0.81068655       3.70974274       1.57710743      -0.06732155       0.02959116      -0.05698882
Si       1.81622370       4.61787776       4.05817891      -0.00772850       0.05279628       0.01552167
Si      -4.69223851       2.75400307       9.72536793      -0.03479064      -0.02565577       0.03492122
Si      -1.51830886       5.35768705       3.15176272       0.01026712      -0.06352981      -0.04689987
Si       0.37453360       6.44456757       4.16248099       0.06537288       0.01524784      -0.04283618
Si       1.39596609       3.44687258       2.08272756      -0.00095702      -0.06645876       0.08433349
Si       1.29858731       5.90532831       0.67788743      -0.04066825       0.09302869      -0.03495106
Si       2.01493656      -0.13860659       4.60918873      -0.01369247       0.06571625       0.04283618
Si       1.82599663      -2.31310964       5.61990701      -0.06194753      -0.01743429       0.04689987
Si       1.13677602       0.47253031       8.09378229       0.10150396       0.00227838       0.03495106
Si      -1.13417148      -0.47419281       6.68894216      -0.05987869      -0.02884831      -0.08433349
Si      -2.58301385       2.41453192       2.16175257       0.00547212      -0.02422192       0.02130472
Si       2.82346260       2.96807080       5.29527922       0.02735926       0.00326524       0.01764501
Si      -2.16946983       0.61903853       3.47639051      -0.00855696       0.02619101      -0.01764501
Si      -5.27836718       4.13501004       7.98868047      -0.02427442      -0.00523433      -0.02130472
Si       2.51076063       3.93343394      -0.00000000       0.00000000       0.00000000       0.00000000
Si       3.11580195      -1.98885579       3.69645321      -0.00000000       0.00000000       0.00000000
22
Lattice="9.882368220260746 -0.7496903837692959 -1.3679036007003067 -4.840650481018927 8.64819866983562 1.3679036007003238 -3.6738867005864004 -3.213261895044624 8.73337861759428" Properties=species:S:1:pos:R:3:forces:R:3 unique_starting_index=6 config_type=initial n_minim_iter=9 energy=-3574.315066289932 stress="-0.0002225757995136249 0.0004923454482722434 0.00037007737054935293 0.0004923454482722434 0.0002344772209771711 -0.0002362250663562529 0.00037007737054935293 -0.0002362250663562529 -0.0005368462179360672" free_energy=-3574.315066289932 pbc="T T T"
Si      -4.81664184       6.27087284       8.56101782      -0.01561289      -0.05558468       0.01963241
Si       1.21651615       1.58548317       6.06613186       0.01318044       0.05713735      -0.01674666
Si       5.80810827       1.60096178      -0.95679392       0.06061343       0.01264778       0.04221310
Si      -0.23314937       0.39882169       4.69901623      -0.05886531      -0.01376363      -0.04428700
Si       7.13442507      -2.19199294       1.29934315       0.04627741       0.03601113       0.01674666
Si      -0.79863731       3.70612973       1.54026439      -0.04384496      -0.03756379      -0.01963241
Si       1.82774317       4.64167816       4.03436238       0.01229894      -0.05918867       0.04428700
Si      -4.66704000       2.72903117       9.69017253      -0.01404706       0.06030452      -0.04221310
Si      -1.48196845       5.34649360       3.14076444      -0.02861687      -0.09881783      -0.00490131
Si       0.39855699       6.46176213       4.12582649       0.05723223       0.08055228      -0.02904674
Si       1.40148176       3.43667857       2.08072550       0.00287116      -0.03905732       0.01999881
Si       1.32349787       5.94063296       0.66775336       0.00002502       0.03720865      -0.02343471
Si       2.01947428      -0.13124012       4.60755212       0.04896945       0.08582652       0.02904674
Si       1.79959926      -2.30652282       5.59261417      -0.07758482      -0.06756096       0.00490131
Si       1.15736703       0.48832613       8.06562526       0.03373968       0.01568816       0.02343471
Si      -1.14668458      -0.49514487       6.65265311      -0.03663586      -0.01383949      -0.01999881
Si      -2.57074357       2.41232714       2.14512840       0.04796093      -0.12589164       0.07216265
Si       2.82614967       2.98299417       5.26851719       0.10403800       0.02886880       0.10816234
Si      -2.15800927       0.60609562       3.46486142      -0.01761620       0.10652222      -0.10816234
Si      -5.24410298       4.11876626       7.95615381      -0.13438273      -0.00949938      -0.07216265
Si       2.52085887       3.94925415      -0.00000000       0.00000000       0.00000000       0.00000000
Si       3.10424076      -1.98147614       3.68273751      -0.00000000       0.00000000       0.00000000
22
Lattice="9.874444293550402 -0.7694565198090019 -1.376363939237542 -4.855243307007875 8.632689376553618 1.376363939237559 -3.669759683354236 -3.1910721436617306 8.73733446629543" Properties=species:S:1:pos:R:3:forces:R:3 unique_starting_index=6 config_type=initial n_minim_iter=10 energy=-3574.323527444586 stress="8.440028557169154e-05 -0.00010100344057838292 -0.0002129454988857804 -0.00010100344057838292 -9.363001481904582e-06 0.000135925805271054 -0.0002129454988857804 0.000135925805271054 0.00014887211189716578" free_energy=-3574.323527444586 pbc="T T T"
Si      -4.84331069       6.25962119       8.60156149      -0.06877991       0.03438031      -0.00471881
Si       1.18724063       1.60762075       6.07409725       0.00829640       0.00422708       0.07647385
Si       5.78944734       1.59430294      -0.96502360       0.11590293      -0.01042250       0.06202389
Si      -0.23618002       0.39450246       4.71511893      -0.08110703      -0.01178816      -0.10330426
Si       7.16303359      -2.20680349       1.28687327       0.00034126       0.00930495      -0.07647385
Si      -0.80808093       3.68388300       1.51213691       0.06014224      -0.04791233       0.00471881
Si       1.80671162       4.62402505       4.02221554       0.02345492      -0.07853138       0.10330426
Si      -4.66109635       2.73149099       9.70235806      -0.05825082       0.10074204      -0.06202389
Si      -1.48278650       5.30774210       3.14615674      -0.06826733      -0.04899388       0.07611882
Si       0.38930662       6.45729228       4.10566602      -0.02217896       0.10672689       0.03118280
Si       1.39144318       3.40907793       2.07307491      -0.06648068      -0.04958901       0.03580625
Si       1.32285364       5.92540442       0.66136467       0.01155385       0.08464950       0.02935658
Si       2.02344146      -0.11932283       4.63166845       0.10614465       0.02481631      -0.03118280
Si       1.76892102      -2.30139010       5.59117772      -0.01569836      -0.08254932      -0.07611882
Si       1.14795219       0.50352006       8.07596979       0.07191721       0.04611880      -0.02935658
Si      -1.16336640      -0.49368097       6.66425955      -0.01699038      -0.08117929      -0.03580625
Si      -2.57734435       2.40572795       2.14591073      -0.00985914      -0.04325141       0.00606188
Si       2.81332315       2.97716996       5.27045979       0.02757946       0.03194031       0.01496075
Si      -2.15376493       0.61419895       3.46687467       0.01736014       0.03846343      -0.01496075
Si      -5.25777556       4.11668110       7.96778767      -0.03508046      -0.02715232      -0.00606188
Si       2.50960049       3.93161643      -0.00000000       0.00000000       0.00000000       0.00000000
Si       3.10234230      -1.98026433       3.68048526      -0.00000000       0.00000000       0.00000000
22
Lattice="9.851788727557107 -0.7737194313773337 -1.3491195063453356 -4.84957162265593 8.610344822807168 1.3491195063453525 -3.638302960329224 -3.1924271219436804 8.720531346956538" Properties=species:S:1:pos:R:3:forces:R:3 unique_starting_index=6 config_type=initial n_minim_iter=11 energy=-3574.334948627298 stress="0.00019920997392614223 1.2968335044415612e-06 0.0001621126010745609 1.2968335044415612e-06 0.00020041384749254606 -0.0001034785236641612 0.0001621126010745609 -0.0001034785236641612 0.00019838214856849622" free_energy=-3574.334948627298 pbc="T T T"
Si      -4.82740978       6.22732965       8.59479157      -0.06883216       0.11274159      -0.00971724
Si       1.18033342       1.61544724       6.07056428      -0.02301412      -0.05411494       0.11867974
Si       5.77597720       1.58597018      -0.95426367       0.07322276      -0.01336586       0.01569415
Si      -0.22309828       0.38435890       4.70518662      -0.02836447      -0.01526775      -0.06891210
Si       7.18184184      -2.21539149       1.30084756      -0.03939578      -0.04365832      -0.11867974
Si      -0.80693720       3.66101115       1.47485928       0.13124207      -0.01496833       0.00971724