22
Lattice="5.029799852489035 -1.1173441757008917 0.9439574286868017 -2.8380232715243605 11.474883369021342 -2.6922481458782968 -0.39061556220994276 -4.879782245047527 9.827857926656131" Properties=species:S:1:pos:R:3:forces:R:3 unique_starting_index=18 config_type=initial n_minim_iter=1 energy=-3574.150351752216 stress="-0.00044419219077971727 0.0005226010068841617 0.00015926208339315273 0.0005226010068841617 0.00014635289043768912 0.0006272842533461392 0.00015926208339315273 0.0006272842533461392 0.0004816166148568762" free_energy=-3574.150351752216 pbc="T T T"
Si       0.52124370       9.37728568       0.17145196       0.47233350       0.84770305       0.32696134
Si       1.48022032       0.00700435       5.85354495       0.02637825      -0.12340470      -0.43256827
Si      -0.47359225      -3.87270121       9.09608123       0.49708403      -0.15171283       0.15937109
Si       3.60871854      -2.58270932       9.48022019       0.67229799      -0.09374024      -0.50627269
Si      -1.51752140       0.70962601       7.72443570      -0.03641628       0.24380293       0.47064278
Si       3.58833894       1.93371852       1.86216928      -0.32469518       0.24348051      -0.20221847
Si       2.56317813      -0.19727004       1.42827193      -0.73728028      -0.03555467       0.07601861
Si       1.37943127       0.59230197       8.05873070       0.66769869      -0.60921075      -0.34428459
Si       1.84296050      -4.11130898       9.09082847      -0.12275141      -1.00710440      -0.42156517
Si      -0.60139977       1.22525729       5.61825583       0.60130310      -0.10860374      -0.07102179
Si       3.33251410      -0.14086879       4.46713624       0.26462051       0.25813434       0.36003047
Si      -0.59936916       5.03237003       4.67579820      -0.04992373       1.21939107       0.98518628
Si      -0.45284193      -1.29472372       5.34009269      -0.18273048      -0.29697180      -0.58971396
Si      -1.33797416       8.16916871      -1.40455001      -1.31910816      -0.06315112       0.62386269
Si       2.81457422       2.18566919       5.29459988      -0.25801987       0.12247387      -0.10436480
Si       0.72155981       7.16152060      -0.56748109      -0.31457950       0.84517227       0.98516550
Si       0.67570006      -1.24644013       2.99285448      -0.16058453      -0.24010965      -0.28113859
Si       4.72385674      -4.49616197       7.72297249      -0.15483916       0.55443889       0.34855379
Si       1.61614072       2.12597532       3.20687944      -0.11225343       0.13141406      -0.22719375
Si      -0.27662866       3.49192478       6.49700027       0.73267082       0.27419173      -1.17254671
Si      -0.17630559       3.74629688       2.77627467       0.44939679      -1.03468205       0.30019234
Si       1.44947999      -1.69748637       7.86675023      -0.61060167      -0.97595678      -0.28309609
22
Lattice="5.1852487681393775 -1.291211337167495 0.915378371226027 -3.228939967187462 11.57004775727022 -2.996040460426215 -0.33936682296350207 -5.174359627333476 9.743030988998372" Properties=species:S:1:pos:R:3:forces:R:3 unique_starting_index=18 config_type=initial n_minim_iter=2 energy=-3574.769237477949 stress="-0.0020023814146662546 -0.004837868934307414 -0.0023436692952116434 -0.004837868934307414 -0.002939414849384459 -0.00648505776581539 -0.0023436692952116434 -0.00648505776581539 -0.008447543336703911" free_energy=-3574.769237477949 pbc="T T T"
Si       0.30839129       9.38342965      -0.12989683       0.45909907       0.98494421      -0.09685083
Si       1.47274811      -0.25275761       5.63883246      -0.00729815      -0.08440071      -1.35805835
Si      -0.38847449      -4.16652216       9.01434137       1.75721009      -0.40213077      -0.34827409
Si       3.77947020      -3.01139001       9.23323071       0.28762662      -0.38944700      -0.02427805
Si      -1.64900396       0.50770271       7.56257496       0.16749536       0.16648023      -0.19554453
Si       3.56881934       1.77883325       1.69224807      -0.39843468       0.93612833      -0.64974928
Si       2.53541467      -0.32330408       1.38544288      -2.12402907      -0.52899061       0.94276110
Si       1.41140780       0.19609906       7.77808645       0.39609029      -0.25298012       0.84516128
Si       1.92478816      -4.56619603       8.93614863       0.16338408      -0.25728045       0.36903936
Si      -0.62874370       1.02489286       5.42537540       0.61530694      -0.71279837       0.62975456
Si       3.41549927      -0.36631701       4.36617787      -0.02736674       0.52204111      -0.15218030
Si      -0.81486254       4.98862610       4.49031333       0.13499780       0.14425075       0.05078922
Si      -0.49165069      -1.48867966       5.18352764      -0.31367918      -0.51998917      -0.62912259
Si      -1.76071429       8.19364178      -1.56782298      -0.14223111       0.35419048      -0.12129047
Si       2.74671785       1.91814397       5.04403935      -0.06392963       0.29502106       0.06412681
Si       0.49132552       7.20306551      -0.69890380      -0.25012196       0.52549036       1.20718201
Si       0.68673867      -1.38746293       2.92125696      -0.19754135      -0.37203214      -0.49151567
Si       4.89336193      -4.80890333       7.67402563      -0.70136831       0.36417319      -0.37418273
Si       1.55418043       1.96792050       3.00917338      -0.07164906      -0.07421378      -0.53949615
Si      -0.35476786       3.28332847       6.07321616       0.04389409       0.44261626       0.42577241
Si      -0.25858544       3.50598558       2.61267125       0.14903644      -0.57258417       0.64341688
Si       1.40147408      -2.11083264       7.67971503       0.12350845      -0.56848869      -0.19746056
22
Lattice="5.229986945307941 -1.2868721459179089 0.9277649213445441 -3.2465106503540673 11.591992376909538 -2.9935268179103045 -0.33181895109158194 -5.165360347025852 9.801481216788483" Properties=species:S:1:pos:R:3:forces:R:3 unique_starting_index=18 config_type=initial n_minim_iter=3 energy=-3575.115949285843 stress="0.009301175360411062 -0.002852660406870261 -0.004029961478729226 -0.002852660406870261 0.006678928022341536 -0.004283886888896948 -0.004029961478729226 -0.004283886888896948 0.005004570580455165" free_energy=-3575.115949285843 pbc="T T T"
Si       0.33667221       9.43397852      -0.09887488       0.40902463       1.02853927      -0.10804735
Si       1.49619294      -0.24063635       5.66790519      -0.11887242      -0.06437427      -1.01457037
Si      -0.36201438      -4.16237947       9.07281855       1.05104769      -0.41344266       0.14615537
Si       3.84345469      -2.99666751       9.28810923       0.11570143      -0.43027711      -0.03642441
Si      -1.64961969       0.53234645       7.62824695       0.20099137       0.23138696      -0.34535303
Si       3.59499656       1.80181486       1.70833938      -0.27547556       0.63889460      -0.47783270
Si       2.53281767      -0.31992158       1.40451232      -1.38075751      -0.21709631       0.43410001
Si       1.45719254       0.20088476       7.83358453       0.33885062       0.00791501       0.91228937
Si       1.94949263      -4.58075956       8.98571063       0.26627602       0.02659128       0.55345769
Si      -0.60498800       1.03486345       5.46776539       0.41481225      -0.63948022       0.67052636
Si       3.45886695      -0.34503761       4.41173396       0.05275227       0.53126771      -0.02072835
Si      -0.80895775       5.04332335       4.55902224       0.10582858      -0.28362987      -0.28874077
Si      -0.49402226      -1.48897527       5.20124570      -0.12735706      -0.42386821      -0.57948038
Si      -1.80266898       8.21119609      -1.54573530       0.18952034       0.29150337      -0.33273577
Si       2.77506972       1.94343511       5.08894006       0.06684792       0.36315267      -0.03294244
Si       0.49409837       7.24453058      -0.65689164      -0.24673632       0.08731052       0.63029704
Si       0.69148127      -1.39017259       2.93238976      -0.22267425      -0.34568360      -0.48393575
Si       4.93594593      -4.78302894       7.73402968      -0.76454491       0.37783659      -0.29587644
Si       1.57251825       1.98614859       3.03208713       0.14458089      -0.11711924      -0.43373411
Si      -0.32326456       3.31596270       6.09838910      -0.16724846       0.24780930       0.75661610
Si      -0.23832442       3.49355875       2.65125961      -0.22350310      -0.41807437       0.47577229
Si       1.40989967      -2.12195459       7.72724076       0.17093558      -0.47916142      -0.12881235
22
Lattice="5.179910368834975 -1.2454677100878262 0.9542774491964193 -3.1897607682007134 11.425375426908444 -2.9148768409618073 -0.26827849547478055 -5.038028001958909 9.696344797617334" Properties=species:S:1:pos:R:3:forces:R:3 unique_starting_index=18 config_type=initial n_minim_iter=4 energy=-3575.42928813781 stress="-0.0021562201786290832 0.0005096130561949722 -0.0037758394634968355 0.0005096130561949722 -0.0050111235041543365 -0.0021910394638914206 -0.0037758394634968355 -0.0021910394638914206 -0.0037822054607803838" free_energy=-3575.42928813781 pbc="T T T"
Si       0.38721413       9.35368885      -0.01949390       0.39819893       1.11309539      -0.07413271
Si       1.52804165      -0.19494188       5.62320887      -0.23667164      -0.16638109      -0.82935107
Si      -0.27792658      -4.05904704       8.98369008       0.41317808      -0.48073486       0.65190338
Si       3.88947144      -2.88688546       9.22297213      -0.04481778      -0.27695248      -0.01401470
Si      -1.56679860       0.58117306       7.57867638       0.32814577       0.14670616      -0.19493718
Si       3.56980368       1.81845678       1.73045635       0.05262471       0.58000921      -0.36610136
Si       2.48745742      -0.29875554       1.41902931      -1.03190615       0.01989721       0.10150942
Si       1.52977627       0.24275974       7.79205896       0.05761770       0.50581335       1.12022910
Si       1.98467231      -4.48343712       8.90137896       0.48048437       0.32335957       0.85803775
Si      -0.52909982       1.05180678       5.43682922       0.25178867      -0.51957369       0.59647816
Si       3.46668251      -0.28713301       4.41639008       0.47075589       0.39955699      -0.14746280
Si      -0.74242971       5.04465546       4.58286389       0.15374303      -0.37598563      -0.88594251
Si      -0.45761663      -1.44663011       5.13388457      -0.24599644      -0.44224375      -0.52310549
Si      -1.79757678       8.09991885      -1.47552679       0.38615228       0.23602604      -0.44236770
Si       2.79124406       1.97323085       5.08913201      -0.03049161       0.59746504       0.04106703
Si       0.50380694       7.18126907      -0.56602875      -0.28377320      -0.43920200       0.34191573
Si       0.69781154      -1.35862429       2.89868456      -0.19244314      -0.32310863      -0.46105288
Si       4.92157188      -4.63772604       7.69419125      -0.79748065       0.10982027      -0.65124127
Si       1.58803515       1.99399385       3.03070175       0.29424717      -0.32406226      -0.28954328
Si      -0.23605726       3.32893312       6.05351625      -0.13935143       0.09792920       1.17814175
Si      -0.18655275       3.44117011       2.66918428      -0.59820501      -0.14591846       0.09155970
Si       1.43697382      -2.06517260       7.66477911       0.31420044      -0.63551557      -0.10158905
22
Lattice="5.181260980710719 -1.2548470208558784 0.9872892933261029 -3.224674889711382 11.45584380153268 -2.905004507061091 -0.18866533155688164 -5.025939202227075 9.678066651282023" Properties=species:S:1:pos:R:3:forces:R:3 unique_starting_index=18 config_type=initial n_minim_iter=5 energy=-3575.448411637247 stress="-0.0032006829408609927 0.00027484922098861984 8.012594335889489e-05 0.00027484922098861984 -0.002506941156076119 -0.001191656679126473 8.012594335889489e-05 -0.001191656679126473 -0.0035068410469082456" free_energy=-3575.448411637247 pbc="T T T"
Si       0.37506544       9.38804871       0.01014415       0.39641949       1.01207772      -0.11165759
Si       1.56654364      -0.18358372       5.62725030      -0.36672409      -0.16879332      -0.61865655
Si      -0.20095796      -4.04876889       8.97145633       0.62749387      -0.48772014       0.45496841
Si       3.95903568      -2.87811850       9.23803970      -0.05714055      -0.25540373       0.05785649
Si      -1.50872136       0.60762605       7.56847946       0.23417151       0.15409705      -0.12142565
Si       3.57275137       1.82597029       1.75802944       0.11946480       0.56680610      -0.42992921
Si       2.48726273      -0.29957690       1.43604684      -1.28663282       0.02808028       0.30251113
Si       1.58782143       0.26091497       7.80420931       0.06166418       0.38056612       0.97231695
Si       2.05562521      -4.47901444       8.90208869       0.57190990       0.33990606       0.86893887
Si      -0.48614203       1.06776224       5.43677284       0.21869017      -0.44097158       0.41132635
Si       3.49726674      -0.27894952       4.44018847       0.66727351       0.39705399      -0.14146094
Si      -0.71543879       5.07684929       4.59171076       0.18445562      -0.38070488      -0.83196533
Si      -0.41853331      -1.43888929       5.12091392      -0.25794133      -0.39352874      -0.46714234
Si      -1.82317782       8.12308183      -1.46438841       0.36366811       0.20042673      -0.39949979
Si       2.82002824       1.99102825       5.11262171      -0.04626120       0.60523157       0.03287095
Si       0.48489954       7.20194505      -0.53690858      -0.29691120      -0.32643681       0.41971624
Si       0.71872936      -1.35795689       2.89625993      -0.19541363      -0.35091901      -0.50279303
Si       4.97409633      -4.63495476       7.71355289      -0.74778601       0.11945186      -0.65389318
Si       1.60549627       2.00495389       3.04470396       0.25345169      -0.30446789      -0.18849915
Si      -0.19394635       3.35686000       6.05870317      -0.11572961       0.04126586       1.06961092
Si      -0.17233310       3.45347789       2.67870935      -0.63809026      -0.16002523       0.00317454
Si       1.49302321      -2.05926337       7.66593969       0.30996784      -0.57599199      -0.12636810
22
Lattice="5.263071566283032 -1.3320814805020376 1.062489851900057 -3.520238939390299 11.430081827328891 -2.759926253664455 0.08962934595420573 -4.838181133703337 9.565789468341547" Properties=species:S:1:pos:R:3:forces:R:3 unique_starting_index=18 config_type=initial n_minim_iter=6 energy=-3575.642643057086 stress="-0.00406590185936581 -0.0018887323168825382 0.010716631049255862 -0.0018887323168825382 0.0047349864936552235 0.0032094765202176374 0.010716631049255862 0.0032094765202176374 -9.42115070608138e-05" free_energy=-3575.642643057086 pbc="T T T"
Si       0.24358395       9.44660499       0.19194918       0.28779288       0.40478839      -0.35455278
Si       1.66976668      -0.12702947       5.58755056      -0.22035371      -0.08606979       0.31160644
Si       0.10755658      -3.91381350       8.91464627       1.02351127      -0.42052636      -0.13464494
Si       4.25288254      -2.80476715       9.22183650      -0.11927229      -0.04780521       0.34836658
Si      -1.37562997       0.78678786       7.54868015      -0.03804790      -0.00456032       0.15775836
Si       3.58324638       1.82460451       1.82227901       0.34681724       0.38686112      -0.70895054
Si       2.43248802      -0.31412565       1.48760072      -1.49486752       0.32094566       0.63468375
Si       1.78613669       0.35172717       7.85717803      -0.04922469       0.01726387       0.13892439
Si       2.35312443      -4.38492177       8.86830321       0.68600603       0.45520582       0.90764362
Si      -0.35866677       1.13515249       5.45690127      -0.13188815      -0.09156042      -0.16255606
Si       3.66091444      -0.23498001       4.50620226       1.08554473       0.52518943       0.08907983
Si      -0.72262384       5.19321788       4.66435893       0.33957669      -0.40954953      -0.75820512
Si      -0.31830651      -1.37084716       5.02234893      -0.34074604      -0.17944510      -0.34000853
Si      -2.06571885       8.11601765      -1.34625743       0.46569118       0.09658137      -0.31489572
Si       2.88462072       2.05826536       5.18454528      -0.10100770       0.58336893       0.03153446
Si       0.31074720       7.18565178      -0.33322708      -0.39607135      -0.04394483       0.51939235
Si       0.78537318      -1.34554913       2.84003638      -0.47178165      -0.48703505      -0.43074402
Si       5.19142164      -4.54008635       7.69543604      -0.73496423      -0.13780054      -0.35901065
Si       1.64846680       2.01169064       3.08273217       0.12831850      -0.17388128       0.13004205
Si      -0.11303813       3.46856349       6.09941056      -0.03396275      -0.12598184       0.82529769
Si      -0.19739700       3.43217165       2.74719088      -0.76578003      -0.29636438      -0.39763777
Si       1.67856241      -2.02663449       7.62281477       0.53470948      -0.28567996      -0.13312340
22
Lattice="5.333418284257295 -1.3495174581981293 1.0528878525700636 -3.634319137186761 11.354345162721707 -2.63777437564808 0.12958039308516175 -4.711487691489038 9.463933789347823" Properties=species:S:1:pos:R:3:forces:R:3 unique_starting_index=18 config_type=initial n_minim_iter=7 energy=-3576.127619973267 stress="0.000544391463662007 -0.0014222305881859216 0.00954027178660029 -0.0014222305881859216 0.00998538264459853 0.006573395108175654 0.00954027178660029 0.006573395108175654 0.005026149756832758" free_energy=-3576.127619973267 pbc="T T T"
Si       0.23313499       9.48929930       0.29020810       0.21981362      -0.09667794      -0.62377267
Si       1.67649780      -0.09445207       5.50224504       0.26780842      -0.14315921       0.65739896
Si       0.21400405      -3.84465146       8.86742091      -0.23396722      -0.26544460       0.45436910
Si       4.35811209      -2.74602441       9.13212974      -0.20898734       0.33487487       0.20443594
Si      -1.37482681       0.88750568       7.52411713      -0.05250846      -0.30474317       0.24955942
Si       3.60255997       1.85345880       1.79611334       0.41313370      -0.05245300      -0.41180124
Si       2.34068407      -0.29944383       1.49449537       0.08561551       1.07896084      -0.47507090
Si       1.85111903       0.40950399       7.86219687      -0.19636469      -0.17286164      -0.30129689
Si       2.45322357      -4.31024091       8.81902443       0.69621023       0.34494341       0.88480767
Si      -0.31948430       1.14875066       5.46276912      -0.46355126       0.20915750      -0.26772626
Si       3.76704832      -0.17439399       4.49955073       0.89115596       0.69435385       0.40801962
Si      -0.74748548       5.24035575       4.67843788       0.37244943      -0.47141868      -0.69972883
Si      -0.33544768      -1.34606083       4.91927878      -0.26364125       0.17950777      -0.40518132
Si      -2.17591658       8.07755731      -1.26290498       0.74684078      -0.05018399      -0.33361092
Si       2.89162101       2.12482874       5.17587449      -0.06299301       0.44966068       0.09827067
Si       0.23196780       7.15364558      -0.19058566      -0.50333827       0.07692071       0.33951453
Si       0.77781976      -1.34808866       2.76678217      -0.91533073      -0.69192836      -0.00253727
Si       5.21552002      -4.43187917       7.59378330      -0.52573230      -0.50747674       0.15443743
Si       1.67354877       2.00493647       3.06612554       0.11615729      -0.10678387       0.14801735
Si      -0.10358424       3.52131052       6.11859322      -0.12145678      -0.16173636       0.68419208
Si      -0.24255721       3.37996436       2.77680872      -0.76359666      -0.30573249      -0.63181070
Si       1.71950010      -2.03163753       7.54283566       0.50228302      -0.03777958      -0.13048576
22
Lattice="5.363493897253346 -1.2600520302825091 1.014155618446505 -3.46021336256851 11.0621999216648 -2.8036898411961313 -0.06948176483431258 -4.753308555699913 9.596926873950835" Properties=species:S:1:pos:R:3:forces:R:3 unique_starting_index=18 config_type=initial n_minim_iter=8 energy=-3576.571282379553 stress="0.0054019402145870435 0.002387386913078464 0.0022714129001529955 0.002387386913078464 0.003297718991784531 0.002377014017174001 0.0022714129001529955 0.002377014017174001 0.009398478477044116" free_energy=-3576.571282379553 pbc="T T T"
Si       0.41858207       9.31295406       0.10556126       0.25404856      -0.22308118      -1.33422737
Si       1.61933159      -0.17482742       5.47806570       0.88339561      -0.30082583       0.80812089
Si       0.07286424      -3.93430057       9.02783981      -0.93358117       0.06354969       0.57085856
Si       4.24832312      -2.78259558       9.17450921      -0.11299999       0.69024211      -0.52594089
Si      -1.45777758       0.71965308       7.56739168       0.15498830      -0.43998168       0.01946461
Si       3.65933357       1.85917758       1.69274193       0.56963116      -0.40420574       1.07502966
Si       2.26698456      -0.25576532       1.47413884       0.67233729       0.74166037       0.17969396
Si       1.78504124       0.30103113       7.92363172      -0.28985592      -0.13493826      -0.55871794
Si       2.34550097      -4.31027291       8.97583689       0.11841259       0.21521797       0.15841500
Si      -0.36408213       0.99415852       5.50476441      -0.74785176       0.36442252      -0.06148466
Si       3.80440427      -0.15601860       4.48702024       0.43126977       0.88484623       0.97029167
Si      -0.71267842       4.99835386       4.57174488       0.40791408      -0.51767486      -0.37270466
Si      -0.45060577      -1.42175831       4.92851161      -0.04838453       0.09501483      -0.50529788
Si      -2.02704964       7.87493293      -1.40784591       0.88623232      -0.14022930      -0.59893274
Si       2.88465539       2.06593730       5.13224789      -0.20103938       0.28067429       0.06120639
Si       0.31898031       6.97007863      -0.27942975      -0.55784596      -0.03263091       0.01374945
Si       0.69021370      -1.38451570       2.76622188      -0.74786611      -0.28091002       0.09465269
Si       5.03960042      -4.37211367       7.61882213      -0.06408929      -0.73739962       0.42348304
Si       1.70746352       1.90624645       3.01202314       0.14384333       0.04636084      -0.04346821
Si      -0.13022166       3.32883901       6.15987385      -0.36438508       0.29356466       0.51998690
Si      -0.27826746       3.21777433       2.73095654      -0.51255703      -0.38263888      -0.67436075
Si       1.63846120      -2.13365446       7.58857278       0.05838321      -0.08103723      -0.21981772
22
Lattice="5.310613866459599 -1.2431562431399046 0.8803688283021351 -3.315808192552736 11.11135276595719 -2.7690159003588404 -0.34383103325760045 -4.840748284809666 9.49691396607034" Properties=species:S:1:pos:R:3:forces:R:3 unique_starting_index=18 config_type=initial n_minim_iter=9 energy=-3576.802315228645 stress="-0.00025805263577311616 0.0028607802114320106 -0.007485479913632486 0.0028607802114320106 0.004653794249133728 0.004029786720426141 -0.007485479913632486 0.004029786720426141 -0.0016973251787329201" free_energy=-3576.802315228645 pbc="T T T"
Si       0.46988948       9.35723513      -0.02212885       0.16375221       0.09118043      -1.25316939
Si       1.48872614      -0.21246444       5.36831317       0.74414223      -0.13321968       0.57274127
Si      -0.19605811      -4.02338246       8.94717893      -0.72329833       0.08341426       0.54350158
Si       3.95627327      -2.82332504       8.96620241       0.26198631       0.63564925      -1.11055269
Si      -1.63173395       0.64874347       7.47339593       0.25770953      -0.39883953       0.20665544
Si       3.63601633       1.87848774       1.57203646       0.00585894      -0.44693247       1.14835220
Si       2.21421888      -0.23197891       1.40368717       0.45157365       0.36330657       1.03919344
Si       1.54948036       0.27721606       7.78376493      -0.21922299      -0.19656483      -0.43510992
Si       2.10502920      -4.34396640       8.86396877      -0.35913545      -0.13807893      -0.89871010
Si      -0.52883457       0.95610183       5.43841143      -0.03062218       0.17888316       0.56238421
Si       3.69419116      -0.14157157       4.33863479      -0.18008154       0.88827203       0.27430315
Si      -0.78051241       4.93582337       4.42713493       0.40864030      -0.00720832       0.19060336
Si      -0.59260360      -1.46418015       4.86672558       0.01787466      -0.05584439      -0.41252086
Si      -1.87004858       7.91170104      -1.44106119       0.41664422      -0.03478883      -0.36076922
Si       2.75041224       2.07575770       4.97656247      -0.15540650       0.10086204       0.33781985
Si       0.34554486       6.97946300      -0.34515720      -0.49230663      -0.00876882      -0.00099806
Si       0.58092954      -1.41850183       2.71792647      -0.21443941      -0.29289820      -0.21101255
Si       4.77486289      -4.44259929       7.40748248      -0.11007518      -0.49245272       0.45444649
Si       1.64693149       1.89243426       2.90931770      -0.20112500       0.14704139      -0.54548745
Si      -0.30373463       3.30088740       6.11699393      -0.17837212       0.38587352       0.18515521
Si      -0.37550168       3.22380573       2.65102605       0.21186111      -0.66622023      -0.03490928
Si       1.45729936      -2.18143283       7.45460624      -0.07595783      -0.00266571      -0.25191670
22
Lattice="5.377358722534066 -1.281119176346209 0.9356016733236261 -3.448634748130608 10.954090708310458 -3.0670897925176854 -0.2616348681876474 -4.967898836999728 9.652110195670627" Properties=species:S:1:pos:R:3:forces:R:3 unique_starting_index=18 config_type=initial n_minim_iter=10 energy=-3577.014568177956 stress="0.00014264756817777038 -0.0003248258465720412 -0.002739366585616524 -0.0003248258465720412 -0.012516866031060609 -0.008220859541804267 -0.002739366585616524 -0.008220859541804267 -0.0018707929409518319" free_energy=-3577.014568177956 pbc="T T T"
Si       0.41438097       9.15253419      -0.28612147       0.32805559      -0.02443855      -1.59478387
Si       1.55224776      -0.36476097       5.40558596       0.51406234      -0.02702305       0.63336496
Si      -0.12494355      -4.16519603       9.09863232      -0.53858108      -0.06328135       0.49312239
Si       4.06007154      -3.00747887       9.07372887       0.26138741       0.74036496      -0.07101863
Si      -1.60428287       0.44813127       7.48015366      -0.16576639      -0.45788808      -0.00899512
Si       3.67685477       1.76671484       1.55775584       0.19499394      -0.04559285       0.26197945
Si       2.22929868      -0.26549952       1.44058629       0.15015612       0.29666370       0.49708659
Si       1.59393667       0.06252941       7.81931592       0.18402861      -0.36529257      -0.57113187
Si       2.21598521      -4.47827662       9.02764446      -0.72444420      -0.23598452      -0.36853326
Si      -0.52370016       0.79789557       5.44652399       0.10751301      -0.03278049       0.16285673
Si       3.77001193      -0.25230294       4.38425261      -0.09455096       0.73604803       0.63546135
Si      -0.78593316       4.69998285       4.29876469       0.60552708       0.19326321       0.70494133
Si      -0.57041870      -1.55285666       4.90050118       0.05277864      -0.56128868      -0.37236539
Si      -1.92463316       7.78418242      -1.66982583       0.32470353       0.17955856       0.05073048
Si       2.78021565       1.89448592       4.96078352      -0.55995585       0.06971950       0.22559707
Si       0.27184951       6.82069024      -0.50672484      -0.65724662       0.15410231       0.38085420
Si       0.58954248      -1.47290633       2.75800112      -0.39473800      -0.17788805      -0.14250186
Si       4.87359831      -4.58203027       7.56385276       0.11967950      -0.46989632       0.09891044
Si       1.66804708       1.75819323       2.87140976      -0.29476162       0.38327734      -0.29386978
Si      -0.31369913       3.07894972       6.09103633       0.08465232       0.96447617      -0.49839770
Si      -0.41015214       3.07395345       2.57139810       0.57812906      -0.92414795       0.04722967
Si       1.54004613      -2.34121798       7.53717354      -0.07562242      -0.33197131      -0.27053717
22
Lattice="5.416097959785159 -1.3871321005912176 0.9617945009018309 -3.708585339663838 11.153822138569812 -2.925428946862633 -0.06097488862100564 -4.922471387029468 9.441386482646507" Properties=species:S:1:pos:R:3:forces:R:3 unique_starting_index=18 config_type=initial n_minim_iter=11 energy=-3577.498432991324 stress="0.00047673825115785064 -0.00514624399276365 0.005080188211477026 -0.00514624399276365 -0.0023763603253324148 -0.001158967373691336 0.005080188211477026 -0.001158967373691336 -0.004505324382392499" free_energy=-3577.498432991324 pbc="T T T"
Si       0.25815866       9.33370761      -0.21644653       0.24098439       0.05381267      -1.06144547
Si       1.64010481      -0.34487502       5.33948812       0.07108560       0.09874152       0.45112631
Si       0.06161624      -4.13301997       8.93952420      -0.35979087      -0.21242819       0.55320576
Si       4.24909186      -2.99728359       8.90596256       0.17153187       0.44167161       0.74021136
Si      -1.53591404       0.57090291       7.37435627      -0.57188504      -0.18218936       0.09181932
Si       3.65638646       1.75598007       1.59760436       0.10298284       0.30701638      -0.65072618