20
Lattice="10.15055781229146 8.348877145181177e-14 5.251822272543129e-15 5.075278906145661 8.790640928027042 4.072154219636819e-15 5.075278906145704 2.930213642675707 4.555477633608714" Properties=species:S:1:pos:R:3:forces:R:3 unique_starting_index=8 config_type=initial n_minim_iter=1 energy=-3255.33891444205 stress="-0.0005902914980925613 -1.4403050536477919e-15 1.6459913281865481e-15 -1.4403050536477919e-15 -0.0005902914980911916 1.1329940136892975e-15 1.6459913281865481e-15 1.1329940136892975e-15 -0.0009583076875833039" free_energy=-3255.33891444205 pbc="T T T"
Si      11.81592007       5.10888318       1.23314777       0.01948851      -0.00680505      -0.00666511
Si       9.96873298       7.67844536       1.23314777      -0.00385091       0.02028007      -0.00666511
Si       8.66702040       4.79395332       1.23314777      -0.01563760      -0.01347502      -0.00666511
Si       7.93541682       5.25290089       3.62676764      -0.02081789      -0.02574962      -0.01775976
Si      11.78426161       4.24582210       3.62676764       0.03270877      -0.00515401      -0.01775976
Si      10.73199503       8.08255886       3.62676764      -0.01189088       0.03090363      -0.01775976
Si       9.62201806       3.72167579       4.43540119       0.01938315       0.04128656       0.00016181
Si      12.26704082       6.47207417       4.43540119      -0.04544679      -0.00385698       0.00016181
Si       8.56261457       7.38753189       4.43540119       0.02606363      -0.03742958       0.00016181
Si       6.67671091       7.19991142      -0.34180523      -0.04445486       0.03705727       0.02759437
Si      10.72745398       2.18224555      -0.34180523      -0.00986511      -0.05702767       0.02759437
Si      13.04750856       8.19912489      -0.34180523       0.05431997       0.01997040       0.02759437
Si      14.33670157       6.73962514       3.23822595       0.00003674      -0.05518175      -0.03358965
Si      17.44663607       9.04613519       3.23822595       0.04777043       0.02762269      -0.03358965
Si      13.89417252      10.58616245       3.23822595      -0.04780717       0.02755906      -0.03358965
Si      10.30030109       3.20967254       1.74285472       0.01103116      -0.02072588       0.00632416
Si      12.37130712       7.31548614       1.74285472       0.01243356       0.01991621       0.00632416
Si       7.78006523       7.05612317       1.74285472      -0.02346472       0.00080967       0.00632416
Si      15.22583672       8.79064093       0.17057531      -0.00000000       0.00000000       0.03177426
Si      15.22583672       8.79064093       2.55852561      -0.00000000       0.00000000       0.04002827
20
Lattice="10.155744813571184 8.491546009157048e-14 5.278233817439421e-15 5.077872406785523 8.795133002904747 4.083415819667576e-15 5.077872406785566 2.931711000968276 4.559257426281902" Properties=species:S:1:pos:R:3:forces:R:3 unique_starting_index=8 config_type=initial n_minim_iter=2 energy=-3255.339240469954 stress="0.0003278625601314706 4.717734489161215e-16 7.50862184236019e-17 4.717734489161215e-16 0.00032786256013270687 2.049554360513024e-16 7.50862184236019e-17 2.049554360513024e-16 -0.0001554232054280805" free_energy=-3255.339240469954 pbc="T T T"
Si      11.82199960       5.11147936       1.23415674       0.02676774      -0.00485419      -0.00270210
Si       9.97381886       7.68241229       1.23415674      -0.00918002       0.02560864      -0.00270210
Si       8.67141600       4.79637436       1.23415674      -0.01758773      -0.02075445      -0.00270210
Si       7.93942752       5.25553031       3.62973902      -0.01862158      -0.02043910      -0.02131233
Si      11.79035312       4.24798077       3.62973902       0.02701157      -0.00590722      -0.02131233
Si      10.73745381       8.08675493       3.62973902      -0.00838999       0.02634631      -0.02131233
Si       9.62697626       3.72366554       4.43908169       0.02231704       0.03055889      -0.00621688
Si      12.27321255       6.47537323       4.43908169      -0.03762330       0.00404768      -0.00621688
Si       8.56704564       7.39122724       4.43908169       0.01530626      -0.03460657      -0.00621688
Si       6.68002805       7.20366956      -0.34203004      -0.04050426       0.03571149       0.03599882
Si      10.73291476       2.18323921      -0.34203004      -0.01067493      -0.05293347       0.03599882
Si      13.05429163       8.20335724      -0.34203004       0.05117919       0.01722197       0.03599882
Si      14.34402780       6.74295159       3.24084121      -0.00574763      -0.04950906      -0.02934145
Si      17.45565318       9.05081667       3.24084121       0.04574992       0.01977693      -0.02934145
Si      13.90117070      10.59163076       3.24084121      -0.04000229       0.02973212      -0.02934145
Si      10.30558811       3.21126855       1.74431428       0.00793512      -0.01450381      -0.00145595
Si      12.37765543       7.31926683       1.74431428       0.00859311       0.01412392      -0.00145595
Si       7.78399091       7.05973062       1.74431428      -0.01652822       0.00037989      -0.00145595
Si      15.23361722       8.79513300       0.17078455      -0.00000000       0.00000000       0.03905059
Si      15.23361722       8.79513300       2.56073378      -0.00000000       0.00000000       0.03603905
20
Lattice="10.145149425468594 8.384047340789696e-14 5.280149242965844e-15 5.0725747127342276 8.785957127644945 4.077717025762532e-15 5.072574712734271 2.9286523758816747 4.569701424225804" Properties=species:S:1:pos:R:3:forces:R:3 unique_starting_index=8 config_type=initial n_minim_iter=3 energy=-3255.339670959612 stress="-0.00032254251030937125 4.2124530374391877e-16 -3.880628441575927e-16 4.2124530374391877e-16 -0.00032254251030833464 1.473790163027766e-16 -3.880628441575927e-16 1.473790163027766e-16 0.0005833454496431745" free_energy=-3255.339670959612 pbc="T T T"
Si      11.81011589       5.10605334       1.23692145       0.02454213      -0.01646924       0.00691343
Si       9.96326901       7.67483371       1.23692145       0.00199171       0.02948873       0.00691343
Si       8.66206339       4.79102721       1.23692145      -0.02653385      -0.01301949       0.00691343
Si       7.93080544       5.24966490       3.63768598      -0.00592240      -0.02414747      -0.03678756
Si      11.77855297       4.24344653       3.63768598       0.02387353       0.00694478      -0.03678756
Si      10.72608988       8.07880283       3.63768598      -0.01795112       0.01720269      -0.03678756
Si       9.61731893       3.72036229       4.44916222       0.01547321       0.01609151      -0.00751657
Si      12.25971114       6.46866136       4.44916222      -0.02167226       0.00535443      -0.00751657
Si       8.55841822       7.38289061       4.44916222       0.00619906      -0.02144595      -0.00751657
Si       6.67232452       7.19679387      -0.34220093      -0.01239650       0.02643922       0.04945663
Si      10.72153028       2.18000560      -0.34220093      -0.01669879      -0.02395530       0.04945663
Si      13.04159348       8.19511479      -0.34220093       0.02909529      -0.00248392       0.04945663
Si      14.32898121       6.73501615       3.24772610      -0.01583025      -0.05440754      -0.02105944
Si      17.43826260       9.04175366       3.24772610       0.05503343       0.01349437      -0.02105944
Si      13.88592862      10.58110158       3.24772610      -0.03920318       0.04091317      -0.02105944
Si      10.29498853       3.20763820       1.74831184       0.02126064      -0.02420294      -0.01822770
Si      12.36490842       7.31190249       1.74831184       0.01033004       0.03051373      -0.01822770
Si       7.77555134       7.05237356       1.74831184      -0.03159069      -0.00631079      -0.01822770
Si      15.21772414       8.78595713       0.17184688      -0.00000000       0.00000000       0.07973100
Si      15.21772414       8.78595713       2.56725733      -0.00000000       0.00000000       0.00193260
20
Lattice="10.1522917582221 8.226829610092995e-14 5.273310203548534e-15 5.076145879110982 8.792142569251762 4.074646041686912e-15 5.076145879111025 2.9307141897506135 4.560771534047048" Properties=species:S:1:pos:R:3:forces:R:3 unique_starting_index=8 config_type=initial n_minim_iter=4 energy=-3255.343275647789 stress="0.00039085371947848507 -1.4676991589671513e-16 -3.8178458462713407e-16 -1.4676991589671513e-16 0.0003908537194792003 7.981411274561663e-17 -3.8178458462713407e-16 7.981411274561663e-17 -0.0004275671702517872" free_energy=-3255.343275647789 pbc="T T T"
Si      11.82248748       5.10814260       1.23457117       0.03541378       0.01192564      -0.00245670
Si       9.96955852       7.68450319       1.23457117      -0.02803479       0.02470641      -0.00245670
Si       8.66482928       4.79163935       1.23457117      -0.00737899      -0.03663205      -0.00245670
Si       7.93410100       5.24975259       3.62627248      -0.02158633      -0.01954306      -0.00227454
Si      11.79111392       4.24625673       3.62627248       0.02771795      -0.00892278      -0.00227454
Si      10.73166037       8.08827583       3.62627248      -0.00613162       0.02846584      -0.00227454
Si       9.62723108       3.72723807       4.43949691       0.01855736      -0.00760390      -0.01476688
Si      12.26308513       6.47380764       4.43949691      -0.00269351       0.01987309      -0.01476688
Si       8.56655908       7.38323943       4.43949691      -0.01586385      -0.01226919      -0.01476688
Si       6.67208881       7.20709232      -0.33505823       0.01403112      -0.03859074      -0.02413409
Si      10.72701408       2.17465225      -0.33505823       0.02640500       0.03144668      -0.02413409
Si      13.05777239       8.20254058      -0.33505823      -0.04043612       0.00714406      -0.02413409
Si      14.33764529       6.73138539       3.23705587      -0.00858479      -0.02714410      -0.02542622
Si      17.45850188       9.05107236       3.23705587       0.02779988       0.00613741      -0.02542622
Si      13.88916575      10.59396996       3.23705587      -0.01921509       0.02100669      -0.02542622
Si      10.30436000       3.20687414       1.74379673      -0.01287194       0.02590973       0.01573353
Si      12.37516905       7.32040045       1.74379673      -0.01600251      -0.02410229       0.01573353
Si       7.77734624       7.05701055       1.74379673       0.02887445      -0.00180744       0.01573353
Si      15.22843764       8.79214257       0.18011981      -0.00000000       0.00000000       0.06512414
Si      15.22843764       8.79214257       2.56610385      -0.00000000       0.00000000       0.09485058
20
Lattice="10.138589302517644 8.308409741417758e-14 5.269331393201027e-15 5.069294651258752 8.780275894517473 4.07510401452011e-15 5.069294651258798 2.9267586315058502 4.573884506867415" Properties=species:S:1:pos:R:3:forces:R:3 unique_starting_index=8 config_type=initial n_minim_iter=5 energy=-3255.344943117324 stress="-0.00022367957773302002 5.975845527391549e-16 -1.2158106015878922e-16 5.975845527391549e-16 -0.00022367957773058425 2.4665726579605176e-16 -1.2158106015878922e-16 2.4665726579605176e-16 0.00024216438002483753" free_energy=-3255.344943117324 pbc="T T T"
Si      11.81156423       5.10014871       1.23816727       0.03593385       0.00402416       0.01402943
Si       9.95453815       7.67904033       1.23816727      -0.02145195       0.02910755       0.01402943
Si       8.64966554       4.78136275       1.23816727      -0.01448190      -0.03313171       0.01402943
Si       7.92057521       5.23852512       3.63242599       0.00183117      -0.01843438      -0.00735660
Si      11.78019518       4.24015678       3.63242599       0.01504906       0.01080303      -0.00735660
Si      10.71499753       8.08186989       3.63242599      -0.01688023       0.00763135      -0.00735660
Si       9.61778255       3.72584832       4.45082489       0.00572405      -0.04084206      -0.02202119
Si      12.24160804       6.46631985       4.45082489       0.03250824       0.02537820      -0.02202119
Si       8.55637733       7.36838361       4.45082489      -0.03823229       0.01546386      -0.02202119
Si       6.65918075       7.20082924      -0.33068437       0.06568666      -0.07292777      -0.03750136
Si      10.71148718       2.16660508      -0.33068437       0.03031397       0.09335020      -0.03750136
Si      13.04509998       8.19311747      -0.33068437      -0.09600063      -0.02042243      -0.03750136
Si      14.31658007       6.71339549       3.24142496      -0.01860855      -0.00968848      -0.01720255
Si      17.44350684       9.04182429       3.24142496       0.01769475      -0.01127123      -0.01720255
Si      13.86356496      10.58560791       3.24142496       0.00091380       0.02095972      -0.01720255
Si      10.29211843       3.20052122       1.74821622      -0.00538420       0.04302483       0.00398499
Si      12.35938672       7.31297541       1.74821622      -0.03456849      -0.02617527       0.00398499
Si       7.76426277       7.04705517       1.74821622       0.03995270      -0.01684956       0.00398499
Si      15.20788396       8.78027590       0.19144406      -0.00000000       0.00000000       0.10652390
Si      15.20788396       8.78027590       2.58024773      -0.00000000       0.00000000       0.09167794
20
Lattice="10.136131979246548 8.603932933322119e-14 5.287877049092384e-15 5.068065989623201 8.778147790139391 4.105333081837943e-15 5.068065989623251 2.926049263379824 4.578055310703076" Properties=species:S:1:pos:R:3:forces:R:3 unique_starting_index=8 config_type=initial n_minim_iter=6 energy=-3255.349429517712 stress="-0.00020182701674476886 5.905753946522303e-16 1.2311145742574344e-16 5.905753946522303e-16 -0.00020182701674275984 9.866328317562539e-17 1.2311145742574344e-16 9.866328317562539e-17 0.00022031814747147793" free_energy=-3255.349429517712 pbc="T T T"
Si      11.81695911       5.09851263       1.24025419       0.02710547      -0.02144879       0.03587434
Si       9.94834295       7.68453047       1.24025419       0.00502247       0.03419842       0.03587434
Si       8.64309389       4.77325248       1.24025419      -0.03212793      -0.01274962       0.03587434
Si       7.91551217       5.23153251       3.63115100       0.04445253      -0.00209194      -0.00331408
Si      11.78386782       4.23926836       3.63115100      -0.02041459       0.03954299      -0.00331408
Si      10.70901596       8.08549471       3.63115100      -0.02403794      -0.03745105      -0.00331408
Si       9.61972480       3.72532466       4.45154878      -0.00729776      -0.01983371      -0.02297454
Si      12.23617577       6.46826372       4.45154878       0.02082537       0.00359681      -0.02297454
Si       8.55249538       7.36270719       4.45154878      -0.01352762       0.01623690      -0.02297454
Si       6.65882165       7.19619461      -0.32930072       0.00871398       0.01780766       0.00103779
Si      10.71076580       2.16861140      -0.32930072      -0.01977888      -0.00135730       0.00103779
Si      13.03880850       8.19148957      -0.32930072       0.01106490      -0.01645036       0.00103779
Si      14.30996867       6.70196487       3.23777469      -0.01020537       0.02320302      -0.02794056
Si      17.44933977       9.04181396       3.23777469      -0.01499172      -0.02043962      -0.02794056
Si      13.85328547      10.59066454       3.23777469       0.02519709      -0.00276340      -0.02794056
Si      10.29043159       3.20160276       1.74999784       0.01940425       0.05259010      -0.01569504
Si      12.35437885       7.31097379       1.74999784      -0.05524649      -0.00949048      -0.01569504
Si       7.76358551       7.04371904       1.74999784       0.03584224      -0.04309962      -0.01569504
Si      15.20419797       8.77814779       0.21110255      -0.00000000       0.00000000       0.02420993
Si      15.20419797       8.77814779       2.59820919      -0.00000000       0.00000000       0.07482636
20
Lattice="10.136920265524854 8.64111447618253e-14 5.278130437984522e-15 5.068460132762354 8.778830466081857 4.1066332873271125e-15 5.068460132762403 2.9262768220273134 4.578954313012199" Properties=species:S:1:pos:R:3:forces:R:3 unique_starting_index=8 config_type=initial n_minim_iter=7 energy=-3255.351062478036 stress="-4.048347256101957e-05 1.0266298538414713e-15 3.8304805719205195e-17 1.0266298538414713e-15 -4.048347255998165e-05 4.1205711410754653e-16 3.8304805719205195e-17 4.1205711410754653e-16 -2.1783352464845367e-05" free_energy=-3255.351062478036 pbc="T T T"
Si      11.82468744       5.09796831       1.24183499       0.02770943      -0.03373972       0.04656976
Si       9.94652676       7.69149556       1.24183499       0.01536474       0.04086693       0.04656976
Si       8.63954661       4.76819707       1.24183499      -0.04307417      -0.00712721       0.04656976
Si       7.91445153       5.22744048       3.62801657       0.05409326       0.00736811       0.01275508
Si      11.78951852       4.24039584       3.62801657      -0.03342760       0.04316208       0.01275508
Si      10.70679076       8.08982461       3.62801657      -0.02066566      -0.05053019       0.01275508
Si       9.62379583       3.72638822       4.44956390      -0.01470794      -0.01015604      -0.02399016
Si      12.23479576       6.47125755       4.44956390       0.01614936      -0.00765943      -0.02399016
Si       8.55216922       7.36001516       4.44956390      -0.00144142       0.01781547      -0.02399016
Si       6.65917779       7.19633766      -0.32701401      -0.02246569       0.05403374       0.00958751
Si      10.71204042       2.16884830      -0.32701401      -0.03556174      -0.04647272       0.00958751
Si      13.03954261       8.19247497      -0.32701401       0.05802743      -0.00756101       0.00958751
Si      14.30858240       6.69488856       3.23256782      -0.00438607       0.04192511      -0.03107649
Si      17.45852604       9.04415157       3.23256782      -0.03411517      -0.02476100      -0.03107649
Si      13.84903277      10.59745127       3.23256782       0.03850125      -0.01716411      -0.03107649
Si      10.29250954       3.20361825       1.75001267       0.02843314       0.06447730      -0.02563424
Si      12.35317098       7.31176560       1.75001267      -0.07005555      -0.00761483      -0.02563424
Si       7.76508029       7.04227708       1.75001267       0.04162241      -0.05686247      -0.02563424
Si      15.20538040       8.77883047       0.22591277      -0.00000000       0.00000000      -0.02879548
Si      15.20538040       8.77883047       2.61151884      -0.00000000      -0.00000000       0.06416112
20
Lattice="10.140757201910306 8.340597754648321e-14 5.278982069672315e-15 5.070378600955081 8.782153350464359 4.1104492725965906e-15 5.070378600955132 2.9273844501548147 4.583351842420053" Properties=species:S:1:pos:R:3:forces:R:3 unique_starting_index=8 config_type=initial n_minim_iter=8 energy=-3255.353923833083 stress="0.00043847966651825284 9.752176224910257e-16 -2.4357272491736143e-16 9.752176224910257e-16 0.00043847966651956185 2.1905412003721106e-16 -2.4357272491736143e-16 2.1905412003721106e-16 -0.0002903463369808915" free_energy=-3255.353923833083 pbc="T T T"
Si      11.84754828       5.09577307       1.24907565       0.04793615      -0.06508260       0.06755436
Si       9.94467134       7.71239124       1.24907565       0.03239511       0.07405522       0.06755436
Si       8.63005200       4.75614239       1.24907565      -0.08033126      -0.00897263       0.06755436
Si       7.91639315       5.21886783       3.62308121       0.02515317       0.02109795       0.07012792
Si      11.80364572       4.24636365       3.62308121      -0.03084795       0.01123431       0.07012792
Si      10.70223275       8.09907522       3.62308121       0.00569477      -0.03233226       0.07012792
Si       9.63464917       3.72866044       4.44533022      -0.02535643       0.00869429      -0.01949464
Si      12.23507517       6.47952072       4.44533022       0.00514874      -0.02630646      -0.01949464
Si       8.55254728       7.35612555       4.44533022       0.02020769       0.01761217      -0.01949464
Si       6.66061606       7.20033609      -0.32162052      -0.07525258       0.09170580       0.01613545
Si      10.71553241       2.16809467      -0.32162052      -0.04179326      -0.11102354       0.01613545
Si      13.04612315       8.19587594      -0.32162052       0.11704584       0.01931775       0.01613545
Si      14.30757488       6.68150218       3.21965803       0.00601983       0.05323184      -0.02371894
Si      17.48213355       9.04997222       3.21965803      -0.04911004      -0.02140260      -0.02371894
Si      13.84369899      10.61498565       3.21965803       0.04309021      -0.03182924      -0.02371894
Si      10.30098673       3.21330279       1.74947002       0.04582183       0.07703548      -0.06534257
Si      12.34821919       7.31426480       1.74947002      -0.08962560       0.00116513      -0.06534257
Si       7.77306569       7.03673911       1.74947002       0.04380377      -0.07820061      -0.06534257
Si      15.21113581       8.78215335       0.26088401      -0.00000000       0.00000000      -0.11369263
Si      15.21113581       8.78215335       2.64949846      -0.00000000       0.00000000      -0.02209212
20
Lattice="10.142837286461454 8.231703564482405e-14 5.292121688791043e-15 5.071418643230656 8.78395475652767 4.106373577412799e-15 5.071418643230706 2.9279849188425855 4.591374094714105" Properties=species:S:1:pos:R:3:forces:R:3 unique_starting_index=8 config_type=initial n_minim_iter=9 energy=-3255.365775240812 stress="-2.4245600050146126e-05 8.269881025282496e-16 1.317840462438319e-16 8.269881025282496e-16 -2.424560004938135e-05 3.4619450621475778e-16 1.317840462438319e-16 3.4619450621475778e-16 -0.0002678857150021129" free_energy=-3255.365775240812 pbc="T T T"
Si      11.86778728       5.08703284       1.26485090       0.11718751      -0.08402109       0.07140082
Si       9.94628127       7.73428885       1.26485090       0.01417065       0.14349791       0.07140082
Si       8.61444332       4.74658782       1.26485090      -0.13135815      -0.05947681       0.07140082
Si       7.92530629       5.21534117       3.63019329      -0.12301501      -0.00210433       0.13819582
Si      11.80640349       4.25584599       3.63019329       0.06332991      -0.10548196       0.13819582
Si      10.69680209       8.09672235       3.63019329       0.05968511       0.10758629       0.13819582
Si       9.63754821       3.72683067       4.44341457      -0.00605609       0.00494482       0.01138392
Si      12.23937044       6.48294624       4.44341457      -0.00125430      -0.00771714       0.01138392
Si       8.55159322       7.35813261       4.44341457       0.00731039       0.00277232       0.01138392
Si       6.65837838       7.20983514      -0.31925379      -0.02244661      -0.02874354      -0.03176455
Si      10.71258501       2.16140725      -0.31925379       0.03611594      -0.00506757      -0.03176455
Si      13.05754849       8.19666713      -0.31925379      -0.01366933       0.03381110      -0.03176455
Si      14.30588053       6.68176564       3.21077722      -0.00091390      -0.04974179       0.01558621
Si      17.48899282       9.04837314       3.21077722       0.04353460       0.02407944       0.01558621
Si      13.84789445      10.62172550       3.21077722      -0.04262071       0.02566236       0.01558621
Si      10.31129770       3.23278527       1.74453342       0.03314688       0.03025807      -0.12987158
Si      12.33035156       7.31345312       1.74453342      -0.04277770       0.01357700      -0.12987158
Si       7.78686261       7.02167112       1.74453342       0.00963082      -0.04383507      -0.12987158
Si      15.21425593       8.78395476       0.27610838      -0.00000000       0.00000000      -0.00868351
Si      15.21425593       8.78395476       2.68413400      -0.00000000       0.00000000      -0.21610841
20
Lattice="10.143736251963649 8.406134719068086e-14 5.239628679644593e-15 5.071868125981753 8.7847332834897 4.0203160496403865e-15 5.071868125981803 2.928244427829929 4.650799858875105" Properties=species:S:1:pos:R:3:forces:R:3 unique_starting_index=8 config_type=initial n_minim_iter=10 energy=-3255.401391654463 stress="0.0003289772960093497 8.873260339368825e-16 -1.3438207335217786e-16 8.873260339368825e-16 0.00032897729600969835 8.071295188032192e-17 -1.3438207335217786e-16 8.071295188032192e-17 5.878437153860899e-05" free_energy=-3255.401391654463 pbc="T T T"
Si      11.97949998       5.03649234       1.34857306       0.41661496      -0.01452586       0.17142806
Si       9.93599221       7.85630513       1.34857306      -0.19572772       0.36806206       0.17142806
Si       8.51571659       4.67666910       1.34857306      -0.22088724      -0.35353621       0.17142806
Si       7.94011983       5.17691102       3.67181207      -0.52780390      -0.00559687       0.39525975
Si      11.83407613       4.28788997       3.67181207       0.26874898      -0.45429315       0.39525975
Si      10.65701280       8.10466558       3.67181207       0.25905492       0.45989002       0.39525975
Si       9.65677670       3.72287112       4.44917851       0.02977066      -0.07215469       0.01499677
Si      12.23498320       6.50157838       4.44917851       0.04760246       0.06185949       0.01499677
Si       8.53944887       7.34501707       4.44917851      -0.07737312       0.01029520       0.01499677
Si       6.63798057       7.24455050      -0.29905605       0.16999485      -0.33687870      -0.18110117
Si      10.69451746       2.12638455      -0.29905605       0.20674809       0.31565921      -0.18110117
Si      13.09871074       8.19853152      -0.29905605      -0.37674294       0.02121949      -0.18110117
Si      14.27730806       6.63945496       3.16658390      -0.02289566      -0.23639530       0.18285803
Si      17.54261806       9.04478400       3.16658390       0.21617217       0.09836943       0.18285803
Si      13.82688702      10.66996089       3.16658390      -0.19327651       0.13802587       0.18285803
Si      10.35490780       3.31768816       1.72230154      -0.09550449      -0.06117063      -0.40032668
Si      12.23681638       7.30876912       1.72230154       0.10072756      -0.05212400      -0.40032668
Si       7.83948459       6.94300928       1.72230154      -0.00522307       0.11329463      -0.40032668
Si      15.21560438       8.78473328       0.40431469      -0.00000000       0.00000000       0.23665793
Si      15.21560438       8.78473328       2.88222247      -0.00000000       0.00000000      -0.78600224
20
Lattice="10.13997644390512 8.532157052745125e-14 5.241389662656061e-15 5.069988221952489 8.781477194197665 4.00521161349063e-15 5.0699882219525385 2.927159064732584 4.688725132806017" Properties=species:S:1:pos:R:3:forces:R:3 unique_starting_index=8 config_type=initial n_minim_iter=11 energy=-3255.423886920181 stress="0.001314604859687844 1.1972442692299543e-15 -6.355490675563289e-16 1.1972442692299543e-15 0.001314604859687457 3.0758441117982535e-16 -6.355490675563289e-16 3.0758441117982535e-16 0.000669067352684319" free_energy=-3255.423886920181 pbc="T T T"
Si      12.03827163       5.00576973       1.40024196       0.53286477       0.14321409       0.19965820
Si       9.92569333       7.92256418       1.40024196      -0.39045943       0.38986739       0.19965820
Si       8.45596439       4.63462048       1.40024196      -0.14240534      -0.53308148       0.19965820
Si       7.94276175       5.15601395       3.70611203      -0.68149778       0.03549836       0.48455311
Si      11.84333295       4.30062648       3.70611203       0.31000641      -0.60794357       0.48455311
Si      10.63383463       8.10631396       3.70611203       0.37149137       0.57244521       0.48455311
Si       9.66112324       3.71609924       4.45689711       0.06109792      -0.11440084       0.00962345
Si      12.23115493       6.50872853       4.45689711       0.06852507       0.11011277       0.00962345
Si       8.52765117       7.33812662       4.45689711      -0.12962299       0.00428807       0.00962345
Si       6.62693495       7.25689550      -0.29284232       0.25427748      -0.42425012      -0.20747188
Si      10.68182957       2.11064626      -0.29284232       0.24027264       0.43233581      -0.20747188
Si      13.11116483       8.19541263      -0.29284232      -0.49455012      -0.00808569      -0.20747188
Si      14.25621881       6.61735216       3.14839807      -0.01995878      -0.28271746       0.27920605
Si      17.56102485       9.03757157       3.14839807       0.25481989       0.12407392       0.27920605
Si      13.81265034      10.68950785       3.14839807      -0.23486111       0.15864354       0.27920605
Si      10.37371493       3.36591062       1.70684375      -0.22961332      -0.13939729      -0.51739866
Si      12.17813132       7.30094535       1.70684375       0.23552826      -0.12915232      -0.51739866
Si       7.86808309       6.89609842       1.70684375      -0.00591494       0.26854961      -0.51739866
Si      15.20996467       8.78147720       0.47186818       0.00000000       0.00000000       0.25741445
Si      15.20996467       8.78147720       2.98664153      -0.00000000       0.00000000      -1.00192530
20
Lattice="10.114228460661975 8.416785415768354e-14 5.137988025380398e-15 5.057114230330918 8.759178786612894 4.031090911602156e-15 5.057114230330965 2.919726262204325 4.7591642358276545" Properties=species:S:1:pos:R:3:forces:R:3 unique_starting_index=8 config_type=initial n_minim_iter=12 energy=-3255.564409840807 stress="0.000409118156977502 8.791578828104364e-16 -4.329419969405742e-16 8.791578828104364e-16 0.0004091181569777569 4.3856659074417374e-17 -4.329419969405742e-16 4.3856659074417374e-17 0.004012389162894467" free_energy=-3255.564409840807 pbc="T T T"