22
Lattice="5.391613718759212 -1.7287522794089456 0.9886720573231693 -4.282560292826783 11.462729118790703 -3.176972628015267 0.2660110935256611 -5.1827428152369315 9.47125190291649" Properties=species:S:1:pos:R:3:forces:R:3 unique_starting_index=18 config_type=initial n_minim_iter=1 energy=-3579.828006519539 stress="-0.000637996085438066 0.0030833241108039213 0.008649794198043891 0.0030833241108039213 -0.0007786897244497082 -0.007944947100594414 0.008649794198043891 -0.007944947100594414 0.011813327740551108" free_energy=-3579.828006519539 pbc="T T T"
Si      -0.18986365       9.48448419      -0.82577867      -0.04896217      -0.17125913      -0.75146243
Si       1.74969454      -0.55173351       5.40360794       0.26060668       0.44663600       0.31398122
Si       0.36374129      -4.66902508       9.19304077       0.58957528      -0.38804016      -0.07525082
Si       4.57082978      -3.41457342       9.12862532      -0.09376166       0.45152030      -0.08176857
Si      -1.43452592       0.55055026       7.33812392       0.70843383      -0.67289884       0.26351774
Si       3.54360547       1.80713881       1.22890643       0.33147593       0.40481326       0.29106368
Si       1.44859318      -0.03623320       1.44989375      -1.41116895       0.60270863       0.20360041
Si       1.74799075      -0.53680858       7.81182883       0.15381023      -0.65140874      -0.52473395
Si       2.67029949      -4.93145915       8.95145035       0.62256266      -0.39021826       0.19519479
Si      -0.44078330       0.66847617       5.21360535      -0.45845323      -0.08601629      -0.32189583
Si       3.78329050      -0.57352388       4.20539560       0.22818269      -0.15663551       0.28953764
Si      -0.90318554       4.62415239       4.22114839       0.18258554      -0.50537471       0.54340414
Si      -0.29575274      -1.67270088       4.74439458       0.20214508       0.04706399      -0.85048222
Si      -2.30149999       8.09145506      -1.70024010       0.11825013      -0.23339696      -0.18615676
Si       2.06820495       1.90288206       5.04866460      -0.17528836       0.04575471      -0.25057565
Si      -0.61890438       6.93364157      -0.38606862      -0.44025520       0.46664586       0.24621798
Si       0.45293466      -1.90654015       2.42770135      -0.84644936      -0.20340502       0.76131726
Si       5.08039699      -5.07217949       7.39838572       0.02867918       0.18272637       0.24060650
Si       1.64440158       1.92690932       2.68410705       0.08364445       0.54695055       0.18436135
Si       0.16032168       3.11512114       5.88027170       0.33200183       0.41903144       0.02891437
Si      -0.47261534       3.06335152       2.43503923      -0.27707607       0.25094378      -0.70097688
Si       1.85052346      -3.03166474       7.39498950      -0.09053850      -0.40614127       0.18158603
22
Lattice="5.3940149441188385 -1.7547080874908294 0.8178349754636606 -4.3120991089638 11.45911987487213 -2.7845681514936045 0.1111494004728289 -5.01648613719003 9.106612320324865" Properties=species:S:1:pos:R:3:forces:R:3 unique_starting_index=18 config_type=initial n_minim_iter=2 energy=-3580.0320243219 stress="-0.006833822493252278 -0.0016421208268231865 -0.00442186232188415 -0.0016421208268231865 -0.00603197136484938 0.0036425687457616054 -0.00442186232188415 0.0036425687457616054 -0.01134509632336209" free_energy=-3580.0320243219 pbc="T T T"
Si      -0.24560427       9.48905333      -0.62372569      -0.07812655       0.00672608      -0.33328277
Si       1.64721611      -0.46161572       5.20983621       0.42197871       0.54275978      -0.14097379
Si       0.21406173      -4.50982495       8.84327784       0.14581870      -0.04961923       0.18034964
Si       4.41668115      -3.28146528       8.71795533      -0.12454806       0.47794353      -0.46601656
Si      -1.58837545       0.69772777       7.17690791       0.51590835      -0.74101373       0.38084775
Si       3.51259855       1.80934770       1.15782792       0.43995057       0.20926883       0.52417265
Si       1.41397722      -0.01660216       1.38071386      -0.79693624       0.84609016      -0.22195388
Si       1.59542860      -0.40711036       7.54748176       0.21511146      -0.50540391       0.13520557
Si       2.53182986      -4.79492002       8.55735848       0.61723535      -0.60707419       0.20905532
Si      -0.55631246       0.77131495       5.08989664      -0.08011588      -0.41775139       0.16341130
Si       3.70908499      -0.52483826       4.00224396      -0.24220253      -0.12669406      -0.42199934
Si      -1.02586950       4.71778154       4.21351300       0.02218242      -0.36694677       0.19225082
Si      -0.37993956      -1.58407220       4.58355794       0.03792660       0.47976157      -1.03905557
Si      -2.33155819       8.09238707      -1.45405025      -0.21138368      -0.05208266       0.32626988
Si       1.95263523       1.98677271       4.90159474      -0.19050486       0.19249725       0.35763247
Si      -0.66727123       6.94803603      -0.23022226      -0.35713252       0.02875891       0.26857003
Si       0.41369210      -1.86904019       2.31944453      -0.52136561      -0.63496741       0.57602522
Si       4.97599417      -4.98053159       6.99525408      -0.30832886      -0.11393808       0.59530617
Si       1.57785354       1.97210462       2.61370884       0.01856884       0.41688127      -0.48924775
Si       0.01771581       3.23380042       5.77386955       0.63479730       0.25983444      -0.18229439
Si      -0.54828416       3.12065183       2.43191913      -0.20274878       0.43966126      -0.77781423
Si       1.72430852      -2.91441603       7.09660334       0.04391529      -0.28469164       0.16354145
22
Lattice="5.439294296815459 -1.7683457167642576 0.8142507066432232 -4.348968013321912 11.543637441382424 -2.7784549595109387 0.1049779486364041 -5.042335473476391 9.14440504184004" Properties=species:S:1:pos:R:3:forces:R:3 unique_starting_index=18 config_type=initial n_minim_iter=3 energy=-3580.088484757513 stress="0.0051950686659094185 -0.001504320379075148 -0.004902918440872967 -0.001504320379075148 0.005700154613449197 0.0049716611742551264 -0.004902918440872967 0.0049716611742551264 -0.0014018472801595658" free_energy=-3580.088484757513 pbc="T T T"
Si      -0.24982139       9.56014962      -0.61560956      -0.06770556       0.02938972      -0.22730609
Si       1.65796632      -0.45633944       5.23335267       0.33632511       0.57107264      -0.13661884
Si       0.21019332      -4.53295259       8.88065708       0.05195809       0.03808327       0.27585998
Si       4.44633393      -3.29379007       8.75081763      -0.13489355       0.36627548      -0.51041601
Si      -1.60610914       0.71011440       7.21584844       0.46962243      -0.66136782       0.26114052
Si       3.54236587       1.82502325       1.16434792       0.32943853       0.11925090       0.48897577
Si       1.42021974      -0.01193881       1.38610381      -0.70489863       0.75670683      -0.23589982
Si       1.60288942      -0.40281034       7.58190041       0.29619583      -0.56685324       0.18535801
Si       2.54922471      -4.82272567       8.59108311       0.59799242      -0.51255149       0.17408733
Si      -0.56686232       0.78297335       5.11639151      -0.04033527      -0.43628642       0.17715452
Si       3.73660962      -0.52498696       4.01698386      -0.19464445      -0.09245089      -0.40048075
Si      -1.03934499       4.75788473       4.24290314       0.05078132      -0.37720173       0.21114992
Si      -0.38642699      -1.58857904       4.60037199       0.15994295       0.48168779      -0.90183452
Si      -2.35244867       8.15210592      -1.44735504      -0.26403903      -0.03033831       0.30311407
Si       1.96323862       2.00865776       4.92707387      -0.23270711       0.16332274       0.31140255
Si      -0.67623632       7.00163096      -0.22009664      -0.26843144       0.05206370       0.13533956
Si       0.41271164      -1.88214716       2.33054367      -0.46926589      -0.54242286       0.43271697
Si       5.01201009      -5.01016379       7.01993647      -0.29915066       0.03518415       0.61028373
Si       1.58845461       1.99219272       2.62681257       0.00307351       0.31208671      -0.53666790
Si       0.01392118       3.26754261       5.80617040       0.67439561       0.20515888      -0.18052525
Si      -0.55688921       3.14932778       2.44568190      -0.21741081       0.33053982      -0.65950000
Si       1.73304235      -2.92881080       7.12648088      -0.07624341      -0.24134987       0.22266626
22
Lattice="5.434376244128523 -1.745805285922404 0.9290321583284405 -4.3361597446425 11.482812380689861 -3.0408569537951933 0.22236596012667878 -5.141181640070052 9.311501077294729" Properties=species:S:1:pos:R:3:forces:R:3 unique_starting_index=18 config_type=initial n_minim_iter=4 energy=-3580.316575965621 stress="0.005186571493607854 0.0018819128000373089 0.003752290250691293 0.0018819128000373089 0.0016649580724303163 -0.0052327766496949295 0.003752290250691293 -0.0052327766496949295 0.004484794185854265" free_energy=-3580.316575965621 pbc="T T T"
Si      -0.22176525       9.49692031      -0.77801171      -0.04360682      -0.16352637      -0.48621252
Si       1.74228494      -0.50861711       5.31644873       0.16925762       0.42266509       0.03580111
Si       0.33205638      -4.63412861       9.04350119       0.09118086      -0.05659412       0.24696950
Si       4.55335773      -3.36987462       8.94178951      -0.03466990       0.24256333      -0.06603730
Si      -1.47483432       0.57020482       7.26136654       0.32352694      -0.43100203       0.20657352
Si       3.57138038       1.81520097       1.21428667       0.27078027       0.25124705       0.14369946
Si       1.41052170      -0.00439360       1.41886086      -0.88086705       0.20166316      -0.16585317
Si       1.71990032      -0.52373408       7.68605080       0.36959842      -0.56700237      -0.03514908
Si       2.67315689      -4.92055730       8.79041587       0.50869915      -0.32426496       0.21819756
Si      -0.49035384       0.68857849       5.14837055      -0.29414084      -0.13884019      -0.26248650
Si       3.78552937      -0.56990452       4.11380975       0.15563867      -0.03721090       0.06811796
Si      -0.95186018       4.64329445       4.20792849       0.11688748      -0.40040908       0.36252704
Si      -0.31811012      -1.63660510       4.63723828       0.18536004      -0.02521549      -0.22342510
Si      -2.34160021       8.10183720      -1.61163196      -0.06541278      -0.07443381       0.04545402
Si       2.03562583       1.93270163       4.98089310      -0.15563602       0.10821972      -0.09825199
Si      -0.66044198       6.95557818      -0.32941665      -0.37747870       0.20136977       0.11332454
Si       0.42159698      -1.91541213       2.40400028      -0.36838644      -0.15713326       0.07558153
Si       5.08149931      -5.05667275       7.25291169      -0.04698268       0.26422025       0.05705831
Si       1.63429502       1.95660954       2.63786061      -0.03685244       0.58373305       0.01777224
Si       0.13210908       3.16506933       5.81218241       0.40945990       0.32899409       0.07309897
Si      -0.51278664       3.09739426       2.39528241      -0.16985467       0.15399925      -0.55567102
Si       1.82410920      -3.01546746       7.27189679      -0.12650100      -0.38304217       0.22891092
22
Lattice="5.419253220182059 -1.7469072694406995 0.9304479245226915 -4.330497161122338 11.478597619543207 -3.0309255191530795 0.22782028161060233 -5.1251365213433715 9.3250828552153" Properties=species:S:1:pos:R:3:forces:R:3 unique_starting_index=18 config_type=initial n_minim_iter=5 energy=-3580.319770228468 stress="0.0033465675056450275 0.0022288329634202945 0.004252268597482427 0.0022288329634202945 0.0014916498622289612 -0.0046397567432429595 0.004252268597482427 -0.0046397567432429595 0.006287066582910597" free_energy=-3580.319770228468 pbc="T T T"
Si      -0.22695260       9.49408506      -0.76679864      -0.06544785      -0.10874543      -0.45963221
Si       1.74090685      -0.49766144       5.32862480       0.16525495       0.40365566       0.08159400
Si       0.33762797      -4.61900148       9.05850868       0.15928691      -0.07919100       0.19946611
Si       4.54410236      -3.35483195       8.95746511       0.03244864       0.18519604      -0.01138798
Si      -1.46544254       0.57943537       7.28027593       0.37006072      -0.37572103       0.18722549
Si       3.56201142       1.81648517       1.22345399       0.24596395       0.28676129       0.07237874
Si       1.40151963       0.00056380       1.42192743      -0.94345672       0.23644570      -0.08781138
Si       1.71948085      -0.51512809       7.70395296       0.33001358      -0.52692797      -0.03640079
Si       2.67436774      -4.90946418       8.80513421       0.50532534      -0.34773460       0.21404802
Si      -0.48857574       0.69563740       5.16111443      -0.32162953      -0.13166066      -0.25864994
Si       3.77569020      -0.56551944       4.12306803       0.18184025      -0.06963491       0.04113617
Si      -0.94960409       4.64787561       4.22669738       0.12359664      -0.41513962       0.32046619
Si      -0.31370238      -1.62713870       4.64149663       0.16719240      -0.03582517      -0.18524487
Si      -2.34044337       8.09898116      -1.60211699      -0.11693218      -0.07470429      -0.01315934
Si       2.02900233       1.94057088       4.99723378      -0.14950824       0.11400645      -0.15652087
Si      -0.66459350       6.95538854      -0.31801766      -0.40189809       0.13914035       0.07280298
Si       0.41932239      -1.91365781       2.40877895      -0.33156181      -0.15642971       0.08223687
Si       5.07039039      -5.04599988       7.26573426      -0.05699269       0.29689621       0.04215243
Si       1.62920548       1.96270973       2.64654075      -0.03179442       0.55818504       0.04608158
Si       0.13520414       3.17599113       5.83066576       0.40269716       0.30349112       0.12352002
Si      -0.51325629       3.10293022       2.40200521      -0.16351956       0.18141528      -0.51180183
Si       1.82244796      -3.00586939       7.28592711      -0.10093943      -0.38347871       0.23750060
22
Lattice="5.4107036347000035 -1.765314293561467 0.923453039847182 -4.362481562287443 11.483974467852454 -3.001001829355377 0.24282119069446728 -5.101820062156078 9.311229472279843" Properties=species:S:1:pos:R:3:forces:R:3 unique_starting_index=18 config_type=initial n_minim_iter=6 energy=-3580.330333298702 stress="0.0012113239252819553 0.002224849706908009 0.005071408601450536 0.002224849706908009 0.00027033863307547064 -0.0044775873318378765 0.005071408601450536 -0.0044775873318378765 0.006606396911085121" free_energy=-3580.330333298702 pbc="T T T"
Si      -0.26505926       9.48842326      -0.75249284      -0.11594810      -0.03189030      -0.44389279
Si       1.74173233      -0.48071993       5.32554135       0.13958134       0.37328360       0.08344447
Si       0.35413269      -4.59835362       9.04995025       0.36779046      -0.12835817       0.08119014
Si       4.53931613      -3.34295198       8.94050384       0.17928379       0.04717845       0.13496900
Si      -1.45676728       0.58968934       7.28640985       0.37948633      -0.20811652       0.15535451
Si       3.55147781       1.81026638       1.23225247       0.15688682       0.37866376      -0.12439909
Si       1.37657382       0.01128583       1.41876935      -1.10034018       0.23641122       0.06760092
Si       1.71931518      -0.51549174       7.70098716       0.31166079      -0.47629613       0.04288921
Si       2.69500278      -4.90783855       8.79462969       0.43209521      -0.38840549       0.22560510
Si      -0.49710588       0.70328415       5.16104648      -0.32107524      -0.12610819      -0.25645209
Si       3.76515014      -0.57272733       4.11515996       0.19824320      -0.09048199      -0.00608628
Si      -0.96562416       4.65084917       4.24312529       0.12655407      -0.42313442       0.22545179
Si      -0.30555319      -1.60934010       4.62347573       0.12903743      -0.08383390       0.02768821
Si      -2.36930036       8.09988228      -1.57837034      -0.24818641      -0.04100327      -0.08314050
Si       2.00892163       1.94724341       5.00194373      -0.14325743       0.14757936      -0.21483979
Si      -0.69866733       6.95693377      -0.29767121      -0.46091405       0.03012930       0.01875620
Si       0.41445062      -1.91727325       2.41105822      -0.17179727      -0.14846452      -0.05347114
Si       5.06832297      -5.04366991       7.25752529      -0.07582646       0.35654088      -0.04795663
Si       1.61552972       1.97223789       2.64522826      -0.05933804       0.56343977       0.05742016
Si       0.13132596       3.19415687       5.83641585       0.41998455       0.22465898       0.22933441
Si      -0.52952396       3.11602633       2.39565583      -0.09275425       0.18840173      -0.39136339
Si       1.82455442      -3.00182877       7.28118950      -0.05116654      -0.40019417       0.27189759
22
Lattice="5.39615335954414 -1.7907308518824911 0.8951300194444746 -4.394713147804812 11.50004280087949 -2.937776421531909 0.23223224380735655 -5.068992755747261 9.284369485509822" Properties=species:S:1:pos:R:3:forces:R:3 unique_starting_index=18 config_type=initial n_minim_iter=7 energy=-3580.352791105574 stress="-0.0017220013411594895 0.002131471871179263 0.004169391424367185 0.002131471871179263 -0.0010200723523330886 -0.0034962710250783634 0.004169391424367185 -0.0034962710250783634 0.006606167981929996" free_energy=-3580.352791105574 pbc="T T T"
Si      -0.31388321       9.49002270      -0.72777348      -0.19631883       0.06696403      -0.36496957
Si       1.72653614      -0.45193449       5.31281125       0.13423510       0.33475655       0.08212026
Si       0.34986672      -4.56962558       9.03017233       0.52671128      -0.13064969      -0.00991937
Si       4.50507864      -3.32373391       8.89742693       0.36172533      -0.15493771       0.26501530
Si      -1.46624838       0.60777818       7.29736807       0.37209997       0.03194280       0.05940635
Si       3.53400446       1.80729864       1.23261038       0.02018438       0.44725590      -0.33049643
Si       1.33110924       0.03016475       1.41079571      -1.17146659       0.20113081       0.20953889
Si       1.69618082      -0.51405876       7.68924602       0.28651809      -0.40351439       0.14941061
Si       2.69620683      -4.90760269       8.76586553       0.33776560      -0.42947881       0.22415239
Si      -0.52611090       0.71610191       5.16044425      -0.31034670      -0.13455241      -0.19375967
Si       3.73776669      -0.58054762       4.08860661       0.18473388      -0.07801615      -0.11051569
Si      -0.99987718       4.65974424       4.26986669       0.10878094      -0.40433107       0.07802829
Si      -0.30925636      -1.58330687       4.59689983       0.07278811      -0.14074005       0.29060089
Si      -2.40512736       8.10811744      -1.53239417      -0.40581824       0.02057362      -0.15862212
Si       1.96468998       1.96326766       5.00110685      -0.11436011       0.19084029      -0.27690176
Si      -0.74579606       6.96508368      -0.26300162      -0.52578385      -0.14452093      -0.06179809
Si       0.39979935      -1.92425816       2.40982253       0.05602773      -0.10270160      -0.23387388
Si       5.04006354      -5.03814328       7.22451023      -0.13614349       0.42105111      -0.16646651
Si       1.58805492       1.99203623       2.63717917      -0.07184914       0.54579114       0.03442276
Si       0.11098879       3.22616133       5.84438869       0.45658945       0.10965039       0.36303043
Si      -0.55896064       3.13979383       2.38789860      -0.00798968       0.16086965      -0.18223658
Si       1.80365762      -2.99634932       7.26555213       0.02191676      -0.40738346       0.33383350
22
Lattice="5.396153359603447 -1.7907308536565423 0.895130018528322 -4.39471315128648 11.500042802643371 -2.9377764173421266 0.23223224522244038 -5.068992753568543 9.284369482141617" Properties=species:S:1:pos:R:3:forces:R:3 unique_starting_index=18 config_type=initial n_minim_iter=8 energy=-3580.352791105511 stress="-0.0017220014225210198 0.002131471876239029 0.004169391467811088 0.002131471876239029 -0.001020072377049396 -0.003496270947597343 0.004169391467811088 -0.003496270947597343 0.006606167898048507" free_energy=-3580.352791105511 pbc="T T T"
Si      -0.31388322       9.49002270      -0.72777348      -0.19631883       0.06696404      -0.36496957
Si       1.72653614      -0.45193449       5.31281125       0.13423509       0.33475655       0.08212026
Si       0.34986672      -4.56962558       9.03017233       0.52671129      -0.13064969      -0.00991938
Si       4.50507864      -3.32373391       8.89742692       0.36172534      -0.15493772       0.26501531
Si      -1.46624838       0.60777819       7.29736807       0.37209997       0.03194281       0.05940635
Si       3.53400446       1.80729864       1.23261038       0.02018437       0.44725590      -0.33049644
Si       1.33110924       0.03016475       1.41079571      -1.17146660       0.20113081       0.20953890
Si       1.69618082      -0.51405876       7.68924602       0.28651809      -0.40351439       0.14941062
Si       2.69620683      -4.90760269       8.76586552       0.33776560      -0.42947881       0.22415239
Si      -0.52611090       0.71610191       5.16044425      -0.31034670      -0.13455241      -0.19375967
Si       3.73776669      -0.58054762       4.08860661       0.18473388      -0.07801615      -0.11051569
Si      -0.99987718       4.65974424       4.26986669       0.10878094      -0.40433107       0.07802828
Si      -0.30925636      -1.58330687       4.59689983       0.07278811      -0.14074005       0.29060091
Si      -2.40512736       8.10811744      -1.53239417      -0.40581825       0.02057362      -0.15862213
Si       1.96468998       1.96326766       5.00110685      -0.11436011       0.19084029      -0.27690176
Si      -0.74579606       6.96508368      -0.26300162      -0.52578385      -0.14452094      -0.06179809
Si       0.39979935      -1.92425816       2.40982253       0.05602774      -0.10270160      -0.23387389
Si       5.04006354      -5.03814328       7.22451023      -0.13614349       0.42105111      -0.16646652
Si       1.58805492       1.99203623       2.63717917      -0.07184914       0.54579114       0.03442275
Si       0.11098879       3.22616133       5.84438869       0.45658945       0.10965038       0.36303044
Si      -0.55896064       3.13979383       2.38789860      -0.00798967       0.16086964      -0.18223657
Si       1.80365762      -2.99634932       7.26555213       0.02191676      -0.40738346       0.33383350
22
Lattice="5.3961533591933355 -1.790730857954933 0.8951300152496114 -4.3947131582839765 11.500042805753157 -2.937776411267899 0.23223224483404906 -5.068992750848982 9.284369480027959" Properties=species:S:1:pos:R:3:forces:R:3 unique_starting_index=18 config_type=initial n_minim_iter=9 energy=-3580.352791101331 stress="-0.0017220016428224846 0.0021314717979159254 0.004169391398061942 0.0021314717979159254 -0.0010200725434663016 -0.00349627092821718 0.004169391398061942 -0.00349627092821718 0.006606167978433308" free_energy=-3580.352791101331 pbc="T T T"
Si      -0.31388323       9.49002270      -0.72777348      -0.19631884       0.06696405      -0.36496957
Si       1.72653614      -0.45193449       5.31281125       0.13423509       0.33475654       0.08212026
Si       0.34986672      -4.56962558       9.03017233       0.52671132      -0.13064970      -0.00991940
Si       4.50507864      -3.32373391       8.89742692       0.36172536      -0.15493773       0.26501532
Si      -1.46624838       0.60777819       7.29736807       0.37209997       0.03194284       0.05940634
Si       3.53400446       1.80729864       1.23261038       0.02018435       0.44725591      -0.33049646
Si       1.33110923       0.03016475       1.41079571      -1.17146661       0.20113081       0.20953892
Si       1.69618082      -0.51405877       7.68924602       0.28651809      -0.40351438       0.14941063
Si       2.69620683      -4.90760269       8.76586552       0.33776559      -0.42947882       0.22415239
Si      -0.52611090       0.71610191       5.16044425      -0.31034669      -0.13455241      -0.19375966
Si       3.73776669      -0.58054763       4.08860661       0.18473388      -0.07801615      -0.11051569
Si      -0.99987719       4.65974424       4.26986669       0.10878094      -0.40433107       0.07802827
Si      -0.30925636      -1.58330686       4.59689983       0.07278811      -0.14074005       0.29060093
Si      -2.40512737       8.10811745      -1.53239416      -0.40581827       0.02057362      -0.15862214
Si       1.96468997       1.96326766       5.00110685      -0.11436011       0.19084030      -0.27690177
Si      -0.74579607       6.96508368      -0.26300161      -0.52578386      -0.14452095      -0.06179810
Si       0.39979935      -1.92425816       2.40982253       0.05602776      -0.10270159      -0.23387390
Si       5.04006354      -5.03814328       7.22451022      -0.13614350       0.42105112      -0.16646653
Si       1.58805492       1.99203624       2.63717917      -0.07184914       0.54579114       0.03442275
Si       0.11098878       3.22616133       5.84438869       0.45658946       0.10965037       0.36303045
Si      -0.55896064       3.13979384       2.38789860      -0.00798966       0.16086964      -0.18223655
Si       1.80365762      -2.99634932       7.26555213       0.02191677      -0.40738346       0.33383351
22
Lattice="5.392252443081279 -1.8157636636941032 0.8740948703156123 -4.43267012319295 11.534130083060079 -2.876918374444593 0.23444458358026748 -5.046284952630308 9.240673669099726" Properties=species:S:1:pos:R:3:forces:R:3 unique_starting_index=18 config_type=initial n_minim_iter=10 energy=-3580.36594925248 stress="-0.0030640049909770716 0.002351501930983158 0.0038649579038605724 0.002351501930983158 -0.000931135571617411 -0.0025126864068421503 0.0038649579038605724 -0.0025126864068421503 0.00572331664967963" free_energy=-3580.36594925248 pbc="T T T"
Si      -0.35993390       9.50969594      -0.70160430      -0.27119851       0.12639685      -0.29994798
Si       1.72231131      -0.42425193       5.29258224       0.09400667       0.30652606       0.06501855
Si       0.36128473      -4.55008635       8.99248939       0.59261797      -0.10881236      -0.06519314
Si       4.49545864      -3.31255897       8.84738793       0.46335075      -0.28837396       0.33143073
Si      -1.46701921       0.63005522       7.29013449       0.35118376       0.20189879       0.02578703
Si       3.52343277       1.81087120       1.23247456      -0.07822438       0.47295600      -0.48457393
Si       1.28965120       0.04868486       1.40513473      -1.15060392       0.18581830       0.29637954
Si       1.68942371      -0.51292093       7.66778661       0.27034630      -0.36779948       0.24855468
Si       2.71209391      -4.91583575       8.72510564       0.28688906      -0.44466434       0.22054552
Si      -0.54621194       0.72925584       5.14921178      -0.26162191      -0.15983194      -0.18740370
Si       3.72415371      -0.58660096       4.05983509       0.17060261      -0.04596353      -0.17791545
Si      -1.02566764       4.67618038       4.28429237       0.10518593      -0.37101732      -0.01894707
Si      -0.30742747      -1.56236812       4.56744463       0.04136801      -0.13704438       0.47407786
Si      -2.44525225       8.13069020      -1.48911953      -0.51011140       0.03971544      -0.20365504
Si       1.93454292       1.98435368       4.99260436      -0.08170737       0.20462863      -0.30705912
Si      -0.79118133       6.98313875      -0.23075596      -0.55061849      -0.24337879      -0.10325475
Si       0.39319445      -1.93319868       2.40013556       0.17600011      -0.07051012      -0.36736794
Si       5.02992503      -5.03760162       7.18360071      -0.15826497       0.42352947      -0.23463880
Si       1.56872564       2.01639222       2.62657865      -0.08710405       0.50538254      -0.01381832
Si       0.10338530       3.26117231       5.84364407       0.48029917       0.04403673       0.44739794
Si      -0.58122426       3.16696868       2.37896799       0.06733296       0.12448351      -0.02791428
Si       1.79721755      -2.99622387       7.24066867       0.05027172      -0.39797609       0.38249766
22
Lattice="5.3922524439193245 -1.8157636673406181 0.8740948682627437 -4.432670130849283 11.534130085026199 -2.8769183685650708 0.23444458524242956 -5.046284949118225 9.24067366585132" Properties=species:S:1:pos:R:3:forces:R:3 unique_starting_index=18 config_type=initial n_minim_iter=11 energy=-3580.365949249689 stress="-0.0030640050561648352 0.0023515018481766754 0.003864957897269652 0.0023515018481766754 -0.000931135731003066 -0.0025126863421857707 0.003864957897269652 -0.0025126863421857707 0.005723316661331071" free_energy=-3580.365949249689 pbc="T T T"
Si      -0.35993391       9.50969594      -0.70160430      -0.27119852       0.12639685      -0.29994797
Si       1.72231131      -0.42425193       5.29258224       0.09400667       0.30652606       0.06501855
Si       0.36128473      -4.55008635       8.99248939       0.59261798      -0.10881236      -0.06519315
Si       4.49545864      -3.31255897       8.84738793       0.46335076      -0.28837398       0.33143074
Si      -1.46701921       0.63005523       7.29013449       0.35118375       0.20189881       0.02578702
Si       3.52343277       1.81087120       1.23247456      -0.07822440       0.47295601      -0.48457394
Si       1.28965120       0.04868486       1.40513473      -1.15060393       0.18581830       0.29637955