10
Lattice="6.111543480707543 0.12080317856896643 -1.0205358191136315e-17 -2.9861993936292563 4.702603959543169 -3.972625115863301e-16 2.429710701873264e-22 5.046082087829535e-16 5.973309249858487" Properties=species:S:1:pos:R:3:forces:R:3 unique_starting_index=14 config_type=initial n_minim_iter=1 energy=-1627.650347726795 stress="0.0013016022025531542 -0.00043382157421783846 1.0308415159541485e-16 -0.00043382157421783846 -0.0009991754704974426 6.25838304780505e-17 1.0308415159541485e-16 6.25838304780505e-17 -0.0019503268367220012" free_energy=-1627.650347726795 pbc="T T T"
Si      -0.17330638       2.28493040      -0.27046799       0.05133339      -0.01221496      -0.17806872
Si       3.29865047       2.53847673      -0.27046799      -0.05133339       0.01221496      -0.17806872
Si       1.11635278      -0.45444202       1.14943683       0.04928530      -0.03187267       0.04333350
Si       2.00899131       5.27784916       1.14943683      -0.04928530       0.03187267       0.04333350
Si       1.69368531       0.62229026       4.99797777       0.08560165      -0.03501829      -0.04541751
Si       1.43165877       4.20111688       4.99797777      -0.08560165       0.03501829      -0.04541751
Si       0.73676595       3.27630174       1.75951321       0.02157301      -0.00284859       0.14041393
Si       2.38857813       1.54710540       1.75951321      -0.02157301       0.00284859       0.14041393
Si      -1.06621890       3.46052120       3.31943935       0.05368672      -0.01399953       0.03973880
Si       4.19156298       1.36288594       3.31943935      -0.05368672       0.01399953       0.03973880
10
Lattice="6.091955110366536 0.1276848344838181 -1.0786699643845651e-17 -2.9715004345495055 4.711073558298619 -3.9797799880475545e-16 2.446142922000796e-22 5.070580483588003e-16 6.0023092532267555" Properties=species:S:1:pos:R:3:forces:R:3 unique_starting_index=14 config_type=initial n_minim_iter=2 energy=-1627.652172956499 stress="0.0019301011919257399 0.0014129386549810085 1.946495193342682e-16 0.0014129386549810085 0.0023345011396487744 -1.672008432642772e-16 1.946495193342682e-16 -1.672008432642772e-16 0.0029113052713589825" free_energy=-1627.652172956499 pbc="T T T"
Si      -0.16955582       2.29024741      -0.27433728       0.04871352      -0.00322462      -0.11068240
Si       3.29001049       2.54851098      -0.27433728      -0.04871352       0.00322462      -0.11068240
Si       1.11296287      -0.45482476       1.15563932       0.10656167      -0.00882674       0.03042791
Si       2.00749180       5.29358315       1.15563932      -0.10656167       0.00882674       0.03042791
Si       1.69010929       0.62516031       5.02159063       0.07948259      -0.06721315      -0.01684979
Si       1.43034538       4.21359809       5.02159063      -0.07948259       0.06721315      -0.01684979
Si       0.73822420       3.28519592       1.77007118       0.01056256       0.02921518       0.06900266
Si       2.38223047       1.55356248       1.77007118      -0.01056256      -0.02921518       0.06900266
Si      -1.05828795       3.46777232       3.33612545       0.02338777      -0.00856052       0.02810160
Si       4.17874262       1.37098607       3.33612545      -0.02338777       0.00856052       0.02810160
10
Lattice="6.064085983977815 0.12240584081079675 -1.0340744023761235e-17 -2.9619122257881814 4.7094096701833745 -3.9783743842104406e-16 2.4473139528820445e-22 5.07139389936945e-16 6.003272131671469" Properties=species:S:1:pos:R:3:forces:R:3 unique_starting_index=14 config_type=initial n_minim_iter=3 energy=-1627.654136903425 stress="-0.0022657677756951844 0.0012585235073042291 -1.6709648321838746e-16 0.0012585235073042291 -0.0006858206445956247 -1.6535769082532537e-16 -1.6709648321838746e-16 -1.6535769082532537e-16 0.0005990561172974677" free_energy=-1627.654136903425 pbc="T T T"
Si      -0.16985928       2.28820977      -0.27697363       0.04260574      -0.00767280      -0.10091662
Si       3.27203303       2.54360574      -0.27697363      -0.04260574       0.00767280      -0.10091662
Si       1.10947474      -0.45575288       1.15647883       0.11806053      -0.01948469       0.02435257
Si       1.99269902       5.28756840       1.15647883      -0.11806053       0.01948469       0.02435257
Si       1.68328094       0.62236409       5.02181084       0.07092633      -0.07347384      -0.03327479
Si       1.41889282       4.20945142       5.02181084      -0.07092633       0.07347384      -0.03327479
Si       0.73239419       3.28181677       1.77227750       0.01331485       0.02454726       0.05447957
Si       2.36977956       1.54999874       1.77227750      -0.01331485      -0.02454726       0.05447957
Si      -1.05567060       3.46538851       3.33726181      -0.00143515       0.01886370       0.05535926
Si       4.15784435       1.36642700       3.33726181       0.00143515      -0.01886370       0.05535926
10
Lattice="6.064028912339282 0.09835983565855771 -8.309405818681629e-18 -2.9807141109878756 4.7259665786453615 -3.992361183293871e-16 2.445045930208391e-22 5.067738598230607e-16 5.998945163082237" Properties=species:S:1:pos:R:3:forces:R:3 unique_starting_index=14 config_type=initial n_minim_iter=4 energy=-1627.657157196418 stress="-0.0009983731463673266 -0.0013157680655839549 -7.884101903299195e-17 -0.0013157680655839549 -0.0006453396104756222 -6.669333433373069e-17 -7.884101903299195e-17 -6.669333433373069e-17 0.0002769154705282232" free_energy=-1627.657157196418 pbc="T T T"
Si      -0.17725331       2.29088957      -0.28148857       0.03807738      -0.01900373      -0.09115336
Si       3.26056810       2.53343684      -0.28148857      -0.03807738       0.01900373      -0.09115336
Si       1.11447337      -0.46142412       1.15681603       0.04164207      -0.02352235       0.01633589
Si       1.96884143       5.28575053       1.15681603      -0.04164207       0.02352235       0.01633589
Si       1.68368754       0.61423435       5.01696575       0.06789083      -0.06280356      -0.03331801
Si       1.39962725       4.21009207       5.01696575      -0.06789083       0.06280356      -0.03331801
Si       0.72004231       3.28274218       1.77421605       0.03182388      -0.04294566       0.04156865
Si       2.36327249       1.54158424       1.77421605      -0.03182388       0.04294566       0.04156865
Si      -1.06855412       3.47310715       3.33640982      -0.00218462       0.02296810       0.06656683
Si       4.15186891       1.35121926       3.33640982       0.00218462      -0.02296810       0.06656683
10
Lattice="6.07052769637182 0.10073013093450194 -8.50964237971872e-18 -2.98226606865998 4.73610498576734 -4.000925830606303e-16 2.4289909050947503e-22 5.043525905730619e-16 5.970283359787355" Properties=species:S:1:pos:R:3:forces:R:3 unique_starting_index=14 config_type=initial n_minim_iter=5 energy=-1627.66077818641 stress="-0.0004872578038174685 -0.0005389695988104413 2.589651041568662e-16 -0.0005389695988104413 0.0011458862693226844 -3.885859889918869e-17 2.589651041568662e-16 -3.885859889918869e-17 -0.0019530631801330232" free_energy=-1627.66077818641 pbc="T T T"
Si      -0.17251778       2.29512003      -0.29137966       0.04200351      -0.03662160      -0.04126094
Si       3.26077941       2.54171508      -0.29137966      -0.04200351       0.03662160      -0.04126094
Si       1.12218093      -0.46421746       1.15389894      -0.06666878      -0.00054533      -0.03320747
Si       1.96608070       5.30105257       1.15389894       0.06666878       0.00054533      -0.03320747
Si       1.69270884       0.61072056       4.98988134       0.04244621      -0.02878043      -0.00042245
Si       1.39555279       4.22611456       4.98988134      -0.04244621       0.02878043      -0.00042245
Si       0.72390816       3.29033175       1.77281327       0.05751708      -0.05434328      -0.02107814
Si       2.36435346       1.54650337       1.77281327      -0.05751708       0.05434328      -0.02107814
Si      -1.06686479       3.48153623       3.32513537      -0.02710158      -0.05148413       0.09596900
Si       4.15512641       1.35529888       3.32513537       0.02710158       0.05148413       0.09596900
10
Lattice="6.077224156494992 0.10321073173269546 -8.719196585617271e-18 -2.983332743165743 4.721099963355032 -3.988250009390018e-16 2.4349643078616836e-22 5.052512002767851e-16 5.9809206622902185" Properties=species:S:1:pos:R:3:forces:R:3 unique_starting_index=14 config_type=initial n_minim_iter=6 energy=-1627.662653276037 stress="0.00017373029319450313 -0.00031559493507190043 2.813783574690368e-16 -0.00031559493507190043 7.354481500440352e-05 8.829003976143269e-17 2.813783574690368e-16 8.829003976143269e-17 -0.00010644240181498833" free_energy=-1627.662653276037 pbc="T T T"
Si      -0.16937511       2.28747935      -0.29697474       0.04415027      -0.02448281      -0.00482564
Si       3.26326652       2.53683135      -0.29697474      -0.04415027       0.02448281      -0.00482564
Si       1.12508305      -0.46316885       1.15653827      -0.07520450      -0.00826621      -0.04308553
Si       1.96880836       5.28747955       1.15653827       0.07520450       0.00826621      -0.04308553
Si       1.69826782       0.60706536       4.99755601       0.03834845      -0.03147867       0.02313803
Si       1.39562359       4.21724533       4.99755601      -0.03834845       0.03147867       0.02313803
Si       0.72779255       3.28036571       1.77849610       0.00184140      -0.04025100      -0.03648283
Si       2.36609886       1.54394498       1.77849610      -0.00184140       0.04025100      -0.03648283
Si      -1.06613056       3.47047948       3.33424394       0.00049687      -0.03360757       0.06125597
Si       4.16002197       1.35383122       3.33424394      -0.00049687       0.03360757       0.06125597
10
Lattice="6.084463917014323 0.11255921855273093 -9.508930473456151e-18 -2.9793902996855626 4.706600741502611 -3.9760014789552087e-16 2.4360790076813246e-22 5.054150095092698e-16 5.982859755444951" Properties=species:S:1:pos:R:3:forces:R:3 unique_starting_index=14 config_type=initial n_minim_iter=7 energy=-1627.663983327413 stress="0.00021013017559383867 0.0008663123456159052 9.311400988218114e-17 0.0008663123456159052 -0.0007637227386251431 -3.335114407719786e-17 9.311400988218114e-17 -3.335114407719786e-17 0.001108604021469" free_energy=-1627.663983327413 pbc="T T T"
Si      -0.16141122       2.28039910      -0.30303067       0.03934321      -0.01775772       0.02174280
Si       3.26648483       2.53876086      -0.30303067      -0.03934321       0.01775772       0.02174280
Si       1.12498317      -0.46177838       1.15571916      -0.05514508      -0.01101415      -0.03470898
Si       1.98009045       5.28093834       1.15571916       0.05514508       0.01101415      -0.03470898
Si       1.70686269       0.60385422       4.99885043       0.03194349      -0.02653232       0.04510830
Si       1.39821093       4.21530573       4.99885043      -0.03194349       0.02653232       0.04510830
Si       0.73531724       3.27226682       1.78036641      -0.05426992       0.01441203      -0.04382374
Si       2.36975637       1.54689314       1.78036641       0.05426992      -0.01441203      -0.04382374
Si      -1.06144496       3.45974193       3.34151082       0.03046450      -0.02329285       0.01168162
Si       4.16651857       1.35941803       3.34151082      -0.03046450       0.02329285       0.01168162
10
Lattice="6.080605167886381 0.09653401263920727 -8.155166805159822e-18 -2.990401250234953 4.735215059537113 -4.000174046378128e-16 2.4230053530091523e-22 5.034475563934269e-16 5.959570006974852" Properties=species:S:1:pos:R:3:forces:R:3 unique_starting_index=14 config_type=initial n_minim_iter=8 energy=-1627.667334384235 stress="-0.00022661753826682573 -4.9266322501681345e-05 3.472980265876974e-16 -4.9266322501681345e-05 0.00014415283398142942 1.0506572816929706e-16 3.472980265876974e-16 1.0506572816929706e-16 -0.00010636273779037476" free_energy=-1627.667334384235 pbc="T T T"
Si      -0.15724519       2.28555724      -0.30892796       0.00127896      -0.04561759      -0.00755304
Si       3.24744910       2.54619183      -0.30892796      -0.00127896       0.04561759      -0.00755304
Si       1.11766276      -0.46957185       1.14578436      -0.00691343      -0.01117006       0.03977681
Si       1.97254115       5.30132092       1.14578436       0.00691343       0.01117006       0.03977681
Si       1.71529936       0.59293201       4.98252233       0.02936124      -0.00284347       0.02217691
Si       1.37490456       4.23881706       4.98252233      -0.02936124       0.00284347       0.02217691
Si       0.72541645       3.28020457       1.77100411      -0.01747816       0.04119067      -0.02363943
Si       2.36478747       1.55154450       1.77100411       0.01747816      -0.04119067      -0.02363943
Si      -1.06785428       3.47204961       3.34031660       0.03866534      -0.00847856      -0.03076125
Si       4.15805820       1.35969946       3.34031660      -0.03866534       0.00847856      -0.03076125
10
Lattice="6.110458768939144 0.09329671591788362 -7.881690686185303e-18 -3.007426089040235 4.732528978470384 -3.9979049222095697e-16 2.4126205681588645e-22 5.018587270559146e-16 5.940762223294955" Properties=species:S:1:pos:R:3:forces:R:3 unique_starting_index=14 config_type=initial n_minim_iter=9 energy=-1627.669293784985 stress="0.0007183042316959925 -0.0006613197178908949 2.1164289163330978e-16 -0.0006613197178908949 -0.00013877033559251716 -1.3030797315575703e-16 2.1164289163330978e-16 -1.3030797315575703e-16 -0.00031125655962890234" free_energy=-1627.669293784985 pbc="T T T"
Si      -0.14550755       2.26977776      -0.32079467      -0.01009547      -0.03374000      -0.00629727
Si       3.24854023       2.55604794      -0.32079467       0.01009547       0.03374000      -0.00629727
Si       1.11481526      -0.47524450       1.14272943       0.01864023      -0.01765033       0.06980096
Si       1.98821741       5.30107020       1.14272943      -0.01864023       0.01765033       0.06980096
Si       1.74327616       0.57882402       4.97294835       0.01398508       0.01436824       0.02979570
Si       1.35975651       4.24700168       4.97294835      -0.01398508      -0.01436824       0.02979570
Si       0.72486955       3.27786935       1.76083180       0.02736840       0.01001038      -0.02947520
Si       2.37816312       1.54795635       1.76083180      -0.02736840      -0.01001038      -0.02947520
Si      -1.06570589       3.46149850       3.34048838       0.05569766       0.01479603      -0.06382420
Si       4.16873857       1.36432719       3.34048838      -0.05569766      -0.01479603      -0.06382420
10
Lattice="6.120606566753924 0.10678420243520212 -9.021075494615686e-18 -3.001688451045104 4.7164460882074595 -3.984318552669251e-16 2.4179481291056475e-22 5.026206554635148e-16 5.949781559949765" Properties=species:S:1:pos:R:3:forces:R:3 unique_starting_index=14 config_type=initial n_minim_iter=10 energy=-1627.671525868981 stress="0.0003756899844930621 0.0002308481521669883 1.5139842946244986e-16 0.0002308481521669883 0.00018686121270549758 -5.72742374557641e-17 1.5139842946244986e-16 -5.72742374557641e-17 0.0006300444467377495" free_energy=-1627.671525868981 pbc="T T T"
Si      -0.13910554       2.25555506      -0.32262643      -0.00061948       0.00245952       0.00656101
Si       3.25802365       2.56767523      -0.32262643       0.00061948      -0.00245952       0.00656101
Si       1.11303378      -0.47456476       1.15186449       0.04056546      -0.01256503       0.02454552
Si       2.00588433       5.29779505       1.15186449      -0.04056546       0.01256503       0.02454552
Si       1.75406412       0.58035523       4.98627339       0.00014974      -0.01891038       0.02998554
Si       1.36485399       4.24287506       4.98627339      -0.00014974       0.01891038       0.02998554
Si       0.73064089       3.27974864       1.75730889       0.07795447      -0.04518524      -0.05974948
Si       2.38827723       1.54348165       1.75730889      -0.07795447       0.04518524      -0.05974948
Si      -1.05099784       3.45023054       3.33992569       0.01146634       0.01604548      -0.00134258
Si       4.16991595       1.37299975       3.33992569      -0.01146634      -0.01604548      -0.00134258
10
Lattice="6.124841672946269 0.10302678635815775 -8.70366013068487e-18 -3.0067244696119464 4.720264987522231 -3.987544655455296e-16 2.4069625368161653e-22 5.009185735108004e-16 5.929633145287812" Properties=species:S:1:pos:R:3:forces:R:3 unique_starting_index=14 config_type=initial n_minim_iter=11 energy=-1627.673058561393 stress="-0.0013297056181566912 -5.156540669633634e-05 1.6756125108040627e-16 -5.156540669633634e-05 -0.0012175256169225032 -3.534125458716141e-16 1.6756125108040627e-16 -3.534125458716141e-16 -0.002172288678850799" free_energy=-1627.673058561393 pbc="T T T"
Si      -0.13176678       2.24496103      -0.33169347      -0.00409363      -0.00265481       0.00589100
Si       3.24988398       2.57833074      -0.33169347       0.00409363       0.00265481       0.00589100
Si       1.11326324      -0.48121301       1.15435793      -0.00889265      -0.00419227       0.00995829
Si       2.00485396       5.30450479       1.15435793       0.00889265       0.00419227       0.00995829
Si       1.77013589       0.56978995       4.97642485      -0.01989725      -0.00523815       0.01007052
Si       1.34798131       4.25350183       4.97642485       0.01989725       0.00523815       0.01007052
Si       0.73342545       3.28042196       1.74393827       0.06802829      -0.04702168      -0.04288769
Si       2.38469175       1.54286981       1.74393827      -0.06802829       0.04702168      -0.04288769
Si      -1.04378355       3.44861488       3.33276340      -0.00284272      -0.00653339       0.01696788
Si       4.16190075       1.37467689       3.33276340       0.00284272       0.00653339       0.01696788
10
Lattice="6.131767410330029 0.10011805442128467 -8.457938851008018e-18 -3.012512861667245 4.728673397317312 -3.9946478372237174e-16 2.4106625530600468e-22 5.014068679510249e-16 5.935413336300665" Properties=species:S:1:pos:R:3:forces:R:3 unique_starting_index=14 config_type=initial n_minim_iter=12 energy=-1627.674520855524 stress="-4.836819186464584e-05 -5.538407436463641e-05 8.83961279163014e-18 -5.538407436463641e-05 -1.2398508956135645e-05 8.862068474424491e-18 8.83961279163014e-18 8.862068474424491e-18 -4.134486859475252e-05" free_energy=-1627.674520855524 pbc="T T T"
Si      -0.12791085       2.23970520      -0.33489555      -0.01068963       0.00804492      -0.00591463
Si       3.24716539       2.58908625      -0.33489555       0.01068963      -0.00804492      -0.00591463
Si       1.11194973      -0.48642773       1.16017693      -0.00321092       0.00970179       0.01306332
Si       2.00730481       5.31521918       1.16017693       0.00321092      -0.00970179       0.01306332
Si       1.78040523       0.56369808       4.98902203      -0.01221081      -0.01917358      -0.01296861
Si       1.33884932       4.26509337       4.98902203       0.01221081       0.01917358      -0.01296861
Si       0.73827407       3.28264251       1.73454664       0.00404497      -0.00478537       0.00276574
Si       2.38098048       1.54614894       1.73454664      -0.00404497       0.00478537       0.00276574
Si      -1.03922074       3.45129324       3.33754262       0.01458994      -0.01435902       0.00305418
Si       4.15847529       1.37749821       3.33754262      -0.01458994       0.01435902       0.00305418
10
Lattice="6.1323608924306905 0.10068608257210757 -8.505924226162458e-18 -3.0123565465684345 4.728206762402035 -3.994253637398817e-16 2.4113377824577003e-22 5.014371642032441e-16 5.935771968426294" Properties=species:S:1:pos:R:3:forces:R:3 unique_starting_index=14 config_type=initial n_minim_iter=13 energy=-1627.67461921221 stress="0.00013625977503463175 0.0001397284477209626 6.726774246124204e-17 0.0001397284477209626 9.373768067795062e-05 7.537666053329712e-17 6.726774246124204e-17 7.537666053329712e-17 0.00019650760621033026" free_energy=-1627.67461921221 pbc="T T T"
Si      -0.12781466       2.24005590      -0.33652595      -0.00625680       0.00514814       0.00684968
Si       3.24781900       2.58883694      -0.33652595       0.00625680      -0.00514814       0.00684968
Si       1.11311587      -0.48611530       1.16128965      -0.01561490       0.01034655       0.00347420
Si       2.00688847       5.31500814       1.16128965       0.01561490      -0.01034655       0.00347420
Si       1.78071543       0.56229213       4.98838978      -0.01301658      -0.01295844      -0.00341027
Si       1.33928891       4.26660072       4.98838978       0.01301658       0.01295844      -0.00341027
Si       0.73981175       3.28189284       1.73543847      -0.00982551       0.00319792      -0.00503793
Si       2.38019259       1.54700000       1.73543847       0.00982551      -0.00319792      -0.00503793
Si      -1.03823342       3.45060654       3.33845851       0.01690091      -0.01700564      -0.00187569
Si       4.15823776       1.37828630       3.33845851      -0.01690091       0.01700564      -0.00187569
10
Lattice="6.135073458163712 0.09896860351936748 -8.360836558637402e-18 -3.015038372842913 4.729971715491496 -3.9957446193073375e-16 2.410857215459237e-22 5.012873650757869e-16 5.93399871933025" Properties=species:S:1:pos:R:3:forces:R:3 unique_starting_index=14 config_type=initial n_minim_iter=14 energy=-1627.674992130438 stress="-5.01524758326003e-05 1.613851256696382e-05 3.9303628595604395e-16 1.613851256696382e-05 -2.6820710028660914e-06 -1.526149909429209e-16 3.9303628595604395e-16 -1.526149909429209e-16 0.00013270685637304758" free_energy=-1627.674992130438 pbc="T T T"
Si      -0.12965134       2.24008940      -0.33681901       0.00056149       0.00350532       0.00367054
Si       3.24968642       2.58885092      -0.33681901      -0.00056149      -0.00350532       0.00367054
Si       1.11130597      -0.48522545       1.16400814      -0.00200075       0.00126189      -0.00017704
Si       2.00872911       5.31416577       1.16400814       0.00200075      -0.00126189      -0.00017704
Si       1.78027236       0.55755881       4.98667853      -0.00602517       0.00005517      -0.00293149
Si       1.33976272       4.27138151       4.98667853       0.00602517      -0.00005517      -0.00293149
Si       0.73980831       3.28187528       1.73243140      -0.00247576      -0.00005593      -0.00344179
Si       2.38022678       1.54706504       1.73243140       0.00247576       0.00005593      -0.00344179
Si      -1.03480770       3.44782176       3.33749900       0.01253964       0.00057920       0.00287979
Si       4.15484278       1.38111856       3.33749900      -0.01253964      -0.00057920       0.00287979
10
Lattice="6.137917018628508 0.09889239979552737 -8.35439919648575e-18 -3.0164924383878815 4.730276263212264 -3.996001892687113e-16 2.410107186760183e-22 5.011203368122354e-16 5.93202152010483" Properties=species:S:1:pos:R:3:forces:R:3 unique_starting_index=14 config_type=initial n_minim_iter=15 energy=-1627.675039378267 stress="-3.7110693865785895e-05 1.3550853805392594e-06 2.886979645587742e-16 1.3550853805392594e-06 4.529546124733782e-06 -1.5217139517726043e-16 2.886979645587742e-16 -1.5217139517726043e-16 9.811362226241413e-06" free_energy=-1627.675039378267 pbc="T T T"
Si      -0.13035886       2.24017434      -0.33661345       0.00382256       0.00242705       0.00038486
Si       3.25178344       2.58899433      -0.33661345      -0.00382256      -0.00242705       0.00038486
Si       1.11087435      -0.48468702       1.16493675       0.00100720      -0.00225764      -0.00195162
Si       2.01055023       5.31385568       1.16493675      -0.00100720       0.00225764      -0.00195162
Si       1.78034181       0.55594143       4.98488990      -0.00271295       0.00670616      -0.00236422
Si       1.34108276       4.27322723       4.98488990       0.00271295      -0.00670616      -0.00236422
Si       0.74044499       3.28182336       1.73065575       0.00024810      -0.00030490      -0.00066968
Si       2.38097959       1.54734530       1.73065575      -0.00024810       0.00030490      -0.00066968
Si      -1.03316383       3.44660740       3.33630265       0.01074678       0.00337878       0.00460066
Si       4.15458841       1.38256126       3.33630265      -0.01074678      -0.00337878       0.00460066
10
Lattice="6.142206573041286 0.09894981939916006 -8.359249986509853e-18 -3.018530834025479 4.729599960139035 -3.99543057091585e-16 2.40947586878703e-22 5.009254738379366e-16 5.929714826764799" Properties=species:S:1:pos:R:3:forces:R:3 unique_starting_index=14 config_type=initial n_minim_iter=16 energy=-1627.675061145085 stress="5.608126667613212e-05 -1.3524712070315758e-05 2.8826313180418125e-16 -1.3524712070315758e-05 1.6092511898842438e-05 2.9258590287174655e-16 2.8826313180418125e-16 2.9258590287174655e-16 -9.157431699073057e-05" free_energy=-1627.675061145085 pbc="T T T"
Si      -0.13032099       2.23969515      -0.33668872       0.00539047       0.00084826      -0.00318769
Si       3.25399673       2.58885463      -0.33668872      -0.00539047      -0.00084826      -0.00318769
Si       1.11098781      -0.48451327       1.16541525       0.00068653      -0.00377179      -0.00273584
Si       2.01268792       5.31306305       1.16541525      -0.00068653       0.00377179      -0.00273584
Si       1.78129322       0.55496862       4.98286837      -0.00160425       0.01109270      -0.00039008
Si       1.34238252       4.27358116       4.98286837       0.00160425      -0.01109270      -0.00039008
Si       0.74136092       3.28119528       1.72893151       0.00194359       0.00035233       0.00207439
Si       2.38231482       1.54735450       1.72893151      -0.00194359      -0.00035233       0.00207439
Si      -1.03128595       3.44523955       3.33541438       0.00666293      -0.00127221       0.00423921
Si       4.15496169       1.38331023       3.33541438      -0.00666293       0.00127221       0.00423921
10
Lattice="6.14381508526006 0.09879671383222337 -8.346316050152262e-18 -3.019401526927308 4.7279273590352275 -3.9940176043103924e-16 2.4102455978042766e-22 5.009301589173198e-16 5.9297702854421015" Properties=species:S:1:pos:R:3:forces:R:3 unique_starting_index=14 config_type=initial n_minim_iter=17 energy=-1627.675109420365 stress="3.1796475962190876e-05 -1.8233192521426464e-05 1.8509574489593386e-16 -1.8233192521426464e-05 -2.0134737051017536e-05 4.285463647445132e-16 1.8509574489593386e-16 4.285463647445132e-16 2.0977365731968998e-05" free_energy=-1627.675109420365 pbc="T T T"
Si      -0.12901942       2.23905193      -0.33724218       0.00085923      -0.00194200      -0.00383974
Si       3.25343298       2.58767214      -0.33724218      -0.00085923       0.00194200      -0.00383974
Si       1.11147889      -0.48511096       1.16473595       0.00113806      -0.00132801       0.00039312
Si       2.01293466       5.31183503       1.16473595      -0.00113806       0.00132801       0.00039312
Si       1.78184182       0.55622809       4.98260457      -0.00555665       0.00537826       0.00254257
Si       1.34257173       4.27049598       4.98260457       0.00555665      -0.00537826       0.00254257
Si       0.74148462       3.27998102       1.72919079       0.00281850       0.00296427      -0.00026986
Si       2.38292893       1.54674305       1.72919079      -0.00281850      -0.00296427      -0.00026986
Si      -1.02968609       3.44445285       3.33675337      -0.00282363      -0.01153435       0.00117390
Si       4.15409965       1.38227122       3.33675337       0.00282363       0.01153435       0.00117390
10
Lattice="6.143318498083432 0.09922809567230043 -8.382757879547069e-18 -3.0188392969286952 4.7285517895605995 -3.994545105689278e-16 2.41048047886253e-22 5.008512816600257e-16 5.9288365738996545" Properties=species:S:1:pos:R:3:forces:R:3 unique_starting_index=14 config_type=initial n_minim_iter=18 energy=-1627.67513729031 stress="-0.00011199425095313945 3.107760991551948e-05 3.9257435805199895e-16 3.107760991551948e-05 9.55040046834412e-06 3.1729190261276714e-17 3.9257435805199895e-16 3.1729190261276714e-17 3.9290285191693596e-05" free_energy=-1627.67513729031 pbc="T T T"
Si      -0.12885393       2.23989340      -0.33730561       0.00034562      -0.00512060      -0.00317518
Si       3.25333313       2.58788648      -0.33730561      -0.00034562       0.00512060      -0.00317518
Si       1.11130498      -0.48507196       1.16467419       0.00308735      -0.00165430       0.00107473
Si       2.01317421       5.31285185       1.16467419      -0.00308735       0.00165430       0.00107473
Si       1.78037610       0.55715562       4.98149314      -0.00512113       0.00287850       0.00053164
Si       1.34410310       4.27062426       4.98149314       0.00512113      -0.00287850       0.00053164
Si       0.74197833       3.28065747       1.72878193       0.00310015       0.00514734      -0.00179946
Si       2.38250087       1.54712242       1.72878193      -0.00310015      -0.00514734      -0.00179946
Si      -1.02813924       3.44391815       3.33668629      -0.00571409      -0.00400034       0.00336826
Si       4.15261844       1.38386173       3.33668629       0.00571409       0.00400034       0.00336826
