14
Lattice="7.042351609918168 1.1453263195115628 -1.46996215740767 -1.8457832613761815 6.89199351629596 1.469961510874185 -4.544536022180166 -2.760300853618452 5.439490196546515" Properties=species:S:1:pos:R:3:forces:R:3 unique_starting_index=10 config_type=initial n_minim_iter=1 energy=-2276.300865293817 stress="-0.0008719796493392881 -0.001841229069935963 -0.0027396823644223883 -0.001841229069935963 -0.0025292772641459563 0.00177135560592982 -0.0027396823644223883 0.00177135560592982 0.0038402661336052364" free_energy=-2276.300865293817 pbc="T T T"
Si       2.11925499       4.61334225       2.65898871      -0.64346348       0.44198876       0.28710836
Si      -1.20736343       1.06559040       2.78050081       0.66713129      -0.40538273      -0.28710836
Si       0.28082039       3.04141132       3.19395821       0.00259069      -0.25840691       0.00731443
Si       3.31025651       6.78130776       2.24553098      -0.23670545      -0.10368883      -0.00731440
Si      -1.51745696      -2.15314048       4.76526503       0.64346348      -0.44198876      -0.28710836
Si      -0.68865413       3.00958590       0.67422488      -0.66713129       0.40538273       0.28710836
Si       0.32097765      -0.58120955       4.23029553      -0.00259069       0.25840691      -0.00731443
Si      -0.00970571       5.33118837       1.20919407       0.23670545       0.10368883       0.00731440
Si       3.91704265       6.05832975      -0.00000049      -0.02535504      -0.03921560       0.00000000
Si      -3.25573234      -0.76696088       5.43949004       0.10492274       0.16227971      -0.00000001
Si      -0.61649186       6.05416638       3.45472553       0.02535504       0.03921560      -0.00000000
Si      -3.18482124       2.08183633       3.45472585      -0.10492274      -0.16227971       0.00000001
Si       2.53675191       1.18436859       1.98476386       0.01696031       0.02623183      -0.00000000
Si       2.60958214       4.03613403      -0.00000032      -0.01696031      -0.02623183       0.00000000
14
Lattice="7.057606896849737 1.209495069061219 -1.3911155701766142 -1.7935283797559876 6.93223998471838 1.39111491524382 -4.524923651971112 -2.8470134585056703 5.341780875188401" Properties=species:S:1:pos:R:3:forces:R:3 unique_starting_index=10 config_type=initial n_minim_iter=2 energy=-2276.346968695644 stress="0.00041035427258897546 0.004613899724171854 0.0013058994792082468 0.004613899724171854 0.004563344760626884 -0.0008443366463758378 0.0013058994792082468 -0.0008443366463758378 -0.004480711303377909" free_energy=-2276.346968695644 pbc="T T T"
Si       2.17128760       4.65781007       2.61973083      -0.75726384       0.48673974       0.33096470
Si      -1.16855509       1.04457631       2.72204936       0.75464401      -0.49079171      -0.33096470
Si       0.33130995       3.04692245       3.13609688       0.11282416      -0.28073670      -0.22570979
Si       3.38168355       6.84731379       2.20568297      -0.30230834      -0.01233073       0.22570981
Si      -1.48181074      -2.21728142       4.69738221       0.75726384      -0.48673974      -0.33096470
Si      -0.67465130       3.03347072       0.64439837      -0.75464401       0.49079171       0.33096470
Si       0.35816691      -0.60639380       4.18101616      -0.11282416       0.28073670       0.22570979
Si       0.03918859       5.37246830       1.16076411       0.30230834       0.01233073      -0.22570981
Si       3.96756320       6.13646782      -0.00000049      -0.16673259      -0.25787848       0.00000002
Si      -3.21785837      -0.82542901       5.34178071       0.20689481       0.31999575      -0.00000003
Si      -0.54669107       6.08331427       3.36644757       0.16673259       0.25787848      -0.00000002
Si      -3.15027167       2.05646259       3.36644789      -0.20689481      -0.31999575       0.00000003
Si       2.57116195       1.19935306       1.97533249       0.05237520       0.08100658      -0.00000001
Si       2.64323857       4.08818904      -0.00000033      -0.05237520      -0.08100658       0.00000001
14
Lattice="7.069578457334934 1.1507327398175053 -1.205174001324676 -1.8520271586306793 6.919040567250578 1.205173352180587 -4.392505625636664 -2.881606918427371 5.187824286130561" Properties=species:S:1:pos:R:3:forces:R:3 unique_starting_index=10 config_type=initial n_minim_iter=3 energy=-2276.510808336673 stress="0.0029621160514407352 -0.00861847537855646 0.00636034314141494 -0.00861847537855646 -0.004795411326979601 -0.0041123112376970404 0.00636034314141494 -0.0041123112376970404 -0.014740609459769646" free_energy=-2276.510808336673 pbc="T T T"
Si       2.14691400       4.62131739       2.57862355      -0.51296564       0.16969864       0.14441926
Si      -1.05941184       0.97277973       2.60920005       0.36527207      -0.39813026      -0.14441924
Si       0.38506940       2.96261256       3.03832982       0.28744109      -0.24345794      -0.62350826
Si       3.36862875       6.75518091       2.14949346      -0.33997718       0.16220251       0.62350826
Si      -1.28771974      -2.31603141       4.60052539       0.51296564      -0.16969864      -0.14441926
Si      -0.75846673       3.06338043       0.58729861      -0.36527207       0.39813026       0.14441924
Si       0.47412487      -0.65732658       4.14081912      -0.28744109       0.24345794       0.62350826
Si       0.03104398       5.35075256       1.04700455       0.33997718      -0.16220251      -0.62350826
Si       3.92573255       6.07177006      -0.00000049      -0.19137449      -0.29599111       0.00000002
Si      -3.08458790      -0.85870403       5.18782412       0.08625524       0.13340745      -0.00000001
Si      -0.52605982       6.03416341       3.19649850       0.19137449       0.29599111      -0.00000002
Si      -3.12579629       2.01325727       3.19649882      -0.08625524      -0.13340745       0.00000001
Si       2.63443976       1.13888364       1.99132498       0.04985770       0.07711287      -0.00000001
Si       2.61726013       4.04800926      -0.00000033      -0.04985770      -0.07711287       0.00000001
14
Lattice="7.081044918058965 1.2792254130699137 -1.1612831781896265 -1.7395600990853028 6.982230803559487 1.1612825136262896 -4.3780253611976505 -3.0268755642084844 5.258329221891773" Properties=species:S:1:pos:R:3:forces:R:3 unique_starting_index=10 config_type=initial n_minim_iter=4 energy=-2276.733141196406 stress="0.02278681729372849 -0.006278862887063431 0.005384476635931603 -0.006278862887063431 0.017135185218007942 -0.0034813599997940265 0.005384476635931603 -0.0034813599997940265 0.008555781570328855" free_energy=-2276.733141196406 pbc="T T T"
Si       2.18480833       4.73914420       2.64015415      -0.38872299       0.02236482       0.07383154
Si      -0.95303687       0.91042368       2.61817438       0.17992811      -0.34529933      -0.07383151
Si       0.47046344       2.96199089       3.06782247       0.22307389      -0.30761334      -0.55319645
Si       3.47142956       6.87921118       2.19050572      -0.37206417       0.07717617       0.55319647
Si      -1.20521030      -2.44375267       4.66669760       0.38872299      -0.02236482      -0.07383154
Si      -0.77038466       3.13261800       0.59163132      -0.17992811       0.34529933       0.07383151
Si       0.50913459      -0.66659936       4.23902928      -0.22307389       0.30761334       0.55319645
Si       0.14663373       5.42528672       1.01929932       0.37206417      -0.07717617      -0.55319647
Si       4.01028442       6.20254298      -0.00000050      -0.33706010      -0.52131708       0.00000004
Si      -3.02573779      -0.93534765       5.25832905       0.16262484       0.25152519      -0.00000002
Si      -0.39222112       6.10195492       3.20980554       0.33706010       0.52131708      -0.00000004
Si      -3.07570910       1.95151377       3.20980587      -0.16262484      -0.25152519       0.00000002
Si       2.68132676       1.18294850       2.04852286       0.01891701       0.02925816      -0.00000000
Si       2.67629663       4.13931860      -0.00000033      -0.01891701      -0.02925816       0.00000000
14
Lattice="6.875702678091316 1.5566385401187748 -1.0869249141634074 -1.4023127243588516 6.908829956333567 1.0869242331890316 -4.251184527059909 -3.2535332150016743 5.300335892605788" Properties=species:S:1:pos:R:3:forces:R:3 unique_starting_index=10 config_type=initial n_minim_iter=5 energy=-2277.195744661497 stress="0.014331248149947233 0.002413117402064092 0.009161519041196027 0.002413117402064092 0.016503303746041142 -0.005923425519936923 0.009161519041196027 -0.005923425519936923 0.009474212265016938" free_energy=-2277.195744661497 pbc="T T T"
Si       2.21899902       4.86675616       2.70815481      -0.06492066      -0.10039304       0.15559340
Si      -0.72385821       0.76731712       2.59218037      -0.06490509      -0.10040313      -0.15559339
Si       0.62993792       2.89428314       3.06754667       0.13010955      -0.28805256      -0.64287508
Si       3.60298358       6.97420363       2.23278816      -0.31607366       0.00042947       0.64287510
Si      -1.05288200      -2.61963533       4.69888606       0.06492066       0.10039304      -0.15559340
Si      -0.73454292       3.17669839       0.60144953       0.06490509       0.10040313       0.15559339
Si       0.53617910      -0.64716231       4.33949420      -0.13010955       0.28805256       0.64287508
Si       0.41200523       5.43528037       0.96084105       0.31607366      -0.00042947      -0.64287510
Si       4.08970012       6.32537199      -0.00000051      -0.41381506      -0.64003083       0.00000005
Si      -2.83756059      -1.06713886       5.30033572       0.20226132       0.31282932      -0.00000003
Si      -0.07471130       6.08411201       3.19362972       0.41381506       0.64003083      -0.00000005
Si      -2.87202507       1.75762115       3.19363007      -0.20226132      -0.31282932       0.00000003
Si       2.68128979       1.26897650       2.10670532       0.00356833       0.00551899      -0.00000000
Si       2.73601175       4.23167754      -0.00000034      -0.00356833      -0.00551899       0.00000000
14
Lattice="6.763013656567554 1.665694731371516 -1.218532694826359 -1.2566159204254679 6.850825552819033 1.2185320097453047 -4.315745848299719 -3.2479873399510617 5.338756014306025" Properties=species:S:1:pos:R:3:forces:R:3 unique_starting_index=10 config_type=initial n_minim_iter=6 energy=-2277.381761586113 stress="-0.004878477147203875 0.008418876085944204 0.0029173033680844227 0.008418876085944204 0.002699388424227903 -0.001886197932095726 0.0029173033680844227 -0.001886197932095726 -0.006873133308626079" free_energy=-2277.381761586113 pbc="T T T"
Si       2.15104883       4.94627253       2.74924326       0.42154574      -0.35604476       0.35542575
Si      -0.68802122       0.74353281       2.58951204      -0.49768271       0.23828683      -0.35542574
Si       0.61509902       2.89837560       3.06908769      -0.17134990      -0.02993360      -0.61349714
Si       3.58125193       7.01894921       2.26966726       0.04302620      -0.16853941       0.61349715
Si      -1.11336247      -2.59801595       4.64962390      -0.42154574       0.35604476      -0.35542575
Si      -0.72156023       3.18701637       0.68913181       0.49768271      -0.23828683       0.35542574
Si       0.42258734      -0.55011902       4.32977947       0.17134990       0.02993360       0.61349714
Si       0.51556436       5.42812027       1.00897589      -0.04302620       0.16853941      -0.61349715
Si       4.09986679       6.34109638      -0.00000051      -0.32281102      -0.49927860       0.00000004
Si      -2.87777441      -1.02393570       5.33875584       0.16458474       0.25455648      -0.00000002
Si      -0.00305051       6.10597309       3.27864367       0.32281102       0.49927860      -0.00000004
Si      -2.84755288       1.70649755       3.27864402      -0.16458474      -0.25455648       0.00000002
Si       2.60401912       1.34383909       2.06011149      -0.04924662      -0.07616774       0.00000001
Si       2.74941308       4.25240483      -0.00000034       0.04924662       0.07616774      -0.00000001
14
Lattice="6.775349428488904 1.5875709014356227 -1.2969820986639546 -1.3329199782714454 6.830012249854733 1.2969814215415443 -4.361189232759989 -3.148457624584937 5.380325492171804" Properties=species:S:1:pos:R:3:forces:R:3 unique_starting_index=10 config_type=initial n_minim_iter=7 energy=-2277.444577376243 stress="-0.0018278295640150777 -0.0012585747913461938 -0.0038236238217112337 -0.0012585747913461938 -0.002960677399234945 0.0024721824497971638 -0.0038236238217112337 0.0024721824497971638 -0.006074600771187511" free_energy=-2277.444577376243 pbc="T T T"
Si       2.10741892       4.89962449       2.76163138       0.21393510      -0.29152210       0.38601340
Si      -0.75809723       0.78413170       2.61869341      -0.35363998       0.07544627      -0.38601338
Si       0.54983800       2.91076434       3.09176783      -0.18375867      -0.09435489      -0.44805998
Si       3.50992099       6.96511441       2.28855662      -0.01062721      -0.20629381       0.44806001
Si      -1.17970597      -2.51533810       4.66036530      -0.21393510       0.29152210      -0.38601340
Si      -0.72835001       3.16104141       0.71995988       0.35363998      -0.07544627       0.38601338
Si       0.37787496      -0.52647795       4.33022885       0.18375867       0.09435489       0.44805998
Si       0.44606122       5.39764185       1.05009599       0.01062721       0.20629381      -0.44806001
Si       4.05302710       6.26865134      -0.00000050      -0.23760337      -0.36749142       0.00000003
Si      -2.94482465      -0.95782441       5.38032532       0.11228064       0.17365988      -0.00000001
Si      -0.09704490       6.09410492       3.33865312       0.23760337       0.36749142      -0.00000003
Si      -2.90281183       1.75453990       3.33865346      -0.11228064      -0.17365988       0.00000001
Si       2.56943302       1.32665222       2.04167153      -0.07691977      -0.11896867       0.00000001
Si       2.71946916       4.20609179      -0.00000034       0.07691977       0.11896867      -0.00000001
14
Lattice="6.748614614986741 1.5815947874955774 -1.2753210101700918 -1.3273975405587266 6.803180049295284 1.275320335686829 -4.314172886314148 -3.1555946292945407 5.425981749025071" Properties=species:S:1:pos:R:3:forces:R:3 unique_starting_index=10 config_type=initial n_minim_iter=8 energy=-2277.499697326914 stress="-0.0006067190946283405 -0.0037657138066189656 0.0006425158586041525 -0.0037657138066189656 -0.003996254183187172 -0.0004154209332289378 0.0006425158586041525 -0.0004154209332289378 0.0038815549635656302" free_energy=-2277.499697326914 pbc="T T T"
Si       2.11775396       4.86530116       2.79447132       0.12378393      -0.23585507       0.30331566
Si      -0.74662200       0.77233281       2.63150972      -0.26587858       0.01608308      -0.30331565
Si       0.56108618       2.88541193       3.10722114      -0.14051522      -0.17317302      -0.30734730
Si       3.50798969       6.92502162       2.31875957      -0.10024906      -0.19920725       0.30734733
Si      -1.14879318      -2.51931458       4.70684029      -0.12378393       0.23585507      -0.30331566
Si      -0.71885894       3.14765362       0.71914116       0.26587858      -0.01608308       0.30331565
Si       0.40787460      -0.53942534       4.39409048       0.14051522       0.17317302       0.30734730
Si       0.44774644       5.37973965       1.03189063       0.10024906       0.19920725      -0.30734733
Si       4.03078977       6.23425776      -0.00000050      -0.16267209      -0.25159828       0.00000002
Si      -2.90009265      -0.96849453       5.42598157       0.08662191       0.13397457      -0.00000001
Si      -0.07505363       6.07050351       3.35065070       0.16267209       0.25159828      -0.00000002
Si      -2.87956118       1.73288633       3.35065105      -0.08662191      -0.13397457       0.00000001
Si       2.57281390       1.30964042       2.07533020      -0.04396658      -0.06800131       0.00000001
Si       2.71031977       4.19194080      -0.00000034       0.04396658       0.06800131      -0.00000001
14
Lattice="6.734677529801065 1.686701367491635 -1.3067553273350867 -1.2258306188648647 6.833606955233924 1.3067546419493175 -4.3465891694054415 -3.230731210867012 5.482739733302874" Properties=species:S:1:pos:R:3:forces:R:3 unique_starting_index=10 config_type=initial n_minim_iter=9 energy=-2277.654050060799 stress="0.002405468699300718 -0.0010692611922620383 0.0012662074774913053 -0.0010692611922620383 0.001443021939896321 -0.000818671573241308 0.0012662074774913053 -0.000818671573241308 0.01378364064219448" free_energy=-2277.654050060799 pbc="T T T"
Si       2.15360492       4.92352478       2.88196715       0.08627188      -0.25757068       0.19249037
Si      -0.74065735       0.75378406       2.60077186      -0.27028602      -0.02703646      -0.19249035
Si       0.57280627       2.88643095       3.07681692      -0.13279128      -0.10332106       0.01173197
Si       3.55932252       6.99652432       2.40592176      -0.03972076      -0.16349626      -0.01173195
Si      -1.17451472      -2.53603966       4.68876427      -0.08627188       0.25757068      -0.19249037
Si      -0.66834082       3.17773091       0.79397515       0.27028602       0.02703646       0.19249035
Si       0.40628393      -0.49894583       4.49391450       0.13279128       0.10332106      -0.01173197
Si       0.54052622       5.45529897       0.98882457       0.03972076       0.16349626       0.01173195
Si       4.05748864       6.27555181      -0.00000050       0.04457713       0.06894563      -0.00000001
Si      -2.88484287      -0.96990797       5.48273955       0.05513404       0.08527356      -0.00000001
Si       0.04236011       6.17627147       3.39474684      -0.04457713      -0.06894563       0.00000001
Si      -2.87074446       1.67069172       3.39474720      -0.05513404      -0.08527356       0.00000001
Si       2.56636488       1.35049740       2.08799203       0.04138084       0.06400205      -0.00000001
Si       2.75931449       4.26771893      -0.00000034      -0.04138084      -0.06400205       0.00000001
14
Lattice="6.762070507990591 1.7172163798895772 -1.3004233803164362 -1.209246059452651 6.871110202500669 1.3004226894591817 -4.3807558196292185 -3.2568666773259207 5.417247724438869" Properties=species:S:1:pos:R:3:forces:R:3 unique_starting_index=10 config_type=initial n_minim_iter=10 energy=-2277.710291237313 stress="0.00215477161016301 -1.4093040635847577e-05 -0.0021703164466356714 -1.4093040635847577e-05 0.0021420867873891704 0.001403229067897288 -0.0021703164466356714 0.001403229067897288 0.006879340911456369" free_energy=-2277.710291237313 pbc="T T T"
Si       2.17571192       4.94779243       2.87072265      -0.02100390      -0.18504123       0.11844727
Si      -0.76176704       0.75776760       2.54652436      -0.16011970      -0.09509524      -0.11844725
Si       0.56747118       2.89949948       3.01561250      -0.09103568      -0.04270370       0.12847809
Si       3.58324020       7.03890542       2.40163417      -0.00158025      -0.10054157      -0.12847808
Si      -1.20119206      -2.53323931       4.60493673       0.02100390       0.18504123      -0.11844727
Si      -0.64502779       3.19643582       0.81231068       0.16011970       0.09509524       0.11844725
Si       0.40704868      -0.48494636       4.46004688       0.09103568       0.04270370      -0.12847809
Si       0.56278942       5.50362458       0.95720018       0.00158025       0.10054157       0.12847808
Si       4.07638656       6.30478046      -0.00000051       0.08865980       0.13712649      -0.00000001
Si      -2.89856479      -0.96442240       5.41724754       0.05828760       0.09015104      -0.00000001
Si       0.06964306       6.23774954       3.35883485      -0.08865980      -0.13712649       0.00000001
Si      -2.88898586       1.66175914       3.35883522      -0.05828760      -0.09015104       0.00000001
Si       2.57194833       1.36656116       2.05841200       0.04693364       0.07259034      -0.00000001
Si       2.78332735       4.30485864      -0.00000035      -0.04693364      -0.07259034       0.00000001
14
Lattice="6.787923799244641 1.7204537617694193 -1.2411351385148162 -1.2169041826154527 6.896014543313011 1.2411344453938 -4.368715441214047 -3.284604399247008 5.319934597967838" Properties=species:S:1:pos:R:3:forces:R:3 unique_starting_index=10 config_type=initial n_minim_iter=11 energy=-2277.737748838081 stress="0.00037895648246541366 0.0012563578967319077 -0.0024622204010023977 0.0012563578967319077 0.001509809990418674 0.0015919604174380476 -0.0024622204010023977 0.0015919604174380476 -9.398314274369033e-05" free_energy=-2277.737748838081 pbc="T T T"
Si       2.19969389       4.94445063       2.83126827      -0.08647814      -0.11469082       0.06181390
Si      -0.76261636       0.75052764       2.48866560      -0.06909600      -0.12592934      -0.06181388
Si       0.57861424       2.89551893       2.95403211      -0.05003685       0.00096595       0.12406354
Si       3.60527272       7.04783719       2.36590143       0.02141618      -0.04523237      -0.12406354
Si      -1.18054044      -2.54877911       4.52806554       0.08647814       0.11469082      -0.06181390
Si      -0.63743855       3.20929452       0.79186875       0.06909600       0.12592934       0.06181388
Si       0.44053921      -0.49984741       4.40530170       0.05003685      -0.00096595      -0.12406354
Si       0.56569199       5.52845328       0.91463223      -0.02141618       0.04523237       0.12406354
Si       4.08680681       6.32089703      -0.00000051       0.05898768       0.09123383      -0.00000001
Si      -2.87738518      -0.97802484       5.31993441       0.05644098       0.08729495      -0.00000001
Si       0.08415791       6.25539344       3.28053416      -0.05898768      -0.09123383       0.00000001
Si      -2.89138517       1.65324260       3.28053453      -0.05644098      -0.08729495       0.00000001
Si       2.59570337       1.36174764       2.03939956       0.02200482       0.03403396      -0.00000000
Si       2.79216553       4.31852828      -0.00000035      -0.02200482      -0.03403396       0.00000000
14
Lattice="6.80683603616753 1.7036693914514236 -1.1733520734261627 -1.2399715787965513 6.90637229866378 1.173351380822113 -4.3349306145767015 -3.3018915730672593 5.244447814754722" Properties=species:S:1:pos:R:3:forces:R:3 unique_starting_index=10 config_type=initial n_minim_iter=12 energy=-2277.751539432039 stress="-0.0005153916837965696 0.0009842194246398378 -0.0005600840937034472 0.0009842194246398378 0.0003705084951624313 0.0003621248207939142 -0.0005600840937034472 0.0003621248207939142 -0.0025020923991728285" free_energy=-2277.751539432039 pbc="T T T"
Si       2.21297985       4.92408685       2.79776890      -0.09540031      -0.09424896       0.05071018
Si      -0.75285395       0.73699861       2.44667820      -0.04679329      -0.12567608      -0.05071016
Si       0.59267211       2.88047183       2.91272484      -0.02735008       0.02236527       0.02109597
Si       3.61541147       7.03076744       2.33172191       0.03161956      -0.01576184      -0.02109597
Si      -1.13680941      -2.56755824       4.48222627       0.09540031       0.09424896      -0.05071018
Si      -0.64288103       3.21775219       0.76222123       0.04679329       0.12567608       0.05071016
Si       0.48349833      -0.52394321       4.36727032       0.02735008      -0.02236527      -0.02109597
Si       0.55571801       5.53402505       0.87717682      -0.03161956       0.01576184       0.02109597
Si       4.08515586       6.31834357      -0.00000051       0.01868412       0.02889797      -0.00000000
Si      -2.84207614      -0.99295458       5.24444763       0.02859337       0.04422420      -0.00000000
Si       0.08597362       6.24644891       3.20889924      -0.01868412      -0.02889797       0.00000000
Si      -2.88858946       1.64581380       3.20889961      -0.02859337      -0.04422420       0.00000000
Si       2.62208241       1.34475905       2.03554770      -0.00309703      -0.00479005       0.00000000
Si       2.78901865       4.31366113      -0.00000035       0.00309703       0.00479005      -0.00000000
14
Lattice="6.812497987474833 1.6920835025262706 -1.1217952649163314 -1.2528604863745463 6.906780549753526 1.1217945732114278 -4.29876646139825 -3.317348554612194 5.21062724526042" Properties=species:S:1:pos:R:3:forces:R:3 unique_starting_index=10 config_type=initial n_minim_iter=13 energy=-2277.758027052881 stress="-0.0008124477154105277 -0.0009187182730221537 0.0005394846599148008 -0.0009187182730221537 -0.0016393900262442467 -0.0003488063562781232 0.0005394846599148008 -0.0003488063562781232 -0.0012093623985590435" free_energy=-2277.758027052881 pbc="T T T"
Si       2.21618461       4.89783513       2.79809183      -0.07811152      -0.09672180       0.02070165
Si      -0.74194408       0.71369024       2.41253470      -0.05614368      -0.11092522      -0.02070163
Si       0.60266603       2.85759010       2.88395309      -0.02030085       0.02791379      -0.00853492
Si       3.61938118       7.00385555       2.32667309       0.03378625      -0.00705648       0.00853492
Si      -1.08835718      -2.57866816       4.45695089       0.07811152       0.09672180      -0.02070165
Si      -0.64396001       3.23074178       0.75367604       0.05614368       0.11092522       0.02070163
Si       0.52516140      -0.53842313       4.37108963       0.02030085      -0.02791379       0.00853492
Si       0.55435222       5.53944052       0.83953695      -0.03378625       0.00705648      -0.00853492
Si       4.07483284       6.30237738      -0.00000051       0.04567142       0.07063812      -0.00000001
Si      -2.79964302      -0.99871561       5.21062706      -0.04530135      -0.07006575       0.00000001
Si       0.09890056       6.24091869       3.16621055      -0.04567142      -0.07063812       0.00000001
Si      -2.88502754       1.62579908       3.16621092       0.04530135       0.07006575      -0.00000001
Si       2.64132917       1.32866043       2.04441582      -0.01732256      -0.02679210       0.00000000
Si       2.78526472       4.30785509      -0.00000035       0.01732256       0.02679210      -0.00000000
14
Lattice="6.8164647399325595 1.7110975531533812 -1.1326351093682998 -1.2371494740038091 6.9182012935854456 1.1326344152151755 -4.3086435177023015 -3.3325412680003756 5.239550751320725" Properties=species:S:1:pos:R:3:forces:R:3 unique_starting_index=10 config_type=initial n_minim_iter=14 energy=-2277.763848792586 stress="0.0022314174513948263 0.0006563575499652868 0.0004343496353592075 0.0006563575499652868 0.0028222075904034446 -0.0002808309289859203 0.0004343496353592075 -0.0002808309289859203 0.0025834462248551723" free_energy=-2277.763848792586 pbc="T T T"
Si       2.21874983       4.90096656       2.82183753      -0.06984419      -0.06502647       0.00878914
Si      -0.75001836       0.70212191       2.41771250      -0.03063353      -0.09037832      -0.00878913
Si       0.60360546       2.86425606       2.89523714      -0.01794646       0.00445358       0.03808104
Si       3.63487507       7.02269004       2.34431255       0.01142653      -0.01453768      -0.03808104
Si      -1.08899629      -2.57225554       4.47117052       0.06984419       0.06502647      -0.00878914
Si      -0.62804932       3.24803282       0.76837991       0.03063353       0.09037832       0.00878913
Si       0.52614808      -0.53554504       4.39777091       0.01794646      -0.00445358      -0.03808104
Si       0.56637252       5.55676354       0.84177917      -0.01142653       0.01453768       0.03808104
Si       4.08934168       6.32481762      -0.00000051       0.02393795       0.03702384      -0.00000000
Si      -2.80305230      -1.00390487       5.23955056      -0.02373368      -0.03670791       0.00000000
Si       0.11190591       6.25463597       3.18609222      -0.02393795      -0.03702384       0.00000000
Si      -2.88365890       1.62151834       3.18609260       0.02373368       0.03670791      -0.00000000
Si       2.64192052       1.33605633       2.05345765      -0.00977490      -0.01511844       0.00000000
Si       2.79647654       4.32519596      -0.00000035       0.00977490       0.01511844      -0.00000000
14
Lattice="6.786170816229447 1.6943060194293065 -1.140203441855461 -1.2400289818720527 6.8836848367843775 1.140202751829624 -4.2880129534829745 -3.3095018410925836 5.259157859569259" Properties=species:S:1:pos:R:3:forces:R:3 unique_starting_index=10 config_type=initial n_minim_iter=15 energy=-2277.773821040924 stress="-0.0019394923474845543 0.0006079437225776901 0.0008363968818475985 0.0006079437225776901 -0.0013922797708584296 -0.0005407763919584314 0.0008363968818475985 -0.0005407763919584314 0.00014722030870735253" free_energy=-2277.773821040924 pbc="T T T"
Si       2.18452656       4.84111302       2.84360037      -0.03774990       0.04190781       0.02114624
Si      -0.76992309       0.66938886       2.41555678       0.05370861      -0.01722514      -0.02114624
Si       0.58978986       2.85088013       2.90776513      -0.04610301      -0.05964267       0.03679925
Si       3.61580462       6.97633344       2.35139167      -0.03546750      -0.06651911      -0.03679924
Si      -1.06385421      -2.52471962       4.47503419       0.03774990      -0.04190781      -0.02114624
Si      -0.60756242       3.26220036       0.78412335      -0.05370861       0.01722514       0.02114624
Si       0.53088250      -0.53448673       4.41086942       0.04610301       0.05964267      -0.03679925
Si       0.55285171       5.53324664       0.84828777       0.03546750       0.06651911       0.03679924
Si       4.07418702       6.30137852      -0.00000051       0.01016276       0.01571833      -0.00000000