22
Lattice="10.173015087636106 -0.24718210987390216 -1.1761290513197797 -4.507216063755625 9.12339510946099 1.1761290513198266 -3.824277401471613 -3.8052974539691107 8.707997941977343" Properties=species:S:1:pos:R:3:forces:R:3 unique_starting_index=6 config_type=initial n_minim_iter=1 energy=-3573.839020865545 stress="-1.1659454106992125e-05 0.0001150341266406134 0.00048677760365683565 0.0001150341266406134 9.512876791227499e-05 -0.0003107163011715385 0.00048677760365683565 -0.0003107163011715385 -8.508731259152995e-05" free_energy=-3573.839020865545 pbc="T T T"
Si      -4.55545208       6.39579769       7.56640533       0.18419114      -0.06538828      -0.03080737
Si       2.21326937       1.34562926       6.10496024       0.00230154      -0.05365235      -0.19043956
Si       6.19831841       2.16797400      -0.67622268      -0.00518271      -0.09792507      -0.02559486
Si      -0.36607455       0.35561308       4.64979868       0.06748629       0.05815591      -0.04831943
Si       6.63747134      -1.47839481       1.42690865      -0.04963451      -0.02050092       0.19043956
Si      -0.61224538       3.87879898       2.31772166      -0.13685817       0.13954155       0.03080737
Si       2.31820498       4.88858559       4.05819925       0.02433763       0.08569824       0.04831943
Si      -4.46740559       2.72965844       9.38422062      -0.08664121      -0.04592908       0.02559486
Si      -1.07669971       6.04659195       2.87252846       0.05707659      -0.08377274      -0.07629253
Si       0.81390378       6.61391820       4.16090266       0.08577818      -0.00741327      -0.09318426
Si       1.61324064       4.21525501       1.99340183       0.06286601      -0.19740285      -0.02163583
Si       1.60677830       6.22213036       0.90816689       0.08956542       0.10010395      -0.15920229
Si       1.83222927      -0.28247393       4.54709528      -0.04283827       0.07468424       0.09318426
Si       2.11360991      -2.23620512       5.83546948      -0.10001650       0.01650177       0.07629253
Si       1.14304358       0.27175601       7.79983105       0.05309104       0.12338600       0.15920229
Si      -0.68001929      -0.56731026       6.71459611      -0.20552247      -0.02608709       0.02163583
Si      -2.19343911       2.31551714       1.93074837       0.02711898      -0.09516122      -0.05411074
Si       3.05381521       3.38167601       5.61326079      -0.01030342       0.08442764       0.07405999
Si      -2.04262543       0.38841645       3.09473715       0.08091825       0.02619969      -0.07405999
Si      -5.30772252       4.30340362       7.95337862      -0.09773380      -0.01546611       0.05411074
Si       2.83289951       4.43810650      -0.00000000       0.00000000      -0.00000000      -0.00000000
Si       3.17436884      -2.02623978       3.76593444       0.00000000       0.00000000      -0.00000000
22
Lattice="10.1763511719776 -0.25414966356091273 -1.1997194356263559 -4.514940550653093 9.12348765828979 1.1997194356264025 -3.8419679252308576 -3.7891672800469545 8.714558837740233" Properties=species:S:1:pos:R:3:forces:R:3 unique_starting_index=6 config_type=initial n_minim_iter=2 energy=-3573.841732442192 stress="0.00011243295310336477 -0.00022515414462298154 -0.0004798017963376287 -0.00022515414462298154 -9.658163662653856e-05 0.00030626355513058135 -0.0004798017963376287 0.00030626355513058135 0.00025615181013587503" free_energy=-3573.841732442192 pbc="T T T"
Si      -4.57495712       6.40585215       7.58854505       0.18432343      -0.02601500      -0.03068419
Si       2.19903010       1.35227612       6.10322073      -0.01569741      -0.08162113      -0.16936650
Si       6.19900136       2.16220127      -0.68741800      -0.04475312      -0.08876882      -0.06247985
Si      -0.37629638       0.36263651       4.65267792       0.10587996       0.04975079      -0.01003842
Si       6.63514093      -1.47934953       1.41161867      -0.06742581      -0.04860223       0.16936650
Si      -0.62032851       3.88156270       2.32573322      -0.10120021       0.15623836       0.03068419
Si       2.30680023       4.89152600       4.06188091       0.00054937       0.11698464       0.01003842
Si      -4.49061982       2.74397767       9.40197683      -0.06167621      -0.07796660       0.06247985
Si      -1.08606114       6.04813907       2.88426361       0.04232219      -0.06689376      -0.06204475
Si       0.80163202       6.61650365       4.16962599       0.07038471      -0.00504847      -0.07166589
Si       1.60700323       4.21425243       1.99647116       0.05798929      -0.20378197      -0.02594931
Si       1.60206309       6.22044796       0.91288508       0.09750618       0.10452724      -0.15852386
Si       1.82205050      -0.27638637       4.54493285      -0.03421237       0.06171716       0.07166589
Si       2.10126402      -2.22791490       5.83029522      -0.07849453       0.01022508       0.06204475
Si       1.12581222       0.28290092       7.80167376       0.05376001       0.13245098       0.15852386
Si      -0.69599315      -0.55725986       6.71808767      -0.20925548      -0.03319625       0.02594931
Si      -2.19895246       2.31787119       1.93941074       0.03934663      -0.05534273      -0.06313951
Si       3.03956638       3.38709832       5.61390780      -0.03951246       0.05544859       0.06294278
Si      -2.04939864       0.39390505       3.10065103       0.06693021      -0.01249512      -0.06294278
Si      -5.32868106       4.31561654       7.97486753      -0.06676437       0.01238926       0.06313951
Si       2.83070531       4.43466900      -0.00000000       0.00000000      -0.00000000      -0.00000000
Si       3.16719162      -2.02165847       3.75741970      -0.00000000      -0.00000000       0.00000000
22
Lattice="10.16506974580176 -0.2425336096156971 -1.2011840373758962 -4.499654506824335 9.118145360106002 1.2011840373759433 -3.8452047725132723 -3.791516136416803 8.698799585298318" Properties=species:S:1:pos:R:3:forces:R:3 unique_starting_index=6 config_type=initial n_minim_iter=3 energy=-3573.851181318647 stress="-0.0008566138914357915 0.0001753303202639264 -0.00035129704319266416 0.0001753303202639264 -0.0006938516424071163 0.00022423734587143334 -0.00035129704319266416 0.00022423734587143334 -0.0009685293654746386" free_energy=-3573.851181318647 pbc="T T T"
Si      -4.55966308       6.40064937       7.57655871       0.08567156      -0.04836894      -0.00448008
Si       2.19578425       1.35420337       6.08606519       0.00091172      -0.00689826      -0.09823861
Si       6.19410578       2.16645587      -0.68914118      -0.05838411      -0.06431539      -0.02800970
Si      -0.37458846       0.36483160       4.64333440       0.06968029       0.05710490       0.01460840
Si       6.62373732      -1.47221508       1.41155035      -0.00664094      -0.00207731       0.09823861
Si      -0.61943757       3.88555358       2.32342491      -0.07994235       0.05734451       0.00448008
Si       2.30884001       4.89792425       4.05546518       0.02246060       0.08724582      -0.01460840
Si      -4.48793640       2.73897952       9.38794076      -0.03375678      -0.08003533       0.02800970
Si      -1.07734690       6.04508286       2.87860938       0.00023283       0.00606330       0.01101348
Si       0.80926606       6.61795450       4.16063623      -0.01210071       0.00151212       0.00306606
Si       1.61117864       4.21054615       1.99241609       0.03110641      -0.16313914      -0.01328895
Si       1.60995794       6.22527959       0.90737141       0.07618433       0.09465410      -0.11399619
Si       1.81691559      -0.27119992       4.53816335       0.00646618      -0.01033936      -0.00306606
Si       2.09158618      -2.22364619       5.82019020       0.00540170       0.00276394      -0.01101348
Si       1.12363405       0.28974730       7.79142818       0.05378140       0.10895417       0.11399619
Si      -0.70434971      -0.55738179       6.70638349      -0.16107214      -0.04046914       0.01328895
Si      -2.19349981       2.31343495       1.93538506       0.06544494       0.00757081      -0.07348754
Si       3.03737429       3.39386828       5.60513158      -0.08432319       0.00447941       0.05109120
Si      -2.04557187       0.39241813       3.09366800       0.03956453      -0.07459969      -0.05109120
Si      -5.32295143       4.31100350       7.96459856      -0.02068628       0.06254946       0.07348754
Si       2.83270762       4.43780588      -0.00000000       0.00000000      -0.00000000      -0.00000000
Si       3.15993249      -2.01702487       3.74880777      -0.00000000       0.00000000       0.00000000
22
Lattice="10.179417293888775 -0.24121619732203015 -1.200707646694842 -4.50450010091968 9.131713997809328 1.2007076466948894 -3.8495541909133 -3.7992154813459096 8.710184544963855" Properties=species:S:1:pos:R:3:forces:R:3 unique_starting_index=6 config_type=initial n_minim_iter=4 energy=-3573.855422571275 stress="0.0007188827371550715 0.00021668360830278196 -0.00018563962963085207 0.00021668360830278196 0.0009200339776366614 0.00011849612356154909 -0.00018563962963085207 0.00011849612356154909 0.0005805708953175146" free_energy=-3573.855422571275 pbc="T T T"
Si      -4.56007521       6.40807266       7.58438459       0.03474159      -0.04130355       0.01798691
Si       2.20028788       1.35464406       6.09088304      -0.00648661       0.02326805      -0.05150740
Si       6.20260372       2.16898888      -0.68995813      -0.05771300      -0.02307880      -0.01110809
Si      -0.37235617       0.36592499       4.64891918       0.03653748       0.03659540       0.03622982
Si       6.63223908      -1.47432644       1.41859386       0.02383632       0.00391253       0.05150740
Si      -0.62172575       3.89417438       2.32650759      -0.05209130       0.01412298      -0.01798691
Si       2.31404447       4.90759609       4.06126536       0.01781108       0.04854870      -0.03622982
Si      -4.49356602       2.74005470       9.40014267       0.00336444      -0.06206530       0.01110809
Si      -1.07646946       6.05272198       2.88022391       0.01741304       0.05840277       0.06772957
Si       0.81368854       6.62788363       4.16400680      -0.08861851      -0.01295142       0.01674554
Si       1.61574706       4.21300725       1.99438453       0.00343789      -0.09307118      -0.00037350
Si       1.61536197       6.23740422       0.90484479       0.04152983       0.06436772      -0.05297427
Si       1.81971048      -0.27070751       4.54617774       0.02556225      -0.08583444      -0.01674554
Si       2.09379644      -2.22733345       5.82996063       0.04564322       0.04038309      -0.06772957
Si       1.12800712       0.29205437       7.80533975       0.04090018       0.06476963       0.05297427
Si      -0.70839016      -0.55990118       6.71580001      -0.08586789      -0.03606617       0.00037350
Si      -2.19510622       2.31511710       1.93593887       0.06146223       0.00185341      -0.07254780
Si       3.04269579       3.40029037       5.61425740      -0.07978511       0.00984232       0.05081033
Si      -2.04633655       0.39224947       3.09592715       0.04251837      -0.06822554      -0.05081033
Si      -5.32994432       4.31612391       7.97495331      -0.02419549       0.05652981       0.07254780
Si       2.83745860       4.44524890      -0.00000000       0.00000000       0.00000000      -0.00000000
Si       3.16493155      -2.02021583       3.75473845      -0.00000000       0.00000000       0.00000000
22
Lattice="10.172840850661244 -0.2626513290735557 -1.192840409272414 -4.521174107311163 9.116724268339226 1.192840409272461 -3.83129754086376 -3.7852359733400007 8.716174201738024" Properties=species:S:1:pos:R:3:forces:R:3 unique_starting_index=6 config_type=initial n_minim_iter=5 energy=-3573.858780767904 stress="0.00015259894267114548 -0.0002908189252329224 8.069902022250547e-05 -0.0002908189252329224 -0.00011737342867862548 -5.1511205288125e-05 8.069902022250547e-05 -5.1511205288125e-05 0.00033823232094518785" free_energy=-3573.858780767904 pbc="T T T"
Si      -4.56145033       6.39553163       7.58286432      -0.01500363       0.00865290       0.02995390
Si       2.20107868       1.34192511       6.09316175      -0.02482953       0.01677311       0.01730245
Si       6.19235138       2.14764348      -0.68725640      -0.05851870      -0.01182466       0.00404285
Si      -0.36697864       0.36474908       4.65206593       0.01889569       0.03711652       0.04296419
Si       6.63204959      -1.48641967       1.43017203       0.02566774      -0.01545994      -0.01730245
Si      -0.63093953       3.88663688       2.32615028       0.01416542      -0.00996607      -0.02995390
Si       2.30572003       4.88953337       4.06410826       0.02571125       0.03276607      -0.04296419
Si      -4.49035437       2.73574802       9.40343059       0.01391175      -0.05805793      -0.00404285
Si      -1.08591609       6.03665628       2.87785247      -0.01132238       0.12265938       0.09564045
Si       0.80245796       6.60588194       4.16332547      -0.13296845      -0.03055672       0.07554001
Si       1.60827298       4.19215931       1.99465380      -0.00921239      -0.06809377       0.02443197
Si       1.60350333       6.21932657       0.89992771       0.01295512       0.06570473      -0.02887219
Si       1.82273870      -0.27617781       4.55284873       0.02826537      -0.13347431      -0.07554001
Si       2.10145784      -2.22868646       5.83832173       0.11602545       0.04137165      -0.09564045
Si       1.13485908       0.28766647       7.81624649       0.05414335       0.03941377       0.02887219
Si      -0.70589698      -0.56147839       6.72152040      -0.05788608      -0.03702473      -0.02443197
Si      -2.19590737       2.31155006       1.93244982       0.01221141      -0.00166517      -0.10522271
Si       3.03661069       3.38262004       5.62149098      -0.09147387       0.05225940       0.01118915
Si      -2.04154589       0.39326996       3.09468322       0.08591406      -0.06096956      -0.01118915
Si      -5.33125988       4.31288522       7.97656478      -0.00665160       0.01037533       0.10522271
Si       2.82583337       4.42703647      -0.00000000       0.00000000       0.00000000      -0.00000000
Si       3.17077165      -2.02394365       3.76166689      -0.00000000      -0.00000000      -0.00000000
22
Lattice="10.162004817517268 -0.24366733173009397 -1.2020774465113904 -4.499392466899513 9.114887992104148 1.2020774465114377 -3.844556397863119 -3.7888398975530646 8.696826099305863" Properties=species:S:1:pos:R:3:forces:R:3 unique_starting_index=6 config_type=initial n_minim_iter=6 energy=-3573.863504002612 stress="-0.000615023288232255 0.00034342489031752337 3.65805228274657e-05 0.00034342489031752337 -0.0002962158655533914 -2.3349810390555473e-05 3.65805228274657e-05 -2.3349810390555473e-05 -0.0008342357484117565" free_energy=-3573.863504002612 pbc="T T T"
Si      -4.54708239       6.39438985       7.57493875      -0.05479083      -0.00360155       0.04076948
Si       2.19328167       1.35093980       6.07119941      -0.01687038       0.04934381       0.04424631
Si       6.18689868       2.15713045      -0.69242328      -0.07836324       0.00539202       0.01644756
Si      -0.36766071       0.37124524       4.64241841       0.00637617       0.04055824       0.06895482
Si       6.61941417      -1.47431656       1.42354924       0.05186015       0.00547224      -0.04424631
Si      -0.62950155       3.89374845       2.32396479       0.01980105      -0.05121449      -0.04076948
Si       2.30958630       4.90519348       4.05440768       0.03410399       0.02285922      -0.06895482
Si      -4.49271236       2.73119238       9.38924937       0.03788307      -0.06880947      -0.01644756
Si      -1.07501517       6.04301826       2.87854307      -0.06044112       0.10335303       0.07051938
Si       0.80678039       6.61393715       4.15755993      -0.08881807      -0.00807900       0.10655534
Si       1.61397530       4.18997236       1.99103271      -0.03209548       0.00350707       0.00849537
Si       1.61684228       6.23349368       0.89394445       0.00053994       0.01663523       0.02894077
Si       1.81496652      -0.27246968       4.53926617       0.03006581      -0.08396408      -0.10655534
Si       2.08938016      -2.21972418       5.81828302       0.11919339      -0.01130995      -0.07051938
Si       1.12883462       0.30212626       7.80288164       0.01486171       0.00749347      -0.02894077
Si      -0.72354029      -0.56083075       6.70579338       0.01669383      -0.02763577      -0.00849537
Si      -2.18847940       2.30829620       1.92609438       0.05196998       0.01441774      -0.07859377
Si       3.02826571       3.39852646       5.61015475      -0.08783169       0.00847324       0.03604898
Si      -2.03686341       0.38879356       3.08667134       0.04466428      -0.07610062      -0.03604898
Si      -5.32881581       4.31281266       7.97280916      -0.00880257       0.05320963       0.07859377
Si       2.83130617       4.43561033      -0.00000000      -0.00000000       0.00000000       0.00000000
Si       3.15872421      -2.01625361       3.74737432      -0.00000000       0.00000000      -0.00000000
22
Lattice="10.166815726763929 -0.2644076021495948 -1.206141910861862 -4.5202304623814795 9.110519741979989 1.2061419108619096 -3.839968857720419 -3.774098776250274 8.712040479131717" Properties=species:S:1:pos:R:3:forces:R:3 unique_starting_index=6 config_type=initial n_minim_iter=7 energy=-3573.87025660084 stress="0.00014182939871121988 -4.71808108320583e-05 9.199943803911134e-06 -4.71808108320583e-05 9.803061439124316e-05 -5.872440490492713e-06 9.199943803911134e-06 -5.872440490492713e-06 0.00017194550472954595" free_energy=-3573.87025660084 pbc="T T T"
Si      -4.56159291       6.39380932       7.59205217       0.04798599       0.06697604       0.01501452
Si       2.18813136       1.34640068       6.07905376      -0.05692293      -0.06127148      -0.00441211
Si       6.17801823       2.13839597      -0.69497423      -0.07028347      -0.00854723      -0.01481202
Si      -0.36588262       0.37684383       4.65503829       0.03670818       0.02997877       0.05464431
Si       6.62686376      -1.48689835       1.42684480      -0.03161097      -0.07742843       0.00441211
Si      -0.64016940       3.89071510       2.32613022       0.04054791       0.07172386      -0.01501452
Si       2.30247637       4.89879600       4.05700219       0.01173758       0.04591782      -0.05464431
Si      -4.50137917       2.72999094       9.40701471       0.02183772      -0.06734936       0.01481202
Si      -1.08999292       6.04470848       2.89054375      -0.06585383      -0.01915477      -0.08548739
Si       0.78420711       6.60087741       4.17109434       0.09981007      -0.00251993       0.04520316
Si       1.60531160       4.17220499       1.99540177      -0.01995504       0.07367824      -0.03012646
Si       1.60769848       6.22728898       0.89168759      -0.00224411      -0.05950824       0.05646259
Si       1.81721192      -0.28370209       4.54094614      -0.04430742       0.08947208      -0.04520316
Si       2.10180670      -2.21785706       5.82149673       0.01035117      -0.06779738       0.08548739
Si       1.13164386       0.30596120       7.82035288      -0.05303231      -0.02708949      -0.05646259
Si      -0.73142113      -0.56142842       6.71663871       0.07523147       0.01291949       0.03012646
Si      -2.19022978       2.30819454       1.92024240       0.00485899      -0.08109775      -0.05905122
Si       3.01244626       3.39217376       5.62394841      -0.01440191       0.08718912       0.04772991
Si      -2.03137786       0.38651102       3.08809207       0.08514859       0.02364477      -0.04772991
Si      -5.34442154       4.32155503       7.99793998      -0.07560566      -0.02973614       0.05905122
Si       2.82329263       4.42305607      -0.00000000       0.00000000       0.00000000       0.00000000
Si       3.16342343      -2.01925318       3.75294928       0.00000000       0.00000000      -0.00000000
22
Lattice="10.16077805322244 -0.3150236027846947 -1.2436812283618868 -4.563599891698043 9.08373307322775 1.2436812283619332 -3.846907816756331 -3.715199626912717 8.734184878768279" Properties=species:S:1:pos:R:3:forces:R:3 unique_starting_index=6 config_type=initial n_minim_iter=8 energy=-3573.889365100849 stress="8.713751357185905e-05 5.833419865419879e-05 -1.9952443917910394e-05 5.833419865419879e-05 0.0001412901858193934 1.2735897310969874e-05 -1.9952443917910394e-05 1.2735897310969874e-05 4.990206169845022e-05" free_energy=-3573.889365100849 pbc="T T T"
Si      -4.58922002       6.40506444       7.64669837       0.01786608      -0.11979912       0.06282911
Si       2.13892482       1.32971953       6.07085755      -0.00379972       0.11082038      -0.07951685
Si       6.12272360       2.08054264      -0.71877272      -0.01681112      -0.03024439       0.11639989
Si      -0.35992319       0.41171852       4.69266379      -0.07953208       0.09174147      -0.00210244
Si       6.61947322      -1.53027118       1.41964609       0.10211969       0.04321068       0.07951685
Si      -0.66863732       3.90250692       2.33116773      -0.11618606      -0.03423194      -0.06282911
Si       2.27525448       4.90038083       4.04152109       0.11669870      -0.03351512       0.00210244
Si      -4.53751420       2.71437772       9.45295759      -0.02035550      -0.02798197      -0.11639989
Si      -1.14696864       6.04166384       2.91069794       0.00111495      -0.04838441       0.04808248
Si       0.73568653       6.56232182       4.21748196      -0.01890868       0.05974237      -0.02697276
Si       1.57337845       4.12688569       1.99724168       0.05088766       0.12843748      -0.03763465
Si       1.58653836       6.19755853       0.89422078      -0.04125848      -0.13458392       0.02621100
Si       1.79572897      -0.28504621       4.51670291       0.06215036       0.00800136       0.02697276
Si       2.11609382      -2.21191974       5.82348694      -0.04435664      -0.01935932      -0.04808248
Si       1.10664658       0.33314999       7.83996409      -0.10470422      -0.09408569      -0.02621100
Si      -0.76602270      -0.55057451       6.73694319       0.09507504       0.10023212       0.03763465
Si      -2.18795239       2.28467794       1.88787519       0.03207627       0.12942390      -0.11039972
Si       2.93882345       3.40676111       5.66066543      -0.16104073      -0.04710425      -0.04259816
Si      -1.99408888       0.38477190       3.07351944       0.02507479      -0.16590414       0.04259816
Si      -5.41701954       4.34583235       8.08999091       0.10388968       0.08358449       0.11039972
Si       2.79858908       4.38435474      -0.00000000      -0.00000000       0.00000000       0.00000000
Si       3.15693512      -2.01511161       3.74525182      -0.00000000       0.00000000       0.00000000
22
Lattice="10.152661382734058 -0.3430948555657256 -1.255600337913321 -4.585644749618353 9.06455235864807 1.255600337913365 -3.841873866659627 -3.6851606347154617 8.742446781648958" Properties=species:S:1:pos:R:3:forces:R:3 unique_starting_index=6 config_type=initial n_minim_iter=9 energy=-3573.900509649938 stress="-0.00021186489076646304 -0.00035745270283167824 0.00014641766846991983 -0.00035745270283167824 -0.000543694580844119 -9.346024967346188e-05 0.00014641766846991983 -9.346024967346188e-05 1.6301654262908792e-05" free_energy=-3573.900509649938 pbc="T T T"
Si      -4.60079282       6.39984042       7.67225229       0.07213232      -0.06583028       0.05850747
Si       2.11498779       1.32435770       6.06588260      -0.04034286       0.04553867      -0.09622113
Si       6.08782140       2.04834108      -0.71965924      -0.00763487      -0.10317182       0.06445109
Si      -0.35959535       0.43273710       4.71301947      -0.00532552       0.11144460      -0.04907544
Si       6.62160492      -1.55227302       1.42096384       0.05829100      -0.01742057       0.09622113
Si      -0.68551435       3.90066865       2.32579482      -0.09008046       0.03771218      -0.05850747
Si       2.26905384       4.89231439       4.02942731       0.10332828       0.04208951       0.04907544
Si      -4.54699436       2.69920118       9.46210602      -0.09036789      -0.05036229      -0.06445109
Si      -1.17836321       6.03561866       2.92136192       0.07776067      -0.11060219      -0.05253026
Si       0.70836628       6.53934097       4.24069240       0.07192857       0.01505366      -0.12505464
Si       1.55753484       4.11199650       1.99513363      -0.00015875       0.03026323       0.00348803
Si       1.56949298       6.16693673       0.89956458      -0.01661934      -0.01955356       0.01641677
Si       1.79142035      -0.28946346       4.50175438      -0.01662866       0.07158086       0.12505464
Si       2.12886211      -2.21290242       5.82108486      -0.13306058       0.02396768       0.05253026
Si       1.09108132       0.33483563       7.84288220      -0.01073910      -0.02330700      -0.01641677
Si      -0.76782361      -0.54117510       6.74731315       0.02751718       0.01259733      -0.00348803
Si      -2.18346629       2.27859066       1.86006885       0.02401836      -0.09586661       0.01734801
Si       2.89171951       3.40679967       5.67598397       0.05114786       0.04788706       0.07182596
Si      -1.96918841       0.37210136       3.06646280       0.02190199       0.06655506      -0.07182596
Si      -5.44144066       4.35819691       8.13797826      -0.09706822      -0.01857551      -0.01734801
Si       2.78350832       4.36072876      -0.00000000      -0.00000000       0.00000000       0.00000000
Si       3.15539376      -2.01412774       3.74342322      -0.00000000       0.00000000       0.00000000
22
Lattice="10.151299028460286 -0.3205404945004499 -1.2782501720269595 -4.564613177034082 9.07281239296172 1.2782501720270016 -3.8708003972631055 -3.688381217470109 8.729163187573116" Properties=species:S:1:pos:R:3:forces:R:3 unique_starting_index=6 config_type=initial n_minim_iter=10 energy=-3573.909954197813 stress="0.00018390630075615925 0.00020299248840658778 -5.166197700291402e-05 0.00020299248840658778 0.00037234783157314593 3.297649334080521e-05 -5.166197700291402e-05 3.297649334080521e-05 5.433364074744739e-05" free_energy=-3573.909954197813 pbc="T T T"
Si      -4.58737257       6.40747153       7.68610332      -0.09139349      -0.04346016       0.12176313
Si       2.09460421       1.34285612       6.03602649      -0.05646817       0.13784213       0.05365361
Si       6.07739981       2.05544980      -0.72505169      -0.04840761      -0.06051441       0.05994009
Si      -0.36451431       0.45710521       4.71234521      -0.00906601       0.09720055       0.00824415
Si       6.61667691      -1.54364008       1.41488653       0.14880414       0.00681421      -0.05365361
Si      -0.69213764       3.92109381       2.32131003      -0.00094248      -0.10119618      -0.12176313
Si       2.28397065       4.92570583       4.01681798       0.09198298       0.03269970      -0.00824415
Si      -4.56508525       2.68952055       9.45421487      -0.03450936      -0.06938584      -0.05994009
Si      -1.17308509       6.04736574       2.92520182       0.07686111       0.01156225       0.04401983
Si       0.71794320       6.56148123       4.24256383      -0.06459949      -0.01938899      -0.05856649
Si       1.56431529       4.12567275       1.98955008      -0.10969418       0.02333909       0.09396876
Si       1.58570324       6.18195473       0.90120765      -0.05803716       0.08372594       0.10502051
Si       1.77854417      -0.27467585       4.48659936       0.00961062      -0.06675824       0.05856649
Si       2.10836863      -2.20638974       5.80396137      -0.02187223       0.07458499      -0.04401983
Si       1.06895212       0.35264144       7.82795553       0.10037847      -0.01739275      -0.10502051
Si      -0.78719974      -0.53248753       6.73961310       0.06735287      -0.08967228      -0.09396876
Si      -2.17241915       2.27290572       1.84410379       0.07639032      -0.10213331       0.07425272
Si       2.86838519       3.44201243       5.67507095       0.08679466      -0.00202972       0.11934291
Si      -1.95635097       0.36254048       3.05409223      -0.03838306       0.07787280      -0.11934291
Si      -5.45914320       4.37086325       8.16330957      -0.12480192       0.02629024      -0.07425272
Si       2.79334293       4.37613595      -0.00000000       0.00000000      -0.00000000      -0.00000000
Si       3.14024932      -2.00446085       3.72545651      -0.00000000       0.00000000       0.00000000
22
Lattice="10.1357596102377 -0.33408480698020643 -1.3178703338667699 -4.570356231099468 9.053014937336107 1.3178703338668096 -3.8935556521975143 -3.6503929307636414 8.723352198893421" Properties=species:S:1:pos:R:3:forces:R:3 unique_starting_index=6 config_type=initial n_minim_iter=11 energy=-3573.938935797294 stress="0.0001340567310129711 -0.00011204181895186175 -0.00011202286157237682 -0.00011204181895186175 3.0046321344746694e-05 7.150560940524904e-05 -0.00011202286157237682 7.150560940524904e-05 0.0002055744688835203" free_energy=-3573.938935797294 pbc="T T T"
Si      -4.58542613       6.40086950       7.75276377      -0.10247932      -0.01892201       0.14724458
Si       2.02530631       1.36898612       5.99121346      -0.08586634       0.13914543       0.07620065
Si       5.99789778       2.00324023      -0.72175691       0.04375296      -0.11009354       0.01566320
Si      -0.36463566       0.53667607       4.74545673       0.02406144       0.06680676      -0.09611529
Si       6.63125910      -1.57105180       1.41426841       0.16236343      -0.01930277      -0.07620065
Si      -0.72744383       3.93827060       2.28845875       0.02598223      -0.10092064      -0.14724458