1
Lattice="2.8448951605314017 1.2136444916089292e-16 -1.3031582910497294e-51 1.4224475802657006 2.463751480123603 -1.4218189479406027e-50 5.893405660200439e-50 2.9292618309155237e-49 2.648803230650536" Properties=species:S:1:pos:R:3:forces:R:3 cutoff=-1.0 nneightol=1.2 n_minim_iter=1 energy=-162.6266761408426 stress="0.09894844916609495 5.1904071233795814e-17 -6.7274403759375275e-18 5.1904071233795814e-17 0.09894844916609502 7.4749337510417e-18 -6.7274403759375275e-18 7.4749337510417e-18 0.10970035095603295" free_energy=-162.6266761408426 pbc="T T T"
Si       0.00000000       0.00000000       0.00000000       0.00000000      -0.00000000       0.00000000
