217
Lattice="16.379599968772464 8.137227733989335e-16 3.2540268102463993e-16 8.137227733989335e-16 16.379599968772464 3.0012239305659013e-16 3.2540268102463993e-16 3.001223930565902e-16 16.379599968772464" Properties=species:S:1:pos:R:3:forces:R:3 n_minim_iter=1 energy=-35403.01705668437 stress="-0.001418524633342637 0.0007747720153595272 -0.00019434521113810346 0.0007747720153595272 -0.0014185246333426388 0.00019434521113814658 -0.00019434521113810346 0.00019434521113814658 -0.005494439350723228" free_energy=-35403.01705668437 pbc="T T T"
Si      -0.00000000      -0.00000000      -0.00000000      -0.03362786       0.03362786      -0.01440865
Si       1.36496666       1.36496666       1.36496666       0.06469342      -0.07906100      -0.08201139
Si       2.72993333       2.72993333       0.00000000       0.06165387       0.02778986      -0.09432325
Si       4.09489999       4.09489999       1.36496666       0.00605467      -0.00729886       0.00819093
Si       2.72993333       0.00000000       2.72993333       0.04543809       0.06536552      -0.03351524
Si       4.09489999       1.36496666       4.09489999       0.06440023       0.01783101      -0.00695683
Si       0.00000000       2.72993333       2.72993333       0.11246641       0.03843057       0.15572037
Si       1.36496666       4.09489999       4.09489999      -0.02247699       0.00622184       0.16075610
Si       0.00000000       0.00000000       5.45986666       1.84842241      -1.84842241       6.40899099
Si       1.36496666       1.36496666       6.82483332       0.01663543       0.10713085      -0.08636882
Si       2.72993333       2.72993333       5.45986666       0.05063477       0.02310924      -0.05788624
Si       4.09489999       4.09489999       6.82483332      -0.00521587      -0.00246509      -0.01185025
Si       2.72993333       0.00000000       8.18979998      -0.00954401      -0.09262803       0.04341420
Si       4.09489999       1.36496666       9.55476665      -0.01035643       0.00810674      -0.00176199
Si       0.00000000       2.72993333       8.18979998      -0.03795252      -0.05709850       0.10064475
Si       1.36496666       4.09489999       9.55476665      -0.00168072      -0.00002068      -0.00483732
Si       0.00000000       0.00000000      10.91973331      -0.00116909       0.00116909       0.00742443
Si       1.36496666       1.36496666      12.28469998      -0.00321869      -0.00303869      -0.00044587
Si       2.72993333       2.72993333      10.91973331       0.00204186       0.00071294      -0.00597808
Si       4.09489999       4.09489999      12.28469998       0.00000177      -0.00001139       0.00011730
Si       2.72993333       0.00000000      13.64966664      -0.00617234      -0.00100738      -0.00636286
Si       4.09489999       1.36496666      15.01463330       0.00322662      -0.00287999      -0.00004021
Si       0.00000000       2.72993333      13.64966664      -0.00266019      -0.00188202      -0.00374807
Si       1.36496666       4.09489999      15.01463330      -0.00304051      -0.00978703      -0.00730634
Si       0.00000000       5.45986666       0.00000000       0.06750812       0.08012720      -0.12357793
Si       1.36496666       6.82483332       1.36496666      -0.00471299       0.00450175       0.01487430
Si       2.72993333       8.18979998       0.00000000      -0.00039654      -0.00030659      -0.00036465
Si       4.09489999       9.55476665       1.36496666      -0.00000190       0.00000066      -0.00000132
Si       2.72993333       5.45986666       2.72993333      -0.02387073      -0.02358716      -0.08224456
Si       4.09489999       6.82483332       4.09489999      -0.01107878      -0.01104102       0.01606539
Si       0.00000000       8.18979998       2.72993333      -0.00123033       0.00499788      -0.02503865
Si       1.36496666       9.55476665       4.09489999      -0.01159363      -0.00777381       0.00345160
Si       0.00000000       5.45986666       5.45986666       0.01528039       0.03286856      -0.06728423
Si       1.36496666       6.82483332       6.82483332      -0.00500653      -0.00720053      -0.01307713
Si       2.72993333       8.18979998       5.45986666       0.00312055      -0.00167324       0.00847410
Si       4.09489999       9.55476665       6.82483332       0.00117239       0.00158419       0.00047978
Si       2.72993333       5.45986666       8.18979998       0.00733956       0.00960870       0.00990111
Si       4.09489999       6.82483332       9.55476665       0.00000000      -0.00000000       0.00000000
Si       0.00000000       8.18979998       8.18979998       0.01077824       0.00506422       0.00582598
Si       1.36496666       9.55476665       9.55476665      -0.00000000      -0.00000000       0.00000000
Si       0.00000000       5.45986666      10.91973331       0.00059806       0.00041900      -0.00764409
Si       1.36496666       6.82483332      12.28469998      -0.00000824       0.00003503       0.00044693
Si       2.72993333       8.18979998      10.91973331       0.00000000       0.00000000       0.00000000
Si       4.09489999       9.55476665      12.28469998      -0.00000000      -0.00000000      -0.00000000
Si       2.72993333       5.45986666      13.64966664      -0.00039724       0.00034637       0.00036961
Si       4.09489999       6.82483332      15.01463330      -0.00010929       0.00007772      -0.00014990
Si       0.00000000       8.18979998      13.64966664       0.00055497      -0.00066046       0.00055406
Si       1.36496666       9.55476665      15.01463330       0.00004000      -0.00030438      -0.00008929
Si       0.00000000      10.91973331       0.00000000       0.00045544      -0.00553398       0.00100507
Si       1.36496666      12.28469998       1.36496666      -0.00693587      -0.03880390       0.01083857
Si       2.72993333      13.64966664       0.00000000       0.00565623      -0.00565623      -0.00434996
Si       4.09489999      15.01463330       1.36496666       0.03880390       0.00693587       0.01083857
Si       2.72993333      10.91973331       2.72993333       0.00364497      -0.00426352       0.00023500
Si       4.09489999      12.28469998       4.09489999      -0.00385246       0.00385246      -0.05636324
Si       0.00000000      13.64966664       2.72993333      -0.06536552      -0.04543809      -0.03351524
Si       1.36496666      15.01463330       4.09489999       0.14604346      -0.14604346      -0.20640975
Si       0.00000000      10.91973331       5.45986666       0.01357216      -0.00938462      -0.00012003
Si       1.36496666      12.28469998       6.82483332      -0.03552282       0.00281439       0.00419595
Si       2.72993333      13.64966664       5.45986666       0.17762775      -0.17762775       0.10449064
Si       4.09489999      15.01463330       6.82483332      -0.00281439       0.03552282       0.00419595
Si       2.72993333      10.91973331       8.18979998       0.00263402       0.00182694      -0.00320599
Si       4.09489999      12.28469998       9.55476665       0.00167212      -0.00167212       0.00127597
Si       0.00000000      13.64966664       8.18979998       0.09262803       0.00954401       0.04341420
Si       1.36496666      15.01463330       9.55476665      -0.02059975       0.02059975      -0.06523198
Si       0.00000000      10.91973331      10.91973331      -0.00000000       0.00000000       0.00000000
Si       1.36496666      12.28469998      12.28469998       0.00000000      -0.00000000       0.00000004
Si       2.72993333      13.64966664      10.91973331       0.00000095      -0.00000095       0.00002272
Si       4.09489999      15.01463330      12.28469998       0.00000000      -0.00000000       0.00000004
Si       2.72993333      10.91973331      13.64966664       0.00000006      -0.00000022       0.00000075
Si       4.09489999      12.28469998      15.01463330      -0.00000044       0.00000044       0.00000166
Si       0.00000000      13.64966664      13.64966664       0.00100738       0.00617234      -0.00636286
Si       1.36496666      15.01463330      15.01463330      -0.01836383       0.01836383       0.00987908
Si       5.45986666       0.00000000       0.00000000       0.00553398      -0.00045544       0.00100507
Si       6.82483332       1.36496666       1.36496666      -0.00364624      -0.00062429       0.00592658
Si       8.18979998       2.72993333       0.00000000      -0.00775759      -0.00395245      -0.00016162
Si       9.55476665       4.09489999       1.36496666      -0.05791560       0.00402503      -0.00130859
Si       8.18979998       0.00000000       2.72993333      -0.00499788       0.00123033      -0.02503865
Si       9.55476665       1.36496666       4.09489999      -0.02905539      -0.01555603       0.00605428
Si       5.45986666       2.72993333       2.72993333       0.00435177      -0.00100040      -0.01924824
Si       6.82483332       4.09489999       4.09489999      -0.01091108      -0.00985259       0.00284932
Si       5.45986666       0.00000000       5.45986666       0.00938462      -0.01357216      -0.00012003
Si       6.82483332       1.36496666       6.82483332       0.00107295      -0.00129302      -0.01164199
Si       8.18979998       2.72993333       5.45986666      -0.00639127       0.02396771       0.00009785
Si       9.55476665       4.09489999       6.82483332      -0.00301920      -0.05116758      -0.00338991
Si       8.18979998       0.00000000       8.18979998      -0.00506422      -0.01077824       0.00582598
Si       9.55476665       1.36496666       9.55476665       0.01317880      -0.00875524      -0.00414561
Si       5.45986666       2.72993333       8.18979998       0.00473013       0.00987998       0.00542616
Si       6.82483332       4.09489999       9.55476665      -0.00000000       0.00000000       0.00000000
Si       5.45986666       0.00000000      10.91973331       0.00000000      -0.00000000       0.00000000
Si       6.82483332       1.36496666      12.28469998      -0.00000000      -0.00000000      -0.00000000
Si       8.18979998       2.72993333      10.91973331       0.00000000       0.00000000       0.00000000
Si       9.55476665       4.09489999      12.28469998      -0.00000024       0.00000014       0.00001266
Si       8.18979998       0.00000000      13.64966664       0.00066046      -0.00055497       0.00055406
Si       9.55476665       1.36496666      15.01463330      -0.00097624       0.00937028       0.00026082
Si       5.45986666       2.72993333      13.64966664      -0.00016608       0.00012325       0.00014192
Si       6.82483332       4.09489999      15.01463330       0.00032946       0.00060571       0.00096915
Si       5.45986666       5.45986666       0.00000000       0.00075199      -0.00026571       0.00004722
Si       6.82483332       6.82483332       1.36496666       0.00020449      -0.00074365      -0.00057094
Si       8.18979998       8.18979998       0.00000000      -0.00007830       0.00007830      -0.00025874
Si       9.55476665       9.55476665       1.36496666       0.00074365      -0.00020449      -0.00057094
Si       8.18979998       5.45986666       2.72993333       0.00233842       0.00490747       0.00907548
Si       9.55476665       6.82483332       4.09489999      -0.00099021       0.00099021      -0.07942967
Si       5.45986666       8.18979998       2.72993333       0.00000000       0.00000000       0.00000000
Si       6.82483332       9.55476665       4.09489999      -0.00000000       0.00000000      -0.00000000
Si       5.45986666       5.45986666       5.45986666      -0.00230868       0.00207747       0.00750088
Si       6.82483332       6.82483332       6.82483332       0.00139737       0.00193941       0.00113886
Si       8.18979998       8.18979998       5.45986666       0.00584385      -0.00584385       0.00636534
Si       9.55476665       9.55476665       6.82483332      -0.00193941      -0.00139737       0.00113886
Si       8.18979998       5.45986666       8.18979998       0.00282993       0.00390577      -0.00456166
Si       9.55476665       6.82483332       9.55476665      -0.00255445       0.00255445       0.00212952
Si       5.45986666       8.18979998       8.18979998       0.00000000       0.00000000       0.00000000
Si       6.82483332       9.55476665       9.55476665       0.00000000       0.00000000       0.00000000
Si       5.45986666       5.45986666      10.91973331       0.00000000       0.00000000       0.00000000
Si       6.82483332       6.82483332      12.28469998      -0.00000000      -0.00000000      -0.00000000
Si       8.18979998       8.18979998      10.91973331       0.00000000       0.00000000       0.00000000
Si       9.55476665       9.55476665      12.28469998      -0.00000000      -0.00000000      -0.00000000
Si       8.18979998       5.45986666      13.64966664      -0.00014463       0.00008294       0.00017521
Si       9.55476665       6.82483332      15.01463330       0.00028787      -0.00028787       0.00084108
Si       5.45986666       8.18979998      13.64966664       0.00000000       0.00000000      -0.00000000
Si       6.82483332       9.55476665      15.01463330      -0.00000000       0.00000000       0.00000000
Si       5.45986666      10.91973331       0.00000000      -0.00000028       0.00000028      -0.00000034
Si       6.82483332      12.28469998       1.36496666      -0.00000066       0.00000190      -0.00000132
Si       8.18979998      13.64966664       0.00000000       0.00030659       0.00039654      -0.00036465
Si       9.55476665      15.01463330       1.36496666      -0.00450175       0.00471299       0.01487430
Si       8.18979998      10.91973331       2.72993333       0.00000000       0.00000000      -0.00000000
Si       9.55476665      12.28469998       4.09489999       0.01104102       0.01107878       0.01606539
Si       5.45986666      13.64966664       2.72993333       0.00426352      -0.00364497       0.00023500
Si       6.82483332      15.01463330       4.09489999       0.00777381       0.01159363       0.00345160
Si       5.45986666      10.91973331       5.45986666      -0.00473929       0.00473929       0.00452055
Si       6.82483332      12.28469998       6.82483332      -0.00158419      -0.00117239       0.00047978
Si       8.18979998      13.64966664       5.45986666       0.00167324      -0.00312055       0.00847410
Si       9.55476665      15.01463330       6.82483332       0.00720053       0.00500653      -0.01307713
Si       8.18979998      10.91973331       8.18979998      -0.00000000       0.00000000       0.00000000
Si       9.55476665      12.28469998       9.55476665      -0.00000000      -0.00000000       0.00000000
Si       5.45986666      13.64966664       8.18979998      -0.00182694      -0.00263402      -0.00320599
Si       6.82483332      15.01463330       9.55476665      -0.00000000       0.00000000       0.00000000
Si       5.45986666      10.91973331      10.91973331      -0.00000000       0.00000000       0.00000000
Si       6.82483332      12.28469998      12.28469998      -0.00000000      -0.00000000      -0.00000000
Si       8.18979998      13.64966664      10.91973331       0.00000000      -0.00000000       0.00000000
Si       9.55476665      15.01463330      12.28469998      -0.00003503       0.00000824       0.00044693
Si       8.18979998      10.91973331      13.64966664       0.00000000       0.00000000      -0.00000000
Si       9.55476665      12.28469998      15.01463330      -0.00007772       0.00010929      -0.00014990
Si       5.45986666      13.64966664      13.64966664       0.00000022      -0.00000006       0.00000075
Si       6.82483332      15.01463330      15.01463330       0.00030438      -0.00004000      -0.00008929
Si      10.91973331       0.00000000       0.00000000      -0.08012720      -0.06750812      -0.12357793
Si      12.28469998       1.36496666       1.36496666      -0.05439754       0.11419478      -0.05787021
Si      13.64966664       2.72993333       0.00000000       0.02459743      -0.02459743      -0.02768300
Si      15.01463330       4.09489999       1.36496666      -0.11419478       0.05439754      -0.05787021
Si      13.64966664       0.00000000       2.72993333      -0.03843057      -0.11246641       0.15572037
Si      14.01463330       2.36496666       3.59489999       1.70651883      -1.70651883      -5.44336493
Si      10.91973331       2.72993333       2.72993333      -0.12445425      -0.03734488      -0.01917221
Si      12.28469998       4.09489999       4.09489999      -0.41208047       0.41208047      -0.25553501
Si      10.91973331       0.00000000       5.45986666      -0.03286856      -0.01528039      -0.06728423
Si      12.28469998       1.36496666       6.82483332      -0.04510577      -0.11657488      -0.12593296
Si      13.64966664       2.72993333       5.45986666      -1.25631897       1.25631897       6.10407793
Si      15.01463330       4.09489999       6.82483332       0.11657488       0.04510577      -0.12593296
Si      13.64966664       0.00000000       8.18979998       0.05709850       0.03795252       0.10064475
Si      15.01463330       1.36496666       9.55476665      -0.00077016       0.00077016       0.01972150
Si      10.91973331       2.72993333       8.18979998       0.01994401       0.09890464       0.03031703
Si      12.28469998       4.09489999       9.55476665       0.01673050      -0.01673050      -0.04354059
Si      10.91973331       0.00000000      10.91973331      -0.00041900      -0.00059806      -0.00764409
Si      12.28469998       1.36496666      12.28469998       0.00291424       0.00204559      -0.00267701
Si      13.64966664       2.72993333      10.91973331       0.00024667      -0.00024667       0.00917163
Si      15.01463330       4.09489999      12.28469998      -0.00204559      -0.00291424      -0.00267701
Si      13.64966664       0.00000000      13.64966664       0.00188202       0.00266019      -0.00374807
Si      15.01463330       1.36496666      15.01463330      -0.00433768       0.00433768       0.00830458
Si      10.91973331       2.72993333      13.64966664       0.00605239       0.00256556      -0.00773057
Si      12.28469998       4.09489999      15.01463330       0.02512943      -0.02512943       0.00791637
Si      10.91973331       5.45986666       0.00000000      -0.00453710       0.00453710      -0.00419939
Si      12.28469998       6.82483332       1.36496666      -0.00402503       0.05791560      -0.00130859
Si      13.64966664       8.18979998       0.00000000       0.00395245       0.00775759      -0.00016162
Si      15.01463330       9.55476665       1.36496666       0.00062429       0.00364624       0.00592658
Si      13.64966664       5.45986666       2.72993333       0.03734488       0.12445425      -0.01917221
Si      15.01463330       6.82483332       4.09489999       0.01555603       0.02905539       0.00605428
Si      10.91973331       8.18979998       2.72993333      -0.00490747      -0.00233842       0.00907548
Si      12.28469998       9.55476665       4.09489999       0.00985259       0.01091108       0.00284932
Si      10.91973331       5.45986666       5.45986666      -0.18062433       0.18062433       0.17110054
Si      12.28469998       6.82483332       6.82483332       0.05116758       0.00301920      -0.00338991
Si      13.64966664       8.18979998       5.45986666      -0.02396771       0.00639127       0.00009785
Si      15.01463330       9.55476665       6.82483332       0.00129302      -0.00107295      -0.01164199
Si      13.64966664       5.45986666       8.18979998      -0.09890464      -0.01994401       0.03031703
Si      15.01463330       6.82483332       9.55476665       0.00875524      -0.01317880      -0.00414561
Si      10.91973331       8.18979998       8.18979998      -0.00390577      -0.00282993      -0.00456166
Si      12.28469998       9.55476665       9.55476665      -0.00000000      -0.00000000       0.00000000
Si      10.91973331       5.45986666      10.91973331      -0.00000112       0.00000112       0.00003288
Si      12.28469998       6.82483332      12.28469998      -0.00000014       0.00000024       0.00001266
Si      13.64966664       8.18979998      10.91973331      -0.00000000      -0.00000000       0.00000000
Si      15.01463330       9.55476665      12.28469998       0.00000000      -0.00000000      -0.00000000
Si      13.64966664       5.45986666      13.64966664      -0.00256556      -0.00605239      -0.00773057
Si      15.01463330       6.82483332      15.01463330      -0.00937028       0.00097624       0.00026082
Si      10.91973331       8.18979998      13.64966664      -0.00008294       0.00014463       0.00017521
Si      12.28469998       9.55476665      15.01463330      -0.00060571      -0.00032946       0.00096915
Si      10.91973331      10.91973331       0.00000000       0.00026571      -0.00075199       0.00004722
Si      12.28469998      12.28469998       1.36496666       0.00729886      -0.00605467       0.00819093
Si      13.64966664      13.64966664       0.00000000      -0.02778986      -0.06165387      -0.09432325
Si      15.01463330      15.01463330       1.36496666       0.07906100      -0.06469342      -0.08201139
Si      13.64966664      10.91973331       2.72993333       0.00100040      -0.00435177      -0.01924824
Si      15.01463330      12.28469998       4.09489999      -0.01783101      -0.06440023      -0.00695683
Si      10.91973331      13.64966664       2.72993333       0.02358716       0.02387073      -0.08224456
Si      12.28469998      15.01463330       4.09489999      -0.00622184       0.02247699       0.16075610
Si      10.91973331      10.91973331       5.45986666      -0.00207747       0.00230868       0.00750088
Si      12.28469998      12.28469998       6.82483332       0.00246509       0.00521587      -0.01185025
Si      13.64966664      13.64966664       5.45986666      -0.02310924      -0.05063477      -0.05788624
Si      15.01463330      15.01463330       6.82483332      -0.10713085      -0.01663543      -0.08636882
Si      13.64966664      10.91973331       8.18979998      -0.00987998      -0.00473013       0.00542616
Si      15.01463330      12.28469998       9.55476665      -0.00810674       0.01035643      -0.00176199
Si      10.91973331      13.64966664       8.18979998      -0.00960870      -0.00733956       0.00990111
Si      12.28469998      15.01463330       9.55476665       0.00002068       0.00168072      -0.00483732
Si      10.91973331      10.91973331      10.91973331       0.00000000       0.00000000       0.00000000
Si      12.28469998      12.28469998      12.28469998       0.00001139      -0.00000177       0.00011730
Si      13.64966664      13.64966664      10.91973331      -0.00071294      -0.00204186      -0.00597808
Si      15.01463330      15.01463330      12.28469998       0.00303869       0.00321869      -0.00044587
Si      13.64966664      10.91973331      13.64966664      -0.00012325       0.00016608       0.00014192
Si      15.01463330      12.28469998      15.01463330       0.00287999      -0.00322662      -0.00004021
Si      10.91973331      13.64966664      13.64966664      -0.00034637       0.00039724       0.00036961
Si      12.28469998      15.01463330      15.01463330       0.00978703       0.00304051      -0.00730634
Si      -0.50000000       0.50000000       3.72000000      -1.97601667       1.97601667      -5.92739861
217
Lattice="16.379599968772464 8.137227733989335e-16 3.2540268102463993e-16 8.137227733989335e-16 16.379599968772464 3.0012239305659013e-16 3.2540268102463993e-16 3.001223930565902e-16 16.379599968772464" Properties=species:S:1:pos:R:3:forces:R:3 n_minim_iter=2 energy=-35405.15800247752 stress="-0.0014968991344321792 0.0005241443456773046 -9.89801158670769e-05 0.0005241443456773046 -0.0014968991344321808 9.898011586694328e-05 -9.89801158670769e-05 9.898011586694328e-05 -0.0031513689704419476" free_energy=-35405.15800247752 pbc="T T T"
Si      -0.00101797       0.00101797      -0.01221155      -0.02371959       0.02371959       0.03303649
Si       1.36675396       1.36471950       1.34834680       0.06279850      -0.09972929      -0.01974376
Si       2.73224068       2.73088396      -0.00846545       0.08211058       0.05906744      -0.08450946
Si       4.09569812       4.09514294       1.36128279      -0.00716497      -0.02019537       0.01754876
Si       2.73334399       0.00040651       2.72347772      -0.00319970       0.06378669       0.06256971
Si       4.09858722       1.36486824       4.09424270      -0.03192060      -0.01683598       0.00189998
Si       0.00227062       2.73197245       2.70787842       0.22800127       0.15870865       0.12748783
Si       1.36563917       4.09605660       4.09401467      -0.05352654      -0.04758824       0.16538953
Si       0.03329002      -0.03329002       5.57024577       0.93025135      -0.93025135       2.15231630
Si       1.37110584       1.36219386       6.84392696       0.25698755       0.38694346       0.14795680
Si       2.73359106       2.72979246       5.46283009      -0.05657780      -0.08757617      -0.07758611
Si       4.09575712       4.09492959       6.82720929      -0.00613812       0.00562908      -0.00087982
Si       2.73296448      -0.00465368       8.20024724       0.02030020      -0.06495576      -0.00470942
Si       4.09577305       1.36411307       9.55874983       0.00673290       0.01281450       0.00339311
Si       0.00046731       2.72847070       8.20732933      -0.04024091      -0.05486329      -0.02531360
Si       1.36541711       4.09476510       9.56035597       0.02352314       0.02436661       0.00428226
Si       0.00083229      -0.00083229      10.92459046       0.01337213      -0.01337213       0.00589574
Si       1.36538354       1.36458929      12.28544217       0.00361516      -0.00018917       0.00026770
Si       2.73055542       2.72957962      10.92234109       0.00783752      -0.00173460      -0.00679608
Si       4.09518572       4.09498511      12.28488499       0.00431238       0.00200196       0.00142704
Si       2.73028014      -0.00022855      13.64792724       0.00002095      -0.00396240      -0.00186511
Si       4.09570754       1.36500096      15.01145785       0.01446883      -0.02228801      -0.00278100
Si       0.00017328       2.73010618      13.64678729       0.00429113       0.00463723      -0.00273789
Si       1.36564734       4.09547441      15.00933741      -0.00712497      -0.01712794      -0.00219267
Si       0.00160036       5.46282441      -0.00938116       0.09226226       0.09600559      -0.10520124
Si       1.36518948       6.82583158       1.36123651      -0.01793743      -0.00755186       0.02483879
Si       2.73016279       8.18994762      -0.00202999       0.00575832       0.00618243       0.00039292
Si       4.09520795       9.55443191       1.36377353       0.00150865      -0.00319242      -0.00241570
Si       2.72988827       5.45995949       2.72539432      -0.01806254      -0.01865035      -0.06047120
Si       4.09472426       6.82475752       4.09471019      -0.01478285      -0.01512477       0.00371655
Si      -0.00002318       8.19069998       2.72744607       0.00545385       0.00376699      -0.01366689
Si       1.36525997       9.55392959       4.09484527      -0.00393986      -0.00722503       0.00014097
Si       0.00006448       5.46265859       5.46231321      -0.07582872      -0.03271798      -0.07614464
Si       1.36510065       6.82533715       6.82705606       0.00208072      -0.00854835      -0.00345978
Si       2.73030234       8.18962167       5.46083294       0.00280201      -0.00397400       0.00727064
Si       4.09553081       9.55425790       6.82633552      -0.00246813       0.00379158      -0.00717140
Si       2.73056656       5.46024514       8.19316182      -0.00805024      -0.00506722      -0.00344006
Si       4.09513364       6.82495989       9.55637521       0.00407762       0.00437175       0.00078174
Si       0.00025411       8.19011047       8.19252214       0.00128644      -0.00206617      -0.00007964
Si       1.36551688       9.55438524       9.55675533      -0.00194740       0.00270475      -0.00065585
Si      -0.00003379       5.46011330      10.92217436      -0.00144853       0.00649338      -0.00923011
Si       1.36515822       6.82502699      12.28483612       0.00078485       0.00421543       0.00190784
Si       2.73023363       8.18975019      10.92074674       0.00038522      -0.00185660      -0.00016882
Si       4.09516313       9.55461296      12.28493339      -0.00061115       0.00040266      -0.00097660
Si       2.73027220       5.46017850      13.64815310       0.00781177       0.00763311      -0.00525511
Si       4.09506449       6.82508060      15.01305001      -0.00325882      -0.00249078       0.00278459
Si       0.00011889       8.19004828      13.64853315       0.00357550       0.00460178      -0.00211473
Si       1.36518978       9.55462170      15.01307859      -0.00029937      -0.00350893      -0.00025388
Si       0.00012514      10.91892452      -0.00251767      -0.00420801      -0.00081943       0.00049668
Si       1.36545423      12.28229847       1.36225478       0.00420123      -0.03294167       0.01251843
Si       2.73083953      13.64876044      -0.00297525      -0.00688534       0.00688534       0.00825103
Si       4.09730150      15.01414574       1.36225478       0.03294167      -0.00420123       0.01251843
Si       2.73089390      10.91829728       2.72905657      -0.00673625       0.00096285       0.00507120
Si       4.09693656      12.28266341       4.09462415       0.00394192      -0.00394192      -0.03353687
Si      -0.00040651      13.64625598       2.72347772      -0.06378669       0.00319970       0.06256971
Si       1.37214337      15.00745660       4.09477596       0.14765898      -0.14765898       0.04584565
Si       0.00113657      10.91777820       5.46154574       0.01496380       0.00789526      -0.00167606
Si       1.36719674      12.28159804       6.83041931      -0.04754901       0.00684446      -0.02744201