2
Lattice="2.412821781441549 1.4702279051247048e-16 -7.389103017132436e-50 -1.206410890720775 2.089564957532806 -3.3541489265783903e-49 1.400989667801453e-49 8.152223476853282e-49 4.574761480802511" Properties=species:S:1:pos:R:3:forces:R:3 n_minim_iter=1 energy=-324.8200683912946 stress="-0.13188556612511587 -2.8411966004955563e-16 -8.344029711246514e-17 -2.8411966004955563e-16 -0.1318855661251157 7.287228767820909e-18 -8.344029711246514e-17 7.287228767820909e-18 -0.18446077727992635" free_energy=-324.8200683912946 pbc="T T T"
Si      -0.00000000       0.00000000       0.00000000       0.00000000       0.00000000       0.00000000
Si      -0.00000000       1.39304331       2.28738074      -0.00000000      -0.00000000      -0.00000000
2
Lattice="2.3989291905107426 1.4228711351368867e-16 -7.118643312314511e-50 -1.1994645952553717 2.0775336208623427 -3.2315842867401502e-49 1.4667325880272593e-49 6.864283862877397e-49 4.627901289718282" Properties=species:S:1:pos:R:3:forces:R:3 n_minim_iter=2 energy=-324.8279200195085 stress="-0.13576924520932118 -5.216226791118635e-16 -4.469641331322373e-17 -5.216226791118635e-16 -0.13576924520932193 9.185715798044205e-17 -4.469641331322373e-17 9.185715798044205e-17 -0.14116089271163976" free_energy=-324.8279200195085 pbc="T T T"
Si      -0.00000000       0.00000000      -0.00000000       0.00000000      -0.00000000      -0.00000000
Si      -0.00000000       1.38502241       2.31395064      -0.00000000      -0.00000000       0.00000000
