2
Lattice="2.7433701325498965 1.5838903776412493e-16 1.76637135516998e-50 -1.3716850662749485 2.3758282267716933 2.1273077511743608e-49 -3.061725261179899e-50 -4.4345554310460026e-49 4.755198056745088" Properties=species:S:1:pos:R:3:forces:R:3 n_minim_iter=1 energy=-325.2223652693806 stress="0.019423647745381557 -7.277547605974267e-18 -5.1315306150786993e-17 -7.277547605974267e-18 0.019423647745381682 -6.469567911137746e-17 -5.1315306150786993e-17 -6.469567911137746e-17 0.022736343783810904" free_energy=-325.2223652693806 pbc="T T T"
Si       0.00000000       0.00000000       0.00000000      -0.00000000      -0.00000000       0.00000000
Si      -0.00000000       1.58388548       2.37759903       0.00000000       0.00000000      -0.00000000
