2
Lattice="2.472283183738193 1.4932780105254952e-16 -7.104699365587747e-50 -1.236141591869097 2.1410600424663455 -3.343508293288494e-49 1.0653513372655914e-49 7.232637847687346e-49 4.629685120275179" Properties=species:S:1:pos:R:3:forces:R:3 n_minim_iter=2 energy=-324.991403401373 stress="-0.10023247962608212 -2.4970010781915643e-16 -2.827928931927796e-17 -2.4970010781915643e-16 -0.10023247962608224 -1.5573075469940315e-18 -2.827928931927796e-17 -1.5573075469940315e-18 -0.09919810051537833" free_energy=-324.991403401373 pbc="T T T"
Si      -0.00000000      -0.00000000       0.00000000      -0.00000000      -0.00000000       0.00000000
Si       0.00000000       1.42737336       2.31484256       0.00000000       0.00000000      -0.00000000
