2
Lattice="2.655521304050601 1.533170676170358e-16 1.7098082059232648e-50 -1.3277606520253007 2.2997489095986 2.059186613752617e-49 -2.9636819916297757e-50 -4.2925510784760184e-49 4.60292601236772" Properties=species:S:1:pos:R:3:forces:R:3 n_minim_iter=1 energy=-325.2337450076192 stress="-0.005135698979254108 1.756926059835991e-17 -2.1179382639118785e-17 1.756926059835991e-17 -0.005135698979254303 9.912793436917101e-18 -2.1179382639118785e-17 9.912793436917101e-18 -0.004483430530651416" free_energy=-325.2337450076192 pbc="T T T"
Si       0.00000000       0.00000000       0.00000000       0.00000000      -0.00000000      -0.00000000
Si      -0.00000000       1.53316594       2.30146301      -0.00000000       0.00000000       0.00000000
