2
Lattice="2.789798684848095 1.19132255916303e-16 1.939738923789958e-49 -1.3948993424240477 2.4160365325228677 -1.263617285536914e-48 -2.0013386974186638e-49 -9.056792648865084e-49 5.346791399705327" Properties=species:S:1:pos:R:3:forces:R:3 n_minim_iter=2 energy=-324.9938323946074 stress="0.05923915850954988 -1.2279326669248285e-19 2.164538308621676e-17 -1.2279326669248285e-19 0.05923915850954993 -4.145500683538096e-17 2.164538308621676e-17 -4.145500683538096e-17 0.06447082905947837" free_energy=-324.9938323946074 pbc="T T T"
Si      -0.00000000       0.00000000      -0.00000000       0.00000000      -0.00000000      -0.00000000
Si       0.00000000       1.61069102       2.67339570      -0.00000000       0.00000000       0.00000000
