2
Lattice="2.373675428834968 1.4078924318536793e-16 -7.043704659529282e-50 -1.1868377144174844 2.055663221710004 -3.197565083615969e-49 1.4512921509494787e-49 6.792022876836762e-49 4.579182921251277" Properties=species:S:1:pos:R:3:forces:R:3 n_minim_iter=2 energy=-324.8279200195085 stress="-0.13576924520932118 -5.216226791118635e-16 -4.469641331322373e-17 -5.216226791118635e-16 -0.13576924520932193 9.185715798044205e-17 -4.469641331322373e-17 9.185715798044205e-17 -0.14116089271163976" free_energy=-324.8279200195085 pbc="T T T"
Si      -0.00000000       0.00000000      -0.00000000       0.00000000      -0.00000000      -0.00000000
Si      -0.00000000       1.37044215       2.28959146      -0.00000000      -0.00000000       0.00000000
