2
Lattice="2.8259265750483293 1.6315545091902878e-16 1.819526900418421e-50 -1.412963287524165 2.447324203221405 2.191324982372053e-49 -3.153861988365038e-50 -4.568004839168326e-49 4.898296587374435" Properties=species:S:1:pos:R:3:forces:R:3 n_minim_iter=1 energy=-325.0711913521205 stress="0.06286115023812511 9.367114529160554e-17 4.409597648721269e-17 9.367114529160554e-17 0.06286115023812511 -3.183820395520335e-17 4.409597648721269e-17 -3.183820395520335e-17 0.053369206034843596" free_energy=-325.0711913521205 pbc="T T T"
Si       0.00000000       0.00000000       0.00000000       0.00000000       0.00000000       0.00000000
Si       0.00000000       1.63154947       2.44914829      -0.00000000      -0.00000000      -0.00000000
