2
Lattice="2.8458281221214 1.6430447082469906e-16 1.8323408923243418e-50 -1.4229140610607003 2.4645594485612965 2.206757356898036e-49 -3.1760730158480657e-50 -4.6001749472452394e-49 4.932792770315716" Properties=species:S:1:pos:R:3:forces:R:3 n_minim_iter=1 energy=-325.0711913521205 stress="0.06286115023812511 9.367114529160554e-17 4.409597648721269e-17 9.367114529160554e-17 0.06286115023812511 -3.183820395520335e-17 4.409597648721269e-17 -3.183820395520335e-17 0.053369206034843596" free_energy=-325.0711913521205 pbc="T T T"
Si       0.00000000       0.00000000       0.00000000       0.00000000       0.00000000       0.00000000
Si       0.00000000       1.64303963       2.46639639      -0.00000000      -0.00000000      -0.00000000
