2
Lattice="4.576937783417215 -4.3758136696559334e-17 -1.3714692246135716e-16 -4.3758136696559926e-17 4.576937783417217 2.723413575181426e-16 2.2884688917086073 2.2884688917086087 1.2442484606391138" Properties=species:S:1:pos:R:3:forces:R:3 cutoff=-1.0 nneightol=1.2 n_minim_iter=2 energy=-325.502156691822 stress="-0.121079275109659 1.2962785744135728e-16 8.704896703091857e-17 1.2962785744135728e-16 -0.12107927510965875 -3.2170320587514473e-16 8.704896703091857e-17 -3.2170320587514473e-16 -0.12134014565811277" free_energy=-325.502156691822 pbc="T T T"
Si      -0.00000000      -1.14423444      -0.31106212      -0.00000000      -0.00000000       0.00000000
Si      -0.00000000       1.14423445       0.31106212       0.00000000       0.00000000      -0.00000000
