2
Lattice="4.5769377834172165 -4.3758136696559347e-17 -1.3714692246135724e-16 -4.3758136696559914e-17 4.576937783417217 2.723413575181426e-16 2.2884688917086082 2.2884688917086087 1.2442484606391135" Properties=species:S:1:pos:R:3:forces:R:3 cutoff=-1.0 nneightol=1.2 n_minim_iter=1 energy=-325.3958334985699 stress="-0.1579685334642057 -1.007292310152895e-16 9.015175705606327e-18 -1.007292310152895e-16 -0.15796853346420556 -2.0717497336243694e-16 9.015175705606327e-18 -2.0717497336243694e-16 -0.15473267892799733" free_energy=-325.3958334985699 pbc="T T T"
Si      -0.00000000      -1.14423444      -0.31106212       0.00000000      -0.00000000       0.00000000
Si      -0.00000000       1.14423445       0.31106212      -0.00000000       0.00000000      -0.00000000
