2
Lattice="4.9637343253196065 -2.7978023727769424e-17 1.2179352600100267e-16 -2.797802372777003e-17 4.9637343253196065 -2.9395846887308456e-16 2.4818671626598032 2.4818671626598032 1.3690327329797898" Properties=species:S:1:pos:R:3:forces:R:3 cutoff=-1.0 nneightol=1.2 n_minim_iter=1 energy=-325.6720435601127 stress="0.03676504952733179 -2.2964731011275772e-17 1.7042381078056646e-19 -2.2964731011275772e-17 0.036765049527331714 -7.103269054662501e-17 1.7042381078056646e-19 -7.103269054662501e-17 0.029819372304584316" free_energy=-325.6720435601127 pbc="T T T"
Si      -0.00000000      -1.24093358      -0.34225818      -0.00000000       0.00000000       0.00000000
Si      -0.00000000       1.24093358       0.34225818       0.00000000      -0.00000000      -0.00000000
