2
Lattice="4.621376851776362 -4.4182999545902124e-17 -1.384785292585019e-16 -4.418299954590272e-17 4.621376851776365 2.7498561373845237e-16 2.310688425888181 2.3106884258881824 1.2563292983115069" Properties=species:S:1:pos:R:3:forces:R:3 cutoff=-1.0 nneightol=1.2 n_minim_iter=2 energy=-325.502156691822 stress="-0.121079275109659 1.2962785744135728e-16 8.704896703091857e-17 1.2962785744135728e-16 -0.12107927510965875 -3.2170320587514473e-16 8.704896703091857e-17 -3.2170320587514473e-16 -0.12134014565811277" free_energy=-325.502156691822 pbc="T T T"
Si      -0.00000000      -1.15534421      -0.31408232      -0.00000000      -0.00000000       0.00000000
Si      -0.00000000       1.15534421       0.31408232       0.00000000       0.00000000      -0.00000000
