2
Lattice="5.004589503902214 -3.070699360018033e-17 6.449928954078812e-15 -3.070699360005878e-17 5.004589503902214 -1.2003647184986491e-14 2.5022947519511054 2.5022947519511103 1.5304223369304009" Properties=species:S:1:pos:R:3:forces:R:3 cutoff=-1.0 nneightol=1.2 n_minim_iter=1 energy=-325.4717715909247 stress="0.07130644602897222 -3.9787976422372785e-18 5.121135280900708e-17 -3.9787976422372785e-18 0.07130644602897247 -5.1688636868354957e-17 5.121135280900708e-17 -5.1688636868354957e-17 0.06715189153193316" free_energy=-325.4717715909247 pbc="T T T"
Si      -0.00000000      -1.25114737      -0.38260558      -0.00000000      -0.00000000      -0.00000000
Si      -0.00000000       1.25114738       0.38260558       0.00000000       0.00000000       0.00000000
