2
Lattice="2.9587696590998886 -1.693597601364385e-16 2.9587696590998886 2.9587696590998886 2.9587696590998886 -5.729014011042869e-18 -1.115030778347745e-16 2.9587696590998886 2.9587696590998886" Properties=species:S:1:pos:R:3:forces:R:3 n_minim_iter=1 energy=-325.9026157223977 stress="0.07466429334139908 -1.5605954555145437e-16 2.988898067541104e-17 -1.5605954555145437e-16 0.07466429334139908 4.6986993913624456e-17 2.988898067541104e-17 4.6986993913624456e-17 0.07466429334139908" free_energy=-325.9026157223977 pbc="T T T"
Si       0.00000000       0.00000000       0.00000000      -0.00000000       0.00000000      -0.00000000
Si       1.47938483       1.47938483       1.47938483       0.00000000      -0.00000000       0.00000000
