2
Lattice="2.8353415394172186 -1.6229474354102427e-16 2.8353415394172186 2.8353415394172186 2.8353415394172186 -5.490022298780343e-18 -1.068516122522311e-16 2.8353415394172186 2.8353415394172186" Properties=species:S:1:pos:R:3:forces:R:3 n_minim_iter=1 energy=-326.2711476963378 stress="0.04014082482800497 -2.4584483682659553e-16 5.5924098275744366e-18 -2.4584483682659553e-16 0.04014082482800504 -3.8247044970093495e-17 5.5924098275744366e-18 -3.8247044970093495e-17 0.040140824828004906" free_energy=-326.2711476963378 pbc="T T T"
Si       0.00000000       0.00000000       0.00000000      -0.00000000      -0.00000000      -0.00000000
Si       1.41767077       1.41767077       1.41767077       0.00000000       0.00000000       0.00000000
