2
Lattice="2.813696866774125 -1.6105580405285158e-16 2.813696866774125 2.813696866774125 2.813696866774125 -5.448112097202013e-18 -1.0603591927964421e-16 2.813696866774125 2.813696866774125" Properties=species:S:1:pos:R:3:forces:R:3 n_minim_iter=1 energy=-326.3082673208542 stress="0.03130268759407547 -1.8913511876970362e-16 -1.4678536406823816e-16 -1.8913511876970362e-16 0.031302687594075194 4.722137393680525e-17 -1.4678536406823816e-16 4.722137393680525e-17 0.031302687594075077" free_energy=-326.3082673208542 pbc="T T T"
Si       0.00000000       0.00000000       0.00000000       0.00000000       0.00000000      -0.00000000
Si       1.40684843       1.40684843       1.40684843      -0.00000000      -0.00000000       0.00000000
