2
Lattice="2.9187813833739176 -1.6707083414167868e-16 2.9187813833739176 2.9187813833739176 2.9187813833739176 -5.651585411216943e-18 -1.0999609475245239e-16 2.9187813833739176 2.9187813833739176" Properties=species:S:1:pos:R:3:forces:R:3 n_minim_iter=1 energy=-326.0479044072719 stress="0.06539923521105996 -2.7900867646162605e-16 3.8882014477633334e-17 -2.7900867646162605e-16 0.06539923521105993 5.283468335049251e-17 3.8882014477633334e-17 5.283468335049251e-17 0.06539923521105996" free_energy=-326.0479044072719 pbc="T T T"
Si       0.00000000       0.00000000       0.00000000      -0.00000000       0.00000000      -0.00000000
Si       1.45939069       1.45939069       1.45939069       0.00000000      -0.00000000       0.00000000
