4
Lattice="4.308869380063768 0.0 0.0 0.0 4.308869380063768 0.0 0.0 0.0 4.308869380063768" Properties=species:S:1:pos:R:3 n_minim_iter=1 stress="0.06889095111236496 9.98976202798212e-19 6.168994353115364e-36 9.98976202798212e-19 0.06889095111236497 1.9259299443872354e-35 6.168994353115364e-36 1.9259299443872354e-35 0.06889095111236496" pbc="T T T"
Al       0.00000000       0.00000000       0.00000000
Al       2.15443469       2.15443469       0.00000000
Al       2.15443469       0.00000000       2.15443469
Al       0.00000000       2.15443469       2.15443469
