4
Lattice="4.190758212686589 0.0 0.0 0.0 4.190758212686589 0.0 0.0 0.0 4.190758212686589" Properties=species:S:1:pos:R:3 n_minim_iter=1 stress="0.04601221574050568 6.3920116752935335e-21 2.6749027005378274e-36 6.3920116752935335e-21 0.04601221574050569 -2.168404344971009e-19 2.6749027005378274e-36 -2.168404344971009e-19 0.04601221574050568" pbc="T T T"
Al       0.00000000       0.00000000       0.00000000
Al       2.09537911       2.09537911       0.00000000
Al       2.09537911       0.00000000       2.09537911
Al       0.00000000       2.09537911       2.09537911
