4
Lattice="1.9726732733455572 -3.416770336167713 6.82626232561775e-36 1.9726732733455572 3.416770336167713 -6.826262325615976e-36 -2.9167211286474156e-48 1.295833739883949e-35 6.4860769654653465" Properties=species:S:1:pos:R:3:forces:R:3 cutoff=-1.0 nneightol=1.2 n_minim_iter=1 energy=-652.5526646392084 stress="0.03132426651254888 1.3850951533782016e-16 3.7404196997982704e-17 1.3850951533782016e-16 0.03132426651254898 -7.571298833057787e-17 3.7404196997982704e-17 -7.571298833057787e-17 0.03153423407983114" free_energy=-652.5526646392084 pbc="T T T"
Si       1.97267327       1.13892345       0.40660136       0.00000000       0.00000000       0.01870334
Si       1.97267327      -1.13892345       3.64963984      -0.00000000       0.00000000       0.01870334
Si       1.97267327       1.13892345       2.83643712       0.00000000      -0.00000000      -0.01870334
Si       1.97267327      -1.13892345      -0.40660136      -0.00000000      -0.00000000      -0.01870334
4
Lattice="1.972845734030953 -3.4170690468371276 -1.624621422560779e-19 1.972845734030953 3.4170690468371276 1.6246214225609563e-19 1.22015641210416e-35 3.0840292292786847e-19 6.484943025423764" Properties=species:S:1:pos:R:3:forces:R:3 cutoff=-1.0 nneightol=1.2 n_minim_iter=2 energy=-652.5526802284627 stress="0.031457566369812624 -3.6330364678772504e-17 2.8733890976245793e-17 -3.6330364678772504e-17 0.03145756636981242 -7.490119811793923e-17 2.8733890976245793e-17 -7.490119811793923e-17 0.031221720960107186" free_energy=-652.5526802284627 pbc="T T T"
Si       1.97284573       1.13902302       0.40679742       0.00000000       0.00000000       0.01083587
Si       1.97284573      -1.13902302       3.64926893       0.00000000      -0.00000000       0.01083587
Si       1.97284573       1.13902302       2.83567410      -0.00000000       0.00000000      -0.01083587
Si       1.97284573      -1.13902302      -0.40679742      -0.00000000      -0.00000000      -0.01083587
4
Lattice="1.9726889244062253 -3.4167974445999834 -1.7918378802916295e-19 1.9726889244062253 3.4167974445999834 1.791837880291885e-19 4.751673320224419e-34 3.4006602668537125e-19 6.485974046469721" Properties=species:S:1:pos:R:3:forces:R:3 cutoff=-1.0 nneightol=1.2 n_minim_iter=3 energy=-652.5526959330574 stress="0.031437688063089206 4.9954251433312196e-17 3.6755529411401804e-17 4.9954251433312196e-17 0.031437688063089206 -9.258952037120262e-17 3.6755529411401804e-17 -9.258952037120262e-17 0.03121949315355867" free_energy=-652.5526959330574 pbc="T T T"
Si       1.97268892       1.13893248       0.40731226       0.00000000       0.00000000       0.00310088
Si       1.97268892      -1.13893248       3.65029928      -0.00000000       0.00000000       0.00310088
Si       1.97268892       1.13893248       2.83567477       0.00000000      -0.00000000      -0.00310088
Si       1.97268892      -1.13893248      -0.40731226      -0.00000000      -0.00000000      -0.00310088
