4
Lattice="2.058166892707659 -3.564849628625828 1.0234834460659585e-18 2.0581668927076584 3.564849628625828 -1.0234834460658969e-18 -1.0177682640939589e-31 1.9493888380474796e-18 6.789829480948199" Properties=species:S:1:pos:R:3:forces:R:3 cutoff=-1.0 nneightol=1.2 n_minim_iter=1 energy=-651.9050036899465 stress="0.07047391843083148 3.178906909392594e-17 -1.5714923607958354e-17 3.178906909392594e-17 0.07047391843083162 1.8552663387643848e-17 -1.5714923607958354e-17 1.8552663387643848e-17 0.0699846211501345" free_energy=-651.9050036899465 pbc="T T T"
Si       2.05816689       1.18828321       0.43399981       0.00000000      -0.00000000       0.02919549
Si       2.05816689      -1.18828321       3.82891455      -0.00000000      -0.00000000       0.02919549
Si       2.05816689       1.18828321       2.96091493       0.00000000       0.00000000      -0.02919549
Si       2.05816689      -1.18828321      -0.43399981      -0.00000000       0.00000000      -0.02919549
4
Lattice="2.056887175807812 -3.5626330939359896 2.37855924800407e-18 2.0568871758078116 3.5626330939359896 -2.3785592480040283e-18 -8.14281249778746e-32 -6.290197263961362e-19 6.798280856052391" Properties=species:S:1:pos:R:3:forces:R:3 cutoff=-1.0 nneightol=1.2 n_minim_iter=2 energy=-651.9050991920215 stress="0.06998970105153648 -4.9954251433312196e-17 2.872393884732079e-17 -4.9954251433312196e-17 0.06998970105153679 -2.225942143915616e-17 2.872393884732079e-17 -2.225942143915616e-17 0.07063168971287413" free_energy=-651.9050991920215 pbc="T T T"
Si       2.05688718       1.18754436       0.43565884      -0.00000000      -0.00000000       0.01771481
Si       2.05688718      -1.18754436       3.83479926       0.00000000       0.00000000       0.01771481
Si       2.05688718       1.18754436       2.96348159      -0.00000000      -0.00000000      -0.01771481
Si       2.05688718      -1.18754436      -0.43565884       0.00000000       0.00000000      -0.01771481
4
Lattice="2.0571339890289475 -3.5630605869749763 1.3997058738232695e-18 2.057133989028947 3.5630605869749763 -1.3997058738232387e-18 -8.138625956853318e-32 1.2342014535224328e-18 6.796649649773793" Properties=species:S:1:pos:R:3:forces:R:3 cutoff=-1.0 nneightol=1.2 n_minim_iter=3 energy=-651.905138589085 stress="0.07009905523699818 -1.6802793663932284e-16 9.798314327430396e-18 -1.6802793663932284e-16 0.0700990552369986 -2.5358705193762197e-17 9.798314327430396e-18 -2.5358705193762197e-17 0.07034805495021863" free_energy=-651.905138589085 pbc="T T T"
Si       2.05713399       1.18768686       0.43613873      -0.00000000      -0.00000000       0.00686094
Si       2.05713399      -1.18768686       3.83446356       0.00000000       0.00000000       0.00686094
Si       2.05713399       1.18768686       2.96218609      -0.00000000      -0.00000000      -0.00686094
Si       2.05713399      -1.18768686      -0.43613873       0.00000000       0.00000000      -0.00686094
