4
Lattice="1.8236504053106342 -3.158655157241594 3.724937602649847e-35 1.8236504053106337 3.158655157241594 -3.724937602649254e-35 -9.762517496064217e-48 7.076793005602799e-35 6.000945816643672" Properties=species:S:1:pos:R:3:forces:R:3 cutoff=-1.0 nneightol=1.2 n_minim_iter=1 energy=-652.0177187529443 stress="-0.12991927069117976 -3.7238623795741815e-16 -2.1598060490929537e-16 -3.7238623795741815e-16 -0.12991927069118092 1.0125061405330416e-16 -2.1598060490929537e-16 1.0125061405330416e-16 -0.12721266078410623" free_energy=-652.0177187529443 pbc="T T T"
Si       1.82365041       1.05288505       0.37979622       0.00000000       0.00000000       0.08562517
Si       1.82365041      -1.05288505       3.38026913       0.00000000      -0.00000000       0.08562517
Si       1.82365041       1.05288505       2.62067669      -0.00000000       0.00000000      -0.08562517
Si       1.82365041      -1.05288505      -0.37979622      -0.00000000      -0.00000000      -0.08562517
4
Lattice="1.8244891271584522 -3.160107866095433 3.71872925827033e-34 1.8244891271584518 3.160107866095433 -3.718729258270252e-34 -9.699613585394094e-48 -5.646952466542447e-34 5.995429787614327" Properties=species:S:1:pos:R:3:forces:R:3 cutoff=-1.0 nneightol=1.2 n_minim_iter=2 energy=-652.0179135502556 stress="-0.12837189419755543 -1.9981700573324878e-16 2.7058553899338017e-17 -1.9981700573324878e-16 -0.12837189419755535 -1.0852431167197945e-16 2.7058553899338017e-17 -1.0852431167197945e-16 -0.1296855155742393" free_energy=-652.0179135502556 pbc="T T T"
Si       1.82448913       1.05336929       0.38007775      -0.00000000       0.00000000       0.03349506
Si       1.82448913      -1.05336929       3.37779265      -0.00000000       0.00000000       0.03349506
Si       1.82448913       1.05336929       2.61763714       0.00000000      -0.00000000      -0.03349506
Si       1.82448913      -1.05336929      -0.38007775       0.00000000      -0.00000000      -0.03349506
4
Lattice="1.8226118913998792 -3.1568563983838 2.9845746103675263e-34 1.8226118913998788 3.1568563983838 -2.9845746103673518e-34 -9.811017521155195e-48 -4.231604972063348e-34 6.00778637467528" Properties=species:S:1:pos:R:3:forces:R:3 cutoff=-1.0 nneightol=1.2 n_minim_iter=3 energy=-652.0181911157126 stress="-0.12847467663345838 -3.542210556180319e-16 -1.154409401558491e-16 -3.542210556180319e-16 -0.12847467663345893 6.34110026785363e-17 -1.154409401558491e-16 6.34110026785363e-17 -0.12853118003680197" free_energy=-652.0181911157126 pbc="T T T"
Si       1.82261189       1.05228547       0.38362508      -0.00000000       0.00000000      -0.00095829
Si       1.82261189      -1.05228547       3.38751827       0.00000000      -0.00000000      -0.00095829
Si       1.82261189       1.05228547       2.62026810      -0.00000000       0.00000000       0.00095829
Si       1.82261189      -1.05228547      -0.38362508       0.00000000      -0.00000000       0.00095829
