4
Lattice="1.9572611337940875 -3.3900757274112236 6.772929972511479e-36 1.9572611337940882 3.3900757274112236 -6.772929972509718e-36 3.5732905702998715e-48 1.95835677589641e-35 6.435402419059701" Properties=species:S:1:pos:R:3:forces:R:3 cutoff=-1.0 nneightol=1.2 n_minim_iter=2 energy=-652.6069245813169 stress="0.021951980897386616 7.039008156512172e-17 4.698297564826399e-17 7.039008156512172e-17 0.021951980897386012 1.3412424906715695e-18 4.698297564826399e-17 1.3412424906715695e-18 0.02155624913094489" free_energy=-652.6069245813169 pbc="T T T"
Si       1.95726113       1.13002524       0.40342466       0.00000000       0.00000000      -0.00073963
Si       1.95726113      -1.13002524       3.62112587      -0.00000000      -0.00000000      -0.00073963
Si       1.95726113       1.13002524       2.81427655       0.00000000       0.00000000       0.00073963
Si       1.95726113      -1.13002524      -0.40342466       0.00000000      -0.00000000       0.00073963
