4
Lattice="1.957325187245066 -3.3901866712427204 8.545012507044878e-36 1.9573251872450663 3.3901866712427204 -8.545012507045491e-36 1.9379800863351858e-48 -1.2973782565195788e-35 6.434981228966934" Properties=species:S:1:pos:R:3:forces:R:3 cutoff=-1.0 nneightol=1.2 n_minim_iter=2 energy=-652.6407969294064 stress="0.011508885073080878 5.676619481058204e-18 -8.248105368037567e-17 5.676619481058204e-18 0.011508885073080522 2.8016440656487966e-17 -8.248105368037567e-17 2.8016440656487966e-17 0.010998843061326402" free_energy=-652.6407969294064 pbc="T T T"
Si       1.95732519       1.13006222       0.40262317      -0.00000000      -0.00000000      -0.00151063
Si       1.95732519      -1.13006222       3.62011379       0.00000000       0.00000000      -0.00151063
Si       1.95732519       1.13006222       2.81486744      -0.00000000      -0.00000000       0.00151063
Si       1.95732519      -1.13006222      -0.40262317       0.00000000       0.00000000       0.00151063
