4
Lattice="1.7620538038308786 -3.051966713905086 -4.037300602697985e-18 1.7620538038308784 3.051966713905086 4.0373006026980055e-18 2.730322929043849e-34 7.703740824943465e-18 5.860670790592119" Properties=species:S:1:pos:R:3:forces:R:3 cutoff=-1.0 nneightol=1.2 n_minim_iter=3 energy=-651.3293276399586 stress="-0.21488689998465874 -8.537635699511539e-16 -1.7595907464439918e-16 -8.537635699511539e-16 -0.21488689998465962 1.0306621889562019e-17 -1.7595907464439918e-16 1.0306621889562019e-17 -0.21491347754678766" free_energy=-651.3293276399586 pbc="T T T"
Si       1.76205380       1.01732224       0.38511161      -0.00000000       0.00000000      -0.00292155
Si       1.76205380      -1.01732224       3.31544700       0.00000000      -0.00000000      -0.00292155
Si       1.76205380       1.01732224       2.54522379      -0.00000000       0.00000000       0.00292155
Si       1.76205380      -1.01732224      -0.38511161       0.00000000      -0.00000000       0.00292155
