4
Lattice="1.8026618393607212 -3.1223018946383356 3.3389052915703758e-34 1.8026618393607212 3.1223018946383356 -3.3389052915701632e-34 -5.050811410386754e-47 4.837042949380822e-34 5.960866190045818" Properties=species:S:1:pos:R:3:forces:R:3 cutoff=-1.0 nneightol=1.2 n_minim_iter=3 energy=-651.7176782444037 stress="-0.16820240175691104 -5.449554701815876e-16 -8.526208417524183e-17 -5.449554701815876e-16 -0.1682024017569124 -1.2219137774273757e-17 -8.526208417524183e-17 -1.2219137774273757e-17 -0.16830263771644036" free_energy=-651.7176782444037 pbc="T T T"
Si       1.80266184       1.04076730       0.38520541      -0.00000000       0.00000000      -0.00170986
Si       1.80266184      -1.04076730       3.36563850       0.00000000      -0.00000000      -0.00170986
Si       1.80266184       1.04076730       2.59522769      -0.00000000       0.00000000       0.00170986
Si       1.80266184      -1.04076730      -0.38520541       0.00000000      -0.00000000       0.00170986
