4
Lattice="1.8236504053106344 -3.158655157241593 3.7249376026498456e-35 1.823650405310634 3.158655157241593 -3.724937602649251e-35 -4.416470477121292e-48 -6.841930672331203e-36 6.000945816643672" Properties=species:S:1:pos:R:3:forces:R:3 cutoff=-1.0 nneightol=1.2 n_minim_iter=3 energy=-652.2448026539025 stress="-0.09544050477750479 -4.813773319937357e-16 -7.296841721412103e-17 -4.813773319937357e-16 -0.09544050477750506 -1.2382303203391142e-16 -7.296841721412103e-17 -1.2382303203391142e-16 -0.0954716789674766" free_energy=-652.2448026539025 pbc="T T T"
Si       1.82365041       1.05288505       0.37979622      -0.00000000       0.00000000      -0.00051385
Si       1.82365041      -1.05288505       3.38026913       0.00000000       0.00000000      -0.00051385
Si       1.82365041       1.05288505       2.62067669      -0.00000000      -0.00000000       0.00051385
Si       1.82365041      -1.05288505      -0.37979622       0.00000000      -0.00000000       0.00051385
