2
Lattice="2.9348821924321036 -1.0170682807516665e-67 -2.399066225238346e-50 2.0563894111487376e-67 2.9348821924321036 1.2714468011476941e-17 3.5598310528398776e-50 -1.8866239527463728e-17 4.354896357231077" Properties=species:S:1:pos:R:3:tags:I:1 spacegroup="P 1" unit_cell=conventional n_minim_iter=1 energy=-1703.8386490812604 free_energy=-1703.8386490812604 pbc="T T T"
Ti       1.46744110       1.46744110       2.17744818        0
Al       0.00000000       0.00000000       0.00000001        1
