2
Lattice="2.35328065645694 6.961875286352345e-52 -1.2388994335826208e-35 -3.0731836016521592e-52 2.35328065645694 7.386542178057762e-17 2.183228660850629e-35 -1.3016803584358311e-16 4.147027302567206" Properties=species:S:1:pos:R:3:tags:I:1 spacegroup="P 1" unit_cell=conventional n_minim_iter=1 energy=-1703.4752924764273 free_energy=-1703.4752924764273 pbc="T T T"
Ti       1.17664033       1.17664033       2.07351366        0
Al       0.00000000       0.00000000       0.00000001        1
2
Lattice="2.389949431917386 6.980125094192681e-52 -1.436368454009646e-35 -3.790756640500814e-52 2.389949431917386 7.391762381743765e-17 1.8037794708758912e-35 -1.282562143390089e-16 4.020748611946785" Properties=species:S:1:pos:R:3:tags:I:1 spacegroup="P 1" unit_cell=conventional n_minim_iter=2 stress="-0.5522194275493562 -3.99133260405982e-18 -1.167990085100736e-18 -3.99133260405982e-18 -0.5522194275493564 -5.710415464153267e-17 -1.167990085100736e-18 -5.710415464153267e-17 -0.5519964900945684" pbc="T T T"
Ti       1.19497472       1.19497472       2.01037431        0
Al      -0.00000000       0.00000000       0.00000000        1
