2
Lattice="2.5895870456800636 6.087660918114334e-68 -6.35803398420963e-36 -6.694294580174679e-53 2.5895870456800636 -2.726543860545529e-17 8.969007177701383e-36 3.846219053921968e-17 3.6530199205712877" Properties=species:S:1:pos:R:3:tags:I:1 spacegroup="P 1" unit_cell=conventional n_minim_iter=1 energy=-1703.5916785376448 free_energy=-1703.5916785376448 pbc="T T T"
Ti       1.29479352       1.29479352       1.82650996        0
Al       0.00000000       0.00000000       0.00000000        1
