2
Lattice="2.8588100831006784 0.0 0.0 0.0 2.8588100831006784 0.0 0.0 0.0 4.121403693680481" Properties=species:S:1:pos:R:3:tags:I:1 spacegroup="P 1" unit_cell=conventional n_minim_iter=1 energy=-1704.190365120446 free_energy=-1704.190365120446 pbc="T T T"
Ti       1.42940504       1.42940504       2.06070185        0
Al       0.00000000       0.00000000       0.00000001        1
