2
Lattice="2.722464833262888 0.0 0.0 0.0 2.722464833262888 0.0 0.0 0.0 3.9248415576998426" Properties=species:S:1:pos:R:3:tags:I:1 spacegroup="P 1" unit_cell=conventional n_minim_iter=1 energy=-1704.265493666654 free_energy=-1704.265493666654 pbc="T T T"
Ti       1.36123242       1.36123242       1.96242078        0
Al       0.00000000       0.00000000       0.00000000        1
