2
Lattice="2.82410522 0.0 0.0 0.0 2.82410522 0.0 0.0 0.0 4.06471199" Properties=species:S:1:pos:R:3:tags:I:1 spacegroup="P 1" unit_cell=conventional n_minim_iter=1 energy=-1704.253558055954 free_energy=-1704.253558055954 pbc="T T T"
Ti       1.41205261       1.41205261       2.03235600        0
Al       0.00000000       0.00000000       0.00000000        1
2
Lattice="2.769413108220931 0.0 0.0 0.0 2.769413108220931 0.0 0.0 0.0 3.992524540549176" Properties=species:S:1:pos:R:3:tags:I:1 spacegroup="P 1" unit_cell=conventional n_minim_iter=2 stress="0.0011411956733783073 -3.7077629905143572e-19 -3.5350075364460836e-19 -3.7077629905143572e-19 0.0011411956733783364 8.49764205975187e-20 -3.5350075364460836e-19 8.49764205975187e-20 -0.00014494574080437526" pbc="T T T"
Ti       1.38470655       1.38470655       1.99626228        0
Al       0.00000000       0.00000000       0.00000000        1
