2
Lattice="4.53256867554074 -4.356654790028325e-17 -6.407791605106388e-17 -4.356654790028351e-17 4.532568675540739 3.0834407496511386e-16 2.26628433777037 2.2662843377703696 1.2323487891754763" Properties=species:S:1:pos:R:3:forces:R:3 cutoff=-1.0 nneightol=1.2 n_minim_iter=1 energy=-325.3991403116979 stress="-0.1571846405252484 2.510497383315288e-17 4.500422346872691e-17 2.510497383315288e-17 -0.15718464052524894 1.801589133322305e-16 4.500422346872691e-17 1.801589133322305e-16 -0.15378709000206078" free_energy=-325.3991403116979 pbc="T T T"
Si      -0.00000000      -1.13314217      -0.30808720       0.00000000       0.00000000      -0.00000000
Si      -0.00000000       1.13314217       0.30808720      -0.00000000      -0.00000000       0.00000000
