2
Lattice="4.769447227767484 -4.302417963797543e-17 1.7586434147814493e-16 -4.302417963797587e-17 4.769447227767484 -2.231090422088291e-16 2.384723613883742 2.384723613883742 1.3153368893378456" Properties=species:S:1:pos:R:3:forces:R:3 cutoff=-1.0 nneightol=1.2 n_minim_iter=1 energy=-325.713406727254 stress="-0.00162343358437911 -1.7276295320778065e-18 1.332322218365454e-16 -1.7276295320778065e-18 -0.0016234335843791049 -7.934215157413012e-17 1.332322218365454e-16 -7.934215157413012e-17 -0.001989142542134391" free_energy=-325.713406727254 pbc="T T T"
Si      -0.00000000      -1.19236181      -0.32883422       0.00000000       0.00000000      -0.00000000
Si      -0.00000000       1.19236181       0.32883422      -0.00000000      -0.00000000       0.00000000
