42
Lattice="9.21 0.0 0.0 0.0 9.128 0.0 -4.721042337 0.0 34.572144976" Properties=species:S:1:pos:R:3:forces:R:3 energy=-232.9097669 stress="-0.00045949990184752546 -0.0 -0.00010486983633309051 -0.0 -0.0005833376844141753 -0.0 -0.00010486983633309051 -0.0 -0.0022943100980743008" free_energy=-232.9097669 pbc="T T T"
P        0.92237000       5.82494000      18.93758000       0.04615300       0.05107200      -0.08017800
P       -0.76057000       5.82494000      26.59995000      -0.04615300       0.05107200       0.08017800
P       -1.40872000       8.12766000      18.91220000      -0.00238000       0.03275600      -0.07864600
P        1.57051000       8.12766000      26.62533000       0.00238000       0.03275600       0.07864600
P       -0.05461000       2.56059000      19.86750000      -0.10409600      -0.06000300       0.14154000
P        0.21641000       2.56059000      25.67003000       0.10409600      -0.06000300      -0.14154000
P        4.54802000       7.09702000      19.87206000      -0.05469000      -0.07691300       0.11839300
P        4.82378000       7.09702000      25.66547000       0.05469000      -0.07691300      -0.11839300
P        3.26526000       1.34611000      18.07664000       0.02944100      -0.12386300      -0.42997700
P       -3.10346000       1.34611000      27.46089000      -0.02944100      -0.12386300       0.42997700
P        5.70056000       8.26230000      18.29789000       0.00357300       0.08570900      -0.19418500
P        3.67124000       8.26230000      27.23964000      -0.00357300       0.08570900       0.19418500
P        1.11476000       3.73180000      18.31307000       0.04047800       0.06307800      -0.15570200
P       -0.95296000       3.73180000      27.22445000      -0.04047800       0.06307800       0.15570200
P        3.22405000       3.40493000      18.83433000       0.06668000      -0.05741100      -0.07339000
P       -3.06225000       3.40493000      26.70320000      -0.06668000      -0.05741100       0.07339000
P        1.49386000       1.63446000      21.12605000       0.04519100      -0.07234400       0.00824100
P       -1.33207000       1.63446000      24.41148000      -0.04519100      -0.07234400      -0.00824100
P        3.60215000       8.65818000      21.08874000      -0.10231100       0.04819900       0.05781700
P        5.76964000       8.65818000      24.44878000       0.10231100       0.04819900      -0.05781700
P       -0.81933000       4.08350000      21.25425000       0.01325100      -0.02366100       0.07237600
P        0.98112000       4.08350000      24.28328000      -0.01325100      -0.02366100      -0.07237600
P        2.08370000       0.14121000      19.61241000      -0.12286000      -0.13788200      -0.00980300
P       -1.92190000       0.14121000      25.92512000       0.12286000      -0.13788200       0.00980300
P       -1.19468000       6.00723000      18.31199000       0.02529100       0.03294100      -0.14991400
P        1.35648000       6.00723000      27.22554000      -0.02529100       0.03294100       0.14991400
P       -1.74612000       8.11570000      21.08289000      -0.07489900       0.01411000       0.04878600
P        1.90792000       8.11570000      24.45464000       0.07489900       0.01411000      -0.04878600
P       -2.35663000       4.85865000      19.87683000      -0.08177400      -0.10594200       0.01281200
P        2.51843000       4.85865000      25.66070000       0.08177400      -0.10594200      -0.01281200
P        5.34655000       1.24716000      18.78942000      -0.08979600       0.12649800      -0.05972400
P        4.02525000       1.24716000      26.74810000       0.08979600       0.12649800       0.05972400
P        0.26988000       7.50705000      21.69850000       0.04108200       0.12493400       0.00405400
P       -0.10808000       7.50705000      23.83903000      -0.04108200       0.12493400      -0.00405400
P        0.88235000       5.48940000      21.10827000       0.11221500      -0.10215800       0.07102500
P       -0.72056000       5.48940000      24.42926000      -0.11221500      -0.10215800      -0.07102500
P        6.08990000       6.39289000      21.27529000       0.01518400       0.05322100       0.08714600
P        3.28189000       6.39289000      24.26224000      -0.01518400       0.05322100      -0.08714600
P        4.92240000       1.32895000      20.98289000       0.10695200       0.09253600       0.20925900
P        4.44939000       1.32895000      24.55464000      -0.10695200       0.09253600      -0.20925900
P        3.28975000       2.96843000      21.01998000       0.09702800       0.03512000       0.16902500
P       -3.12795000       2.96843000      24.51755000      -0.09702800       0.03512000      -0.16902500
