5
Lattice="50.0 0.0 0.0 0.0 50.0 0.0 0.0 0.0 50.0" Properties=species:S:1:pos:R:3:forces:R:3 cutoff=-1.0 nneightol=1.2 energy=-1089.7066464546351 stress="-2.940095691883471e-05 7.989268056007859e-07 -3.251765974709997e-06 7.989268056007859e-07 -4.7602738050045446e-05 7.404042116831988e-05 -3.251765974709997e-06 7.404042116831988e-05 -0.0003300299576949328" pbc="F F F"
C       24.74768067      24.91281756      24.75022287      -0.63215184      14.40410995     -58.49199677
H       24.75397917      24.76935119      25.33278422       0.71301633     -16.23722839      65.93623352
H       24.22631784      24.13393669      24.18916412      -1.22113526      -1.38698757      -2.96040201
H       25.77368216      24.99945721      24.38545218       2.34900498       0.61040211      -2.50728679
H       24.23152637      25.86606331      24.61555231      -1.20873415       2.60970402      -1.97654402
5
Lattice="50.0 0.0 0.0 0.0 50.0 0.0 0.0 0.0 50.0" Properties=species:S:1:pos:R:3:forces:R:3 cutoff=-1.0 nneightol=1.2 energy=-1091.3990951842566 stress="-2.9272872779984027e-05 8.01979410880449e-07 -3.260460744058946e-06 8.01979410880449e-07 -4.752277163788676e-05 7.423961505992338e-05 -3.260460744058946e-06 7.423961505992338e-05 -0.0003307048755232245" pbc="F F F"
C       24.74768067      24.91281756      24.75022287      -0.66548067      15.15190983     -61.53041077
H       24.75424161      24.76337342      25.35705761       0.70834738     -16.12393761      65.47695160
H       24.22631784      24.13393669      24.18916412      -1.20320678      -1.66521227      -1.79256582
H       25.77368216      24.99945721      24.38545218       2.35130072       0.32329589      -1.34120905
H       24.23152637      25.86606331      24.61555231      -1.19096065       2.31394458      -0.81276828
5
Lattice="50.0 0.0 0.0 0.0 50.0 0.0 0.0 0.0 50.0" Properties=species:S:1:pos:R:3:forces:R:3 cutoff=-1.0 nneightol=1.2 energy=-1093.0639557806276 stress="-2.822770875354763e-05 8.077556685748277e-07 -3.2822072171256877e-06 8.077556685748277e-07 -4.6600493078585714e-05 7.473805453628302e-05 -3.2822072171256877e-06 7.473805453628302e-05 -0.00033169201924465597" pbc="F F F"
C       24.74768067      24.91281756      24.75022287      -0.65592015      14.93369865     -60.64450073
H       24.75450405      24.75739566      25.38133100       0.68888873     -15.68082237      63.67758179
H       24.22631784      24.13393669      24.18916412      -1.15738475      -1.66901398      -1.47114587
H       25.77368216      24.99945721      24.38545218       2.27001309       0.24832617      -1.03574347
H       24.23152637      25.86606331      24.61555231      -1.14559662       2.16781116      -0.52618927
5
Lattice="50.0 0.0 0.0 0.0 50.0 0.0 0.0 0.0 50.0" Properties=species:S:1:pos:R:3:forces:R:3 cutoff=-1.0 nneightol=1.2 energy=-1094.5431894938845 stress="-1.813735070754774e-05 6.914475534358644e-07 -2.8119361559220124e-06 6.914475534358644e-07 -3.3868847822304815e-05 6.399832636816427e-05 -2.8119361559220124e-06 6.399832636816427e-05 -0.0002779860806185752" pbc="F F F"
C       24.74768067      24.91281756      24.75022287      -0.53341532      12.14259148     -49.31047440
H       24.75476648      24.75141789      25.40560439       0.55814141     -12.70471573      51.59164047
H       24.22631784      24.13393669      24.18916412      -0.74455941      -1.04451847      -1.05586922
H       25.77368216      24.99945721      24.38545218       1.45677459       0.18694192      -0.77625698
H       24.23152637      25.86606331      24.61555231      -0.73694128       1.41970074      -0.44904023
5
Lattice="50.0 0.0 0.0 0.0 50.0 0.0 0.0 0.0 50.0" Properties=species:S:1:pos:R:3:forces:R:3 cutoff=-1.0 nneightol=1.2 energy=-1095.8060202971938 stress="-1.5293408068828285e-05 6.686406095468556e-07 -2.7170524390385253e-06 6.686406095468556e-07 -3.0494922611978836e-05 6.184539233800024e-05 -2.7170524390385253e-06 6.184539233800024e-05 -0.00026639841962605715" pbc="F F F"
C       24.74768067      24.91281756      24.75022287      -0.49132526      11.18199921     -45.41048431
H       24.75502892      24.74544013      25.42987778       0.51569247     -11.73717213      47.66290283
H       24.22631784      24.13393669      24.18916412      -0.62880683      -0.85337365      -0.99989271
H       25.77368216      24.99945721      24.38545218       1.22687733       0.18466190      -0.76418430
H       24.23152637      25.86606331      24.61555231      -0.62243772       1.22388470      -0.48833987
5
Lattice="50.0 0.0 0.0 0.0 50.0 0.0 0.0 0.0 50.0" Properties=species:S:1:pos:R:3:forces:R:3 cutoff=-1.0 nneightol=1.2 energy=-1097.0176797723027 stress="-1.2313509614614304e-05 6.704974566673627e-07 -2.7248458991380176e-06 6.704974566673627e-07 -2.755909736151807e-05 6.202472286531702e-05 -2.7248458991380176e-06 6.202472286531702e-05 -0.00026415218599140644" pbc="F F F"
C       24.74768067      24.91281756      24.75022287      -0.47586101      10.83119392     -43.98578644
H       24.75529136      24.73946236      25.45415117       0.49601838     -11.29004002      45.84715271
H       24.22631784      24.13393669      24.18916412      -0.50624895      -0.68275845      -0.82097727
H       25.77368216      24.99945721      24.38545218       0.98717141       0.15264058      -0.63116610
H       24.23152637      25.86606331      24.61555231      -0.50107986       0.98896313      -0.40922344
5
Lattice="50.0 0.0 0.0 0.0 50.0 0.0 0.0 0.0 50.0" Properties=species:S:1:pos:R:3:forces:R:3 cutoff=-1.0 nneightol=1.2 energy=-1098.023428570275 stress="-6.862952886876883e-06 5.238156290943152e-07 -2.1299811123753898e-06 5.238156290943152e-07 -1.8776810975396074e-05 4.8470938054379076e-05 -2.1299811123753898e-06 4.8470938054379076e-05 -0.00020366752869449556" pbc="F F F"
C       24.74768067      24.91281756      24.75022287      -0.35159376       8.00015450     -32.48968887
H       24.75555380      24.73348460      25.47842456       0.36908209      -8.39917946      34.10794449
H       24.22631784      24.13393669      24.18916412      -0.28399253      -0.33230269      -0.65108728
H       25.77368216      24.99945721      24.38545218       0.54758108       0.13284937      -0.54533923
H       24.23152637      25.86606331      24.61555231      -0.28107685       0.59847897      -0.42182839
5
Lattice="50.0 0.0 0.0 0.0 50.0 0.0 0.0 0.0 50.0" Properties=species:S:1:pos:R:3:forces:R:3 cutoff=-1.0 nneightol=1.2 energy=-1098.8307782312565 stress="-3.936708708351944e-06 4.620863762738736e-07 -1.8794161178448121e-06 4.620863762738736e-07 -1.4451108654611744e-05 4.277750849723816e-05 -1.8794161178448121e-06 4.277750849723816e-05 -0.00017762456263881177" pbc="F F F"
C       24.74768067      24.91281756      24.75022287      -0.30191821       6.87118530     -27.90489197
H       24.75581623      24.72750683      25.50269795       0.31343299      -7.13379574      28.96934891
H       24.22631784      24.13393669      24.18916412      -0.16313748      -0.17890270      -0.41879833
H       25.77368216      24.99945721      24.38545218       0.31303382       0.08746654      -0.35815644
H       24.23152637      25.86606331      24.61555231      -0.16141115       0.35404685      -0.28750196
5
Lattice="50.0 0.0 0.0 0.0 50.0 0.0 0.0 0.0 50.0" Properties=species:S:1:pos:R:3:forces:R:3 cutoff=-1.0 nneightol=1.2 energy=-1099.5215465590222 stress="-2.1338223632483277e-06 3.9827946807236003e-07 -1.6201114476643852e-06 3.9827946807236003e-07 -1.1196218110853806e-05 3.687127900775522e-05 -1.6201114476643852e-06 3.687127900775522e-05 -0.00015183960204012692" pbc="F F F"
C       24.74768067      24.91281756      24.75022287      -0.25210607       5.73590517     -23.29492760
H       24.75607867      24.72152907      25.52697134       0.26042235      -5.92607307      24.06510544
H       24.22631784      24.13393669      24.18916412      -0.08887284      -0.08057782      -0.29133895
H       25.77368216      24.99945721      24.38545218       0.16845593       0.06336255      -0.25847736
H       24.23152637      25.86606331      24.61555231      -0.08789937       0.20738323      -0.22036262
5
Lattice="50.0 0.0 0.0 0.0 50.0 0.0 0.0 0.0 50.0" Properties=species:S:1:pos:R:3:forces:R:3 cutoff=-1.0 nneightol=1.2 energy=-1100.0350631175113 stress="-3.0064009024499683e-06 2.957308993245533e-07 -1.202910311803862e-06 2.957308993245533e-07 -9.730693818710279e-06 2.7360212698113173e-05 -1.202910311803862e-06 2.7360212698113173e-05 -0.0001140950116678141" pbc="F F F"
C       24.74768067      24.91281756      24.75022287      -0.18242930       4.14786291     -16.84658051
H       24.75634111      24.71555130      25.55124473       0.18936926      -4.30752039      17.49269485
H       24.22631784      24.13393669      24.18916412      -0.12406333      -0.15038009      -0.26426500
H       25.77368216      24.99945721      24.38545218       0.23987937       0.05315571      -0.21791188
H       24.23152637      25.86606331      24.61555231      -0.12275600       0.25688180      -0.16393681
5
Lattice="50.0 0.0 0.0 0.0 50.0 0.0 0.0 0.0 50.0" Properties=species:S:1:pos:R:3:forces:R:3 cutoff=-1.0 nneightol=1.2 energy=-1100.46180455984 stress="-2.921421810242464e-06 2.7492814069773885e-07 -1.1187316886207554e-06 2.7492814069773885e-07 -9.176785169984214e-06 2.5452372938161716e-05 -1.1187316886207554e-06 2.5452372938161716e-05 -0.00010626358562149107" pbc="F F F"
C       24.74768067      24.91281756      24.75022287      -0.16574197       3.76846790     -15.30589199
H       24.75660355      24.70957354      25.57551812       0.17148422      -3.90066862      15.84055233
H       24.22631784      24.13393669      24.18916412      -0.12025148      -0.15381530      -0.22574933
H       25.77368216      24.99945721      24.38545218       0.23347689       0.04401036      -0.18067740
H       24.23152637      25.86606331      24.61555231      -0.11896767       0.24200584      -0.12823336
5
Lattice="50.0 0.0 0.0 0.0 50.0 0.0 0.0 0.0 50.0" Properties=species:S:1:pos:R:3:forces:R:3 cutoff=-1.0 nneightol=1.2 energy=-1100.8137541747437 stress="-3.5344926345715066e-06 2.0818229984342906e-07 -8.48300885536446e-07 2.0818229984342906e-07 -8.275940672319848e-06 1.9292978322482668e-05 -8.48300885536446e-07 1.9292978322482668e-05 -8.1869016867131e-05" pbc="F F F"
C       24.74768067      24.91281756      24.75022287      -0.12327221       2.80112052     -11.37776756
H       24.75686598      24.70359577      25.59979151       0.12810786      -2.91263032      11.82846260
H       24.22631784      24.13393669      24.18916412      -0.14500768      -0.20262697      -0.20781319
H       25.77368216      24.99945721      24.38545218       0.28361875       0.03710990      -0.15323243
H       24.23152637      25.86606331      24.61555231      -0.14344673       0.27702692      -0.08964948
5
Lattice="50.0 0.0 0.0 0.0 50.0 0.0 0.0 0.0 50.0" Properties=species:S:1:pos:R:3:forces:R:3 cutoff=-1.0 nneightol=1.2 energy=-1101.0958625841677 stress="-3.5420334825175814e-06 1.8673539159408392e-07 -7.61565559059818e-07 1.8673539159408392e-07 -7.797211765137035e-06 1.731443262542598e-05 -7.61565559059818e-07 1.731443262542598e-05 -7.384381751762703e-05" pbc="F F F"
C       24.74768067      24.91281756      24.75022287      -0.10703568       2.43158960      -9.87725735
H       24.75712842      24.69761800      25.62406490       0.11206663      -2.54727650      10.34496021
H       24.22631784      24.13393669      24.18916412      -0.14542350      -0.20181572      -0.21364009
H       25.77368216      24.99945721      24.38545218       0.28423983       0.03850542      -0.15889466
H       24.23152637      25.86606331      24.61555231      -0.14384729       0.27899724      -0.09516858
5
Lattice="50.0 0.0 0.0 0.0 50.0 0.0 0.0 0.0 50.0" Properties=species:S:1:pos:R:3:forces:R:3 cutoff=-1.0 nneightol=1.2 energy=-1101.3531223930324 stress="-3.363748646734166e-06 1.7444229172269843e-07 -7.120927421055967e-07 1.7444229172269843e-07 -7.339472176681738e-06 1.6177618817891926e-05 -7.120927421055967e-07 1.6177618817891926e-05 -6.905096233822405e-05" pbc="F F F"
C       24.74768067      24.91281756      24.75022287      -0.09777747       2.22082353      -9.02134037
H       24.75739086      24.69164024      25.64833829       0.10211689      -2.32071185       9.42489624
H       24.22631784      24.13393669      24.18916412      -0.13796823      -0.19499037      -0.18935637
H       25.77368216      24.99945721      24.38545218       0.27008867       0.03324738      -0.13735555
H       24.23152637      25.86606331      24.61555231      -0.13645987       0.26163128      -0.07684299
5
Lattice="50.0 0.0 0.0 0.0 50.0 0.0 0.0 0.0 50.0" Properties=species:S:1:pos:R:3:forces:R:3 cutoff=-1.0 nneightol=1.2 energy=-1101.5765506837797 stress="-3.223435669497121e-06 1.3865222570075275e-07 -5.662035391651443e-07 1.3865222570075275e-07 -6.384794687619433e-06 1.2864393283962272e-05 -5.662035391651443e-07 1.2864393283962272e-05 -5.545698877540417e-05" pbc="F F F"
C       24.74768067      24.91281756      24.75022287      -0.07715996       1.75121963      -7.11446619
H       24.75765330      24.68566247      25.67261168       0.08007453      -1.81867361       7.38627291
H       24.22631784      24.13393669      24.18916412      -0.13185242      -0.19636327      -0.14318083
H       25.77368216      24.99945721      24.38545218       0.25933787       0.02244022      -0.09331632
H       24.23152637      25.86606331      24.61555231      -0.13040002       0.24137700      -0.03531004
5
Lattice="50.0 0.0 0.0 0.0 50.0 0.0 0.0 0.0 50.0" Properties=species:S:1:pos:R:3:forces:R:3 cutoff=-1.0 nneightol=1.2 energy=-1101.7416036003517 stress="-3.049150336664752e-06 1.1080502559934757e-07 -4.5372078716354736e-07 1.1080502559934757e-07 -5.579051503445953e-06 1.0295797437720466e-05 -4.5372078716354736e-07 1.0295797437720466e-05 -4.4854685256723315e-05" pbc="F F F"
C       24.74768067      24.91281756      24.75022287      -0.05797198       1.31404817      -5.33930445
H       24.75791573      24.67968471      25.69688507       0.06236450      -1.41504085       5.74733353
H       24.22631784      24.13393669      24.18916412      -0.12531295      -0.17340708      -0.18578324
H       25.77368216      24.99945721      24.38545218       0.24484271       0.03362626      -0.13855499
H       24.23152637      25.86606331      24.61555231      -0.12392227       0.24077350      -0.08369081
5
Lattice="50.0 0.0 0.0 0.0 50.0 0.0 0.0 0.0 50.0" Properties=species:S:1:pos:R:3:forces:R:3 cutoff=-1.0 nneightol=1.2 energy=-1101.8715232899535 stress="-2.413340098428307e-06 8.370490434117528e-08 -3.426504235903849e-07 8.370490434117528e-08 -4.321493179304525e-06 7.766682756482624e-06 -3.426504235903849e-07 7.766682756482624e-06 -3.394985105842352e-05" pbc="F F F"
C       24.74768067      24.91281756      24.75022287      -0.04156103       0.94037902      -3.82197714
H       24.75817817      24.67370694      25.72115846       0.04574277      -1.03678417       4.21125460
H       24.22631784      24.13393669      24.18916412      -0.09942003      -0.13174385      -0.16916078
H       25.77368216      24.99945721      24.38545218       0.19356738       0.03209510      -0.13175711
H       24.23152637      25.86606331      24.61555231      -0.09832908       0.19605383      -0.08835939
5
Lattice="50.0 0.0 0.0 0.0 50.0 0.0 0.0 0.0 50.0" Properties=species:S:1:pos:R:3:forces:R:3 cutoff=-1.0 nneightol=1.2 energy=-1101.9565349048034 stress="-1.86323529760557e-06 5.361178878615647e-08 -2.2076640959767246e-07 5.361178878615647e-08 -3.0890812467987416e-06 4.990703018847853e-06 -2.2076640959767246e-07 4.990703018847853e-06 -2.2128431737655774e-05" pbc="F F F"
C       24.74768067      24.91281756      24.75022287      -0.02508796       0.56528419      -2.29887795
H       24.75844061      24.66772918      25.74543185       0.02878817      -0.65071797       2.64354992
H       24.22631784      24.13393669      24.18916412      -0.07695019      -0.09807140      -0.14534299
H       25.77368216      24.99945721      24.38545218       0.14932629       0.02845698      -0.11639851
H       24.23152637      25.86606331      24.61555231      -0.07607632       0.15504824      -0.08293051
5
Lattice="50.0 0.0 0.0 0.0 50.0 0.0 0.0 0.0 50.0" Properties=species:S:1:pos:R:3:forces:R:3 cutoff=-1.0 nneightol=1.2 energy=-1102.017836979281 stress="-1.639876359149639e-06 4.542710740906841e-08 -1.8753436847873672e-07 4.542710740906841e-08 -2.6795592020789627e-06 4.233562776789768e-06 -1.8753436847873672e-07 4.233562776789768e-06 -1.883093864307739e-05" pbc="F F F"
C       24.74768067      24.91281756      24.75022287      -0.01953192       0.43897218      -1.78591526
H       24.75870305      24.66175141      25.76970524       0.02361488      -0.53304845       2.16569424
H       24.22631784      24.13393669      24.18916412      -0.06801042      -0.08001754      -0.15340418
H       25.77368216      24.99945721      24.38545218       0.13115567       0.03134453      -0.12790568
H       24.23152637      25.86606331      24.61555231      -0.06722820       0.14274928      -0.09846918
5
Lattice="50.0 0.0 0.0 0.0 50.0 0.0 0.0 0.0 50.0" Properties=species:S:1:pos:R:3:forces:R:3 cutoff=-1.0 nneightol=1.2 energy=-1102.0557258568222 stress="-1.951089870999567e-06 1.4593068087265237e-08 -6.242667183187223e-08 1.4593068087265237e-08 -2.2900899239175487e-06 1.3829336467097164e-06 -6.242667183187223e-08 1.3829336467097164e-06 -7.568074579467066e-06" pbc="F F F"
C       24.74768067      24.91281756      24.75022287      -0.00644865       0.14056487      -0.57433486
H       24.75896548      24.65577365      25.79397863       0.00898763      -0.19976029       0.81235391
H       24.22631784      24.13393669      24.18916412      -0.08020710      -0.11290567      -0.11125480
H       25.77368216      24.99945721      24.38545218       0.15695980       0.01971013      -0.08092232
H       24.23152637      25.86606331      24.61555231      -0.07929168       0.15239096      -0.04584195
5
Lattice="50.0 0.0 0.0 0.0 50.0 0.0 0.0 0.0 50.0" Properties=species:S:1:pos:R:3:forces:R:3 cutoff=-1.0 nneightol=1.2 energy=-1102.0647806079187 stress="-2.1906312213104684e-06 -6.104872607437528e-09 2.140166266428878e-08 -6.104872607437528e-09 -2.0600932657544035e-06 -5.272049747873098e-07 2.140166266428878e-08 -5.272049747873098e-07 -5.2174772946500525e-08" pbc="F F F"
C       24.74768067      24.91281756      24.75022287       0.00210397      -0.05459587       0.21797095
H       24.75922792      24.64979588      25.81825202      -0.00044997       0.01524129      -0.06065655
H       24.22631784      24.13393669      24.18916412      -0.08969267      -0.13587512      -0.08827846
H       25.77368216      24.99945721      24.38545218       0.17670943       0.01309382      -0.05423101
H       24.23152637      25.86606331      24.61555231      -0.08867075       0.16213588      -0.01480496
5
Lattice="50.0 0.0 0.0 0.0 50.0 0.0 0.0 0.0 50.0" Properties=species:S:1:pos:R:3:forces:R:3 cutoff=-1.0 nneightol=1.2 energy=-1102.053583902122 stress="-2.3382197014143458e-06 -2.410821409171149e-08 9.414884516445454e-08 -2.410821409171149e-08 -1.8001034050030285e-06 -2.185265202570008e-06 9.414884516445454e-08 -2.185265202570008e-06 6.532054158014944e-06" pbc="F F F"
C       24.74768067      24.91281756      24.75022287       0.00928603      -0.21846633       0.88319510
H       24.75949036      24.64381812      25.84252541      -0.00835863       0.19542739      -0.79227722
H       24.22631784      24.13393669      24.18916412      -0.09548973      -0.15140750      -0.06857374
H       25.77368216      24.99945721      24.38545218       0.18895619       0.00765758      -0.03222512
H       24.23152637      25.86606331      24.61555231      -0.09439386       0.16678885       0.00988098
5
Lattice="50.0 0.0 0.0 0.0 50.0 0.0 0.0 0.0 50.0" Properties=species:S:1:pos:R:3:forces:R:3 cutoff=-1.0 nneightol=1.2 energy=-1102.0238934499632 stress="-2.3662755666009616e-06 -4.344257575894517e-08 1.7193828227846097e-07 -4.344257575894517e-08 -1.3917872365709627e-06 -3.960537469538394e-06 1.7193828227846097e-07 -3.960537469538394e-06 1.3711382962355856e-05" pbc="F F F"
C       24.74768067      24.91281756      24.75022287       0.01665637      -0.38629949       1.56483626
H       24.75975280      24.63784035      25.86679880      -0.01658567       0.38293803      -1.55370665
H       24.22631784      24.13393669      24.18916412      -0.09639078      -0.15993562      -0.04246342
H       25.77368216      24.99945721      24.38545218       0.19157988       0.00110848      -0.00564290
H       24.23152637      25.86606331      24.61555231      -0.09525980       0.16218862       0.03697677
5
Lattice="50.0 0.0 0.0 0.0 50.0 0.0 0.0 0.0 50.0" Properties=species:S:1:pos:R:3:forces:R:3 cutoff=-1.0 nneightol=1.2 energy=-1101.973387719234 stress="-2.4584255697845947e-06 -6.331572421913734e-08 2.5212358423232217e-07 -6.331572421913734e-08 -1.034805791277904e-06 -5.787901045550825e-06 2.5212358423232217e-07 -5.787901045550825e-06 2.1038375052739866e-05" pbc="F F F"
C       24.74768067      24.91281756      24.75022287       0.02348685      -0.54191017       2.19662642
H       24.76001523      24.63186258      25.89107219      -0.02456283       0.56457859      -2.29126310
H       24.22631784      24.13393669      24.18916412      -0.09979974      -0.17494549      -0.00873429
H       25.77368216      24.99945721      24.38545218       0.19948825      -0.00756132       0.02953525
H       24.23152637      25.86606331      24.61555231      -0.09861253       0.15983842       0.07383586
5
Lattice="50.0 0.0 0.0 0.0 50.0 0.0 0.0 0.0 50.0" Properties=species:S:1:pos:R:3:forces:R:3 cutoff=-1.0 nneightol=1.2 energy=-1101.9115286529043 stress="-2.634016027514008e-06 -7.233864351974262e-08 2.888015728785831e-07 -7.233864351974262e-08 -1.005472199722135e-06 -6.621885859203758e-06 2.888015728785831e-07 -6.621885859203758e-06 2.4249566195067018e-05" pbc="F F F"
C       24.74768067      24.91281756      24.75022287       0.02507573      -0.57817400       2.34386969
H       24.76027767      24.62588482      25.91534558      -0.02740620       0.62927985      -2.55405617
H       24.22631784      24.13393669      24.18916412      -0.10653835      -0.19640073       0.02691754
H       25.77368216      24.99945721      24.38545218       0.21414536      -0.01704397       0.06789626
H       24.23152637      25.86606331      24.61555231      -0.10527655       0.16233882       0.11537270
5
Lattice="50.0 0.0 0.0 0.0 50.0 0.0 0.0 0.0 50.0" Properties=species:S:1:pos:R:3:forces:R:3 cutoff=-1.0 nneightol=1.2 energy=-1101.8375653377136 stress="-2.671076117621851e-06 -9.136058309877626e-08 3.658138041373604e-07 -9.136058309877626e-08 -6.117416546658205e-07 -8.374613571504597e-06 3.658138041373604e-07 -8.374613571504597e-06 3.132922211079858e-05" pbc="F F F"
C       24.74768067      24.91281756      24.75022287       0.03053053      -0.70233923       2.84803271
H       24.76054011      24.61990705      25.93961896      -0.03443575       0.78911638      -3.20313001
H       24.22631784      24.13393669      24.18916412      -0.10755699      -0.21087113       0.07460625
H       25.77368216      24.99945721      24.38545218       0.21773617      -0.02893104       0.11616220
H       24.23152637      25.86606331      24.61555231      -0.10627396       0.15302502       0.16432880
5
Lattice="50.0 0.0 0.0 0.0 50.0 0.0 0.0 0.0 50.0" Properties=species:S:1:pos:R:3:forces:R:3 cutoff=-1.0 nneightol=1.2 energy=-1101.7505628099286 stress="-2.8729241421387997e-06 -1.0318240128981415e-07 4.1361425928698736e-07 -1.0318240128981415e-07 -5.466005745802249e-07 -9.461153240408748e-06 4.1361425928698736e-07 -9.461153240408748e-06 3.553906935849227e-05" pbc="F F F"
C       24.74768067      24.91281756      24.75022287       0.03387785      -0.77831763       3.15658140
H       24.76080255      24.61392929      25.96389235      -0.03830292       0.87695062      -3.55982494
H       24.22631784      24.13393669      24.18916412      -0.11561565      -0.22859661       0.08735523
H       25.77368216      24.99945721      24.38545218       0.23428236      -0.03288343       0.13203007
H       24.23152637      25.86606331      24.61555231      -0.11424164       0.16284703       0.18385820
5
Lattice="50.0 0.0 0.0 0.0 50.0 0.0 0.0 0.0 50.0" Properties=species:S:1:pos:R:3:forces:R:3 cutoff=-1.0 nneightol=1.2 energy=-1101.6550670592214 stress="-2.8513650249806233e-06 -1.1297758817363501e-07 4.531636079718737e-07 -1.1297758817363501e-07 -3.032299673577654e-07 -1.0363658475398552e-05 4.531636079718737e-07 -1.0363658475398552e-05 3.922546238754876e-05" pbc="F F F"
C       24.74768067      24.91281756      24.75022287       0.03564830      -0.81884545       3.32108736
H       24.76106498      24.60795152      25.98816574      -0.04123963       0.94385380      -3.83152604
H       24.22631784      24.13393669      24.18916412      -0.11437130      -0.23595373       0.12343378
H       25.77368216      24.99945721      24.38545218       0.23296161      -0.04167081       0.16778180
H       24.23152637      25.86606331      24.61555231      -0.11299898       0.15261623       0.21922293
5
Lattice="50.0 0.0 0.0 0.0 50.0 0.0 0.0 0.0 50.0" Properties=species:S:1:pos:R:3:forces:R:3 cutoff=-1.0 nneightol=1.2 energy=-1101.5533701823958 stress="-2.8884071525681065e-06 -1.2220904466175853e-07 4.903187118543428e-07 -1.2220904466175853e-07 -1.3208806137754436e-07 -1.1210920092707966e-05 4.903187118543428e-07 -1.1210920092707966e-05 4.2628231312846765e-05" pbc="F F F"
C       24.74768067      24.91281756      24.75022287       0.03715246      -0.85281980       3.45905876
H       24.76132742      24.60197376      26.01243913      -0.04380350       1.00197017      -4.06757116
H       24.22631784      24.13393669      24.18916412      -0.11554549      -0.24655446       0.15551913
H       25.77368216      24.99945721      24.38545218       0.23634431      -0.04971269       0.20043793
H       24.23152637      25.86606331      24.61555231      -0.11414777       0.14711668       0.25255567
5
Lattice="50.0 0.0 0.0 0.0 50.0 0.0 0.0 0.0 50.0" Properties=species:S:1:pos:R:3:forces:R:3 cutoff=-1.0 nneightol=1.2 energy=-1101.4438302211463 stress="-3.058064066863153e-06 -1.355756467091851e-07 5.447257080959389e-07 -1.355756467091851e-07 2.409624944021971e-09 -1.2448417692212388e-05 5.447257080959389e-07 -1.2448417692212388e-05 4.748388528241776e-05" pbc="F F F"
C       24.74768067      24.91281756      24.75022287       0.04065105      -0.93255281       3.78285265
H       24.76158986      24.59599599      26.03671252      -0.04791518       1.09564638      -4.44799519
H       24.22631784      24.13393669      24.18916412      -0.12226239      -0.26278311       0.17162162
H       25.77368216      24.99945721      24.38545218       0.25032279      -0.05436615       0.21916458
H       24.23152637      25.86606331      24.61555231      -0.12079626       0.15405574       0.27435604
5
Lattice="50.0 0.0 0.0 0.0 50.0 0.0 0.0 0.0 50.0" Properties=species:S:1:pos:R:3:forces:R:3 cutoff=-1.0 nneightol=1.2 energy=-1101.3255564598803 stress="-3.095878128078766e-06 -1.4187841657076206e-07 5.704343948309543e-07 -1.4187841657076206e-07 1.0774800784929539e-07 -1.303064163948875e-05 5.704343948309543e-07 -1.303064163948875e-05 4.9809990741778165e-05" pbc="F F F"
C       24.74768067      24.91281756      24.75022287       0.04136488      -0.94866776       3.84824920
H       24.76185230      24.59001823      26.06098591      -0.04926837       1.12615407      -4.57188320
H       24.22631784      24.13393669      24.18916412      -0.12359734      -0.27016991       0.19050556
H       25.77368216      24.99945721      24.38545218       0.25361797      -0.05916373       0.23862021
H       24.23152637      25.86606331      24.61555231      -0.12211714       0.15184736       0.29450789
5
Lattice="50.0 0.0 0.0 0.0 50.0 0.0 0.0 0.0 50.0" Properties=species:S:1:pos:R:3:forces:R:3 cutoff=-1.0 nneightol=1.2 energy=-1101.2089523183442 stress="-2.992743020513444e-06 -1.432501761655658e-07 5.757213443757792e-07 -1.432501761655658e-07 2.4039815116339014e-07 -1.315095323661808e-05 5.757213443757792e-07 -1.315095323661808e-05 5.0401653425069526e-05" pbc="F F F"
C       24.74768067      24.91281756      24.75022287       0.04019565      -0.92173779       3.73893023
H       24.76211473      24.58404046      26.08525930      -0.04879430       1.11499763      -4.52664709
H       24.22631784      24.13393669      24.18916412      -0.11917710      -0.26842070       0.21355949
H       25.77368216      24.99945721      24.38545218       0.24551000      -0.06441386       0.26006538
H       24.23152637      25.86606331      24.61555231      -0.11773424       0.13957474       0.31409225
5
Lattice="50.0 0.0 0.0 0.0 50.0 0.0 0.0 0.0 50.0" Properties=species:S:1:pos:R:3:forces:R:3 cutoff=-1.0 nneightol=1.2 energy=-1101.0899347524114 stress="-2.902246933444985e-06 -1.5265935360275762e-07 6.13845429597859e-07 -1.5265935360275762e-07 5.438243420030631e-07 -1.4017211469763424e-05 6.13845429597859e-07 -1.4017211469763424e-05 5.401020098361187e-05" pbc="F F F"
C       24.74768067      24.91281756      24.75022287       0.04176677      -0.95761913       3.88464212
H       24.76237717      24.57806270      26.10953269      -0.05127081       1.17134821      -4.75553274
H       24.22631784      24.13393669      24.18916412      -0.11521234      -0.26911515       0.24276349
H       25.77368216      24.99945721      24.38545218       0.23852305      -0.07123366       0.28786644
H       24.23152637      25.86606331      24.61555231      -0.11380668       0.12661980       0.34026083
5