8
Lattice="6.935815086437413 1.3110292105117848e-15 -1.619264537762928e-45 -3.467907543218707 6.00659206080616 1.5883799589855087e-45 1.4702251672948565e-45 -8.164548771460214e-46 6.297432975263847" Properties=species:S:1:pos:R:3:tags:I:1 spacegroup="P 1" unit_cell=conventional n_minim_iter=1 energy=-9958.975846642748 free_energy=-9958.975846642748 pbc="T T T"
Ti       3.46790755       3.22380516       1.57435824        0
Ti      -1.05793818       4.61520161       4.72307473        1
Ti       1.05793819       4.61520161       4.72307473        2
Ti       2.40996937       1.39140247       1.57435824        3
Ti       4.52584573       1.39140247       1.57435824        4
Ti       0.00000001       2.78279893       4.72307473        5
Al       0.00000001       4.00440072       1.57435824        6
Al       3.46790755       2.00220337       4.72307473        7
8
Lattice="6.972546480608124 1.3503482208819722e-15 -1.6425344195845886e-45 -3.486273240304063 6.038402381274414 1.5674030255971613e-45 1.4417995067490626e-45 -8.453343623184301e-46 6.231257951989605" Properties=species:S:1:pos:R:3:tags:I:1 spacegroup="P 1" unit_cell=conventional n_minim_iter=2 stress="12.970003602725361 1.8472924514224263e-15 2.3967817383902902e-15 1.8472924514224263e-15 12.970003602725347 -7.055930878281216e-16 2.3967817383902902e-15 -7.055930878281216e-16 13.03202586360548" pbc="T T T"
Ti       3.48627325       3.24055226       1.55781448        0
Ti      -1.06325872       4.63948034       4.67344346        1
Ti       1.06325873       4.63948034       4.67344346        2
Ti       2.42301452       1.39893413       1.55781448        3
Ti       4.54953197       1.39893413       1.55781448        4
Ti       0.00000001       2.79786221       4.67344346        5
Al       0.00000001       4.02560763       1.55781448        6
Al       3.48627325       2.01280684       4.67344346        7
8
Lattice="6.969358510887082 1.4250253741582681e-15 -1.5774668805621114e-45 -3.4846792554435417 6.035641518509498 1.5099176986736562e-45 1.46791644312392e-45 -9.009724556486464e-46 6.2369599416482435" Properties=species:S:1:pos:R:3:tags:I:1 spacegroup="P 1" unit_cell=conventional n_minim_iter=3 stress="12.941111265863785 1.2405996527732132e-15 2.6235813914770743e-15 1.2405996527732132e-15 12.941111265863782 1.1266003137089332e-15 2.6235813914770743e-15 1.1266003137089332e-15 12.967348068362218" pbc="T T T"
Ti       3.48467926       3.22897092       1.55923998        0
Ti      -1.05402598       4.63230924       4.67771995        1
Ti       1.05402599       4.63230924       4.67771995        2
Ti       2.43065328       1.40334436       1.55923998        3
Ti       4.53870525       1.40334436       1.55923998        4
Ti       0.00000001       2.80668268       4.67771995        5
Al       0.00000001       4.02376705       1.55923998        6
Al       3.48467926       2.01188655       4.67771995        7
8
Lattice="6.969884933998794 1.4164137679200288e-15 -1.57732666547553e-45 -3.484942466999398 6.036097414297383 1.443888275335242e-45 1.467680646910144e-45 -8.924673791478804e-46 6.236017844066745" Properties=species:S:1:pos:R:3:tags:I:1 spacegroup="P 1" unit_cell=conventional n_minim_iter=4 stress="12.934312202841218 1.860325446550756e-15 -6.7179723290833925e-16 1.860325446550756e-15 12.934312202841229 -1.2129282182996379e-16 -6.7179723290833925e-16 -1.2129282182996379e-16 12.933773069918036" pbc="T T T"
Ti       3.48494247       3.22934605       1.55900446        0
Ti      -1.05421925       4.63272475       4.67701338        1
Ti       1.05421926       4.63272475       4.67701338        2
Ti       2.43072322       1.40338474       1.55900446        3
Ti       4.53916173       1.40338474       1.55900446        4
Ti       0.00000001       2.80676344       4.67701338        5
Al       0.00000001       4.02407098       1.55900446        6
Al       3.48494247       2.01203851       4.67701338        7
