8
Lattice="6.360795715774684 1.804077278037591e-15 -3.7328973851665565e-45 -3.1803978578873444 5.508610678144098 1.6788659945165082e-44 2.837858455543698e-45 -1.309927413443774e-44 4.835664108455497" Properties=species:S:1:pos:R:3:tags:I:1 spacegroup="P 1" unit_cell=conventional n_minim_iter=1 energy=-10291.186062988421 free_energy=-10291.186062988421 pbc="T T T"
Ti       3.18039786       3.92664801       1.20891602        0
Ti      -1.81037322       4.71763210       3.62674808        1
Ti       1.81037323       4.71763210       3.62674808        2
Ti       1.37002464       0.79098961       1.20891602        3
Ti       4.99077108       0.79098961       1.20891602        4
Ti       0.00000001       1.58197370       3.62674808        5
Al       0.00000001       3.67241263       1.20891602        6
Al       3.18039786       1.83620907       3.62674808        7
8
Lattice="6.387364016804228 1.7761951546040096e-15 -3.7768687893755845e-45 -3.1936820084021162 5.531619501771076 1.6799334364420295e-44 2.7937414025764593e-45 -1.3052225279196985e-44 4.795519791615093" Properties=species:S:1:pos:R:3:tags:I:1 spacegroup="P 1" unit_cell=conventional n_minim_iter=2 stress="-10.25623389102625 -2.88435838119528e-15 6.275844734405664e-17 -2.88435838119528e-15 -10.2562338910262 2.337091488402431e-16 6.275844734405664e-17 2.337091488402431e-16 -11.086796809560962" pbc="T T T"
Ti       3.19368201       3.94580571       1.19887995        0
Ti      -1.82032218       4.73871537       3.59663984        1
Ti       1.82032219       4.73871537       3.59663984        2
Ti       1.37335983       0.79291520       1.19887995        3
Ti       5.01400420       0.79291520       1.19887995        4
Ti       0.00000001       1.58582487       3.59663984        5
Al       0.00000001       3.68775187       1.19887995        6
Al       3.19368201       1.84387870       3.59663984        7
8
Lattice="6.4015767772445304 1.8254632228106275e-15 -3.8234929856836686e-45 -3.2007883886222674 5.5439281133702805 1.68524865005833e-44 2.7779211410416026e-45 -1.3004279607861776e-44 4.7742494344080235" Properties=species:S:1:pos:R:3:tags:I:1 spacegroup="P 1" unit_cell=conventional n_minim_iter=3 stress="-7.2172828892164524 6.3507891996080436e-15 9.706762902725782e-15 6.3507891996080436e-15 -7.21728288921638 -5.583419341476843e-15 9.706762902725782e-15 -5.583419341476843e-15 -7.863225820030973" pbc="T T T"
Ti       3.20078839       3.99484212       1.19356236        0
Ti      -1.85923575       4.76938789       3.58068707        1
Ti       1.85923576       4.76938789       3.58068707        2
Ti       1.34155264       0.77455132       1.19356236        3
Ti       5.06002415       0.77455132       1.19356236        4
Ti       0.00000001       1.54909709       3.58068707        5
Al       0.00000001       3.69595762       1.19356236        6
Al       3.20078839       1.84798159       3.58068707        7
8
Lattice="6.403629156779331 1.819272987711888e-15 -3.8135974127402975e-45 -3.201814578389668 5.545705526185626 1.6946164202621373e-44 2.7773548782656045e-45 -1.300263576124012e-44 4.77118960650118" Properties=species:S:1:pos:R:3:tags:I:1 spacegroup="P 1" unit_cell=conventional n_minim_iter=4 stress="-5.764286635210655 3.967346920609014e-14 -1.2266244803402114e-14 3.967346920609014e-14 -5.764286635210533 4.560599314397617e-15 -1.2266244803402114e-14 4.560599314397617e-15 -5.9167254976784385" pbc="T T T"
Ti       3.20181458       4.01714965       1.19279740        0
Ti      -1.87804154       4.78143036       3.57839220        1
Ti       1.87804155       4.78143036       3.57839220        2
Ti       1.32377304       0.76428627       1.19279740        3
Ti       5.07985613       0.76428627       1.19279740        4
Ti       0.00000001       1.52856698       3.57839220        5
Al       0.00000001       3.69714257       1.19279740        6
Al       3.20181458       1.84857406       3.57839220        7
8
Lattice="6.401487666553648 1.7796819706678483e-15 -3.93680999262138e-45 -3.2007438332768263 5.543850941248229 1.7126302652455677e-44 2.7213535304458334e-45 -1.3051202303027828e-44 4.774382353394629" Properties=species:S:1:pos:R:3:tags:I:1 spacegroup="P 1" unit_cell=conventional n_minim_iter=5 stress="-6.0096838537487764 6.666130482091348e-14 8.21617563938629e-15 6.666130482091348e-14 -6.009683853748648 -1.0319040177254958e-15 8.21617563938629e-15 -1.0319040177254958e-15 -5.9901017254972455" pbc="T T T"
Ti       3.20074384       4.01400174       1.19359559        0
Ti      -1.87585075       4.77892912       3.58078676        1
Ti       1.87585076       4.77892912       3.58078676        2
Ti       1.32489308       0.76493292       1.19359559        3
Ti       5.07659460       0.76493292       1.19359559        4
Ti       0.00000001       1.52986030       3.58078676        5
Al       0.00000001       3.69590618       1.19359559        6
Al       3.20074384       1.84795586       3.58078676        7
8
Lattice="6.401689168969258 1.809087395269618e-15 -4.351777792601107e-45 -3.2008445844846314 5.544025447459071 1.7215027196132963e-44 2.8096731973925996e-45 -1.3091454230124985e-44 4.774081796959953" Properties=species:S:1:pos:R:3:tags:I:1 spacegroup="P 1" unit_cell=conventional n_minim_iter=6 stress="-5.994068914637068 3.149335486980579e-14 1.1989114538655271e-14 3.149335486980579e-14 -5.994068914636904 3.690623954126214e-15 1.1989114538655271e-14 3.690623954126214e-15 -5.994285244322902" pbc="T T T"
Ti       3.20084459       4.01418422       1.19352045        0
Ti      -1.87595840       4.77910761       3.58056135        1
Ti       1.87595842       4.77910761       3.58056135        2
Ti       1.32488618       0.76492894       1.19352045        3
Ti       5.07680300       0.76492894       1.19352045        4
Ti       0.00000001       1.52985233       3.58056135        5
Al       0.00000001       3.69602251       1.19352045        6
Al       3.20084459       1.84801403       3.58056135        7
