8
Lattice="6.437169508605265 1.6254843932539788e-15 -3.697245840750754e-45 -3.218584754302633 5.574752322918751 1.6990928446086323e-44 3.061814430859923e-45 -1.4479778204402548e-44 5.330837965412898" Properties=species:S:1:pos:R:3:tags:I:1 spacegroup="P 1" unit_cell=conventional n_minim_iter=1 energy=-10418.554739488542 free_energy=-10418.554739488542 pbc="T T T"
Ti       3.21858476       3.66258222       1.33270949        0
Ti      -1.56259203       4.61867006       3.99812847        1
Ti       1.56259205       4.61867006       3.99812847        2
Ti       1.65599272       0.95609342       1.33270949        3
Ti       4.78117680       0.95609342       1.33270949        4
Ti       0.00000001       1.91218126       3.99812847        5
Al       0.00000001       3.71650713       1.33270949        6
Al       3.21858476       1.85825635       3.99812847        7
8
Lattice="6.4229886976355015 1.62356086536503e-15 -3.6870100696959554e-45 -3.211494348817751 5.56247138037267 1.695223175425703e-44 3.083879360060113e-45 -1.453879130500672e-44 5.354403025185811" Properties=species:S:1:pos:R:3:tags:I:1 spacegroup="P 1" unit_cell=conventional n_minim_iter=2 stress="-8.161604834008827 2.2223039605838464e-14 2.913086627716113e-15 2.2223039605838464e-14 -8.161604834008823 1.904328285259208e-15 2.913086627716113e-15 1.904328285259208e-15 -4.377762270109928" pbc="T T T"
Ti       3.21149435       3.67650906       1.33860075        0
Ti      -1.57819825       4.61949301       4.01580227        1
Ti       1.57819826       4.61949301       4.01580227        2
Ti       1.63329610       0.94298951       1.33860075        3
Ti       4.78969261       0.94298951       1.33860075        4
Ti       0.00000001       1.88597345       4.01580227        5
Al       0.00000001       3.70831982       1.33860075        6
Al       3.21149435       1.85416269       4.01580227        7
8
Lattice="6.491870319282996 1.6052577579212405e-15 -3.753163445631044e-45 -3.2459351596414985 5.622124614573268 1.6874544103909137e-44 3.0022094358946106e-45 -1.4280781556202679e-44 5.241380653006529" Properties=species:S:1:pos:R:3:tags:I:1 spacegroup="P 1" unit_cell=conventional n_minim_iter=3 stress="-2.56468214682812 2.277860942832594e-14 -3.232439486505091e-15 2.277860942832594e-14 -2.564682146828143 -4.17514890349763e-15 -3.232439486505091e-15 -4.17514890349763e-15 -2.1703588066649333" pbc="T T T"
Ti       3.24593517       3.79315073       1.31034516        0
Ti      -1.66199243       4.70764049       3.93103549        1
Ti       1.66199245       4.70764049       3.93103549        2
Ti       1.58394273       0.91449538       1.31034516        3
Ti       4.90792761       0.91449538       1.31034516        4
Ti       0.00000001       1.82898514       3.93103549        5
Al       0.00000001       3.74808870       1.31034516        6
Al       3.24593517       1.87404717       3.93103549        7
8
Lattice="6.489060907074544 1.583965711084233e-15 -3.756570149445028e-45 -3.2445304535372723 5.619691592231046 1.6900819989350444e-44 2.991600569883925e-45 -1.4310212051477023e-44 5.245920103818818" Properties=species:S:1:pos:R:3:tags:I:1 spacegroup="P 1" unit_cell=conventional n_minim_iter=4 stress="-2.983085874055246 4.6044470990385384e-14 -1.1677169606123121e-14 4.6044470990385384e-14 -2.9830858740552966 -5.858036365320174e-15 -1.1677169606123121e-14 -5.858036365320174e-15 -2.9795269065571524" pbc="T T T"
Ti       3.24453046       3.78160402       1.31148002        0
Ti      -1.65269504       4.70065062       3.93444008        1
Ti       1.65269505       4.70065062       3.93444008        2
Ti       1.59183541       0.91905222       1.31148002        3
Ti       4.89722551       0.91905222       1.31148002        4
Ti       0.00000001       1.83809882       3.93444008        5
Al       0.00000001       3.74646669       1.31148002        6
Al       3.24453046       1.87323616       3.93444008        7
8
Lattice="6.490207895292141 1.5295135276912493e-15 -3.8067818351689634e-45 -3.245103947646071 5.620684913165327 1.6804679166285858e-44 2.985771966181551e-45 -1.4025783533272892e-44 5.244066087132215" Properties=species:S:1:pos:R:3:tags:I:1 spacegroup="P 1" unit_cell=conventional n_minim_iter=5 stress="-2.8738938297615095 1.2988235656316205e-14 -3.323913829032081e-17 1.2988235656316205e-14 -2.873893829761473 3.5367690113437026e-17 -3.323913829032081e-17 3.5367690113437026e-17 -2.8730376625997796" pbc="T T T"
Ti       3.24510395       3.78420235       1.31101652        0
Ti      -1.65465852       4.70244644       3.93304956        1
Ti       1.65465853       4.70244644       3.93304956        2
Ti       1.59044543       0.91824972       1.31101652        3
Ti       4.89976248       0.91824972       1.31101652        4
Ti       0.00000001       1.83649381       3.93304956        5
Al       0.00000001       3.74712890       1.31101652        6
Al       3.24510395       1.87356726       3.93304956        7
8
Lattice="6.490245919099801 1.5104177907617235e-15 -3.8114412630533955e-45 -3.245122959549901 5.620717842748711 1.6787347498621136e-44 2.9790608771965126e-45 -1.4045487471928019e-44 5.244004641455542" Properties=species:S:1:pos:R:3:tags:I:1 spacegroup="P 1" unit_cell=conventional n_minim_iter=6 stress="-2.870569334995677 3.956406092647244e-15 1.0332309728236176e-14 3.956406092647244e-15 -2.870569334995597 1.898812639464322e-15 1.0332309728236176e-14 1.898812639464322e-15 -2.8705744439384797" pbc="T T T"
Ti       3.24512297       3.78427861       1.31100116        0
Ti      -1.65471505       4.70250104       3.93300348        1
Ti       1.65471506       4.70250104       3.93300348        2
Ti       1.59040791       0.91822806       1.31100116        3
Ti       4.89983802       0.91822806       1.31100116        4
Ti       0.00000001       1.83645049       3.93300348        5
Al       0.00000001       3.74715085       1.31100116        6
Al       3.24512297       1.87357824       3.93300348        7
