8
Lattice="6.395076906114929 1.5188852157087686e-15 -3.71220768512317e-45 -3.1975384530574664 5.53829905985072 1.6660239440811823e-44 2.956148312462732e-45 -1.3612765911801858e-44 5.092601871345397" Properties=species:S:1:pos:R:3:tags:I:1 spacegroup="P 1" unit_cell=conventional n_minim_iter=1 energy=-10363.341011318304 free_energy=-10363.341011318304 pbc="T T T"
Ti       3.19753846       3.77997094       1.27315047        0
Ti      -1.67477683       4.65913777       3.81945140        1
Ti       1.67477684       4.65913777       3.81945140        2
Ti       1.52276163       0.87917238       1.27315047        3
Ti       4.87231529       0.87917238       1.27315047        4
Ti       0.00000001       1.75833921       3.81945140        5
Al       0.00000001       3.69220492       1.27315047        6
Al       3.19753846       1.84610523       3.81945140        7
8
Lattice="6.425925425612711 1.6004049022018347e-15 -3.74960415067916e-45 -3.212962712806357 5.565014661404939 1.6702542117317362e-44 2.912553726971704e-45 -1.352459286218464e-44 5.043823795114316" Properties=species:S:1:pos:R:3:tags:I:1 spacegroup="P 1" unit_cell=conventional n_minim_iter=2 stress="-10.109483402095979 1.4312159505039626e-15 1.2430533821507969e-15 1.4312159505039626e-15 -10.109483402095869 -8.529328735181313e-15 1.2430533821507969e-15 -8.529328735181313e-15 -12.575093350479719" pbc="T T T"
Ti       3.21296272       3.81185194       1.26095595        0
Ti      -1.69467443       4.68843608       3.78286784        1
Ti       1.69467444       4.68843608       3.78286784        2
Ti       1.51828829       0.87658972       1.26095595        3
Ti       4.90763715       0.87658972       1.26095595        4
Ti       0.00000001       1.75317386       3.78286784        5
Al       0.00000001       3.71001534       1.26095595        6
Al       3.21296272       1.85501046       3.78286784        7
8
Lattice="6.432622927025445 1.6273890096174989e-15 -3.7533910279996104e-45 -3.2163114635127243 5.57081486777025 1.6718039757716141e-44 2.9034721863567554e-45 -1.3505279902332877e-44 5.033326232499139" Properties=species:S:1:pos:R:3:tags:I:1 spacegroup="P 1" unit_cell=conventional n_minim_iter=3 stress="-8.42668664310695 -1.7258461487648962e-14 7.13418460595796e-15 -1.7258461487648962e-14 -8.426686643106843 -1.0363763046006394e-14 7.13418460595796e-15 -1.0363763046006394e-14 -8.792968712313778" pbc="T T T"
Ti       3.21631147       3.85605973       1.25833156        0
Ti      -1.73128512       4.71344009       3.77499467        1
Ti       1.73128513       4.71344009       3.77499467        2
Ti       1.48502634       0.85738593       1.25833156        3
Ti       4.94759659       0.85738593       1.25833156        4
Ti       0.00000001       1.71476629       3.77499467        5
Al       0.00000001       3.71388215       1.25833156        6
Al       3.21631147       1.85694386       3.77499467        7
8
Lattice="6.434304319542614 1.6162853029831135e-15 -3.753589476848787e-45 -3.2171521597713086 5.5722709964038515 1.6721108340093936e-44 2.899131299989386e-45 -1.3506373336733929e-44 5.030695989700078" Properties=species:S:1:pos:R:3:tags:I:1 spacegroup="P 1" unit_cell=conventional n_minim_iter=4 stress="-8.007496289381427 1.8899624044665778e-15 3.458100557411453e-15 1.8899624044665778e-15 -8.007496289381294 -9.14508348112198e-15 3.458100557411453e-15 -9.14508348112198e-15 -8.031653501392658" pbc="T T T"
Ti       3.21715217       3.86494775       1.25767399        0
Ti      -1.73856202       4.71861216       3.77302199        1
Ti       1.73856203       4.71861216       3.77302199        2
Ti       1.47859014       0.85366999       1.25767399        3
Ti       4.95571419       0.85366999       1.25767399        4
Ti       0.00000001       1.70733440       3.77302199        5
Al       0.00000001       3.71485291       1.25767399        6
Al       3.21715217       1.85742924       3.77302199        7
8
Lattice="6.434686079579182 1.6244367131485236e-15 -3.6230039928626335e-45 -3.2173430397895926 5.572601610293669 1.689876039664649e-44 3.0171427775161227e-45 -1.3653537819069481e-44 5.0300990804832075" Properties=species:S:1:pos:R:3:tags:I:1 spacegroup="P 1" unit_cell=conventional n_minim_iter=5 stress="-7.9442236273499445 -2.462168218267593e-15 -9.375796434456211e-18 -2.462168218267593e-15 -7.944223627349894 -1.904292013030756e-18 -9.375796434456211e-18 -1.904292013030756e-18 -7.944255079681449" pbc="T T T"
Ti       3.21734305       3.86619258       1.25752477        0
Ti      -1.73954463       4.71939988       3.77257431        1
Ti       1.73954465       4.71939988       3.77257431        2
Ti       1.47779841       0.85321288       1.25752477        3
Ti       4.95688769       0.85321288       1.25752477        4
Ti       0.00000001       1.70642018       3.77257431        5
Al       0.00000001       3.71507332       1.25752477        6
Al       3.21734305       1.85753945       3.77257431        7
8
Lattice="6.43470147798569 1.6170315094087027e-15 -3.6262195493431696e-45 -3.2173507389928466 5.572614945704881 1.68938577858318e-44 3.016002534574935e-45 -1.3659986467208704e-44 5.030075006198491" Properties=species:S:1:pos:R:3:tags:I:1 spacegroup="P 1" unit_cell=conventional n_minim_iter=6 stress="-7.942279918079244 5.298781057683713e-16 -5.719278362802746e-15 5.298781057683713e-16 -7.942279918079156 -2.3344888905195245e-15 -5.719278362802746e-15 -2.3344888905195245e-15 -7.942258986787635" pbc="T T T"
Ti       3.21735074       3.86622919       1.25751875        0
Ti      -1.73957249       4.71942485       3.77255625        1
Ti       1.73957250       4.71942485       3.77255625        2
Ti       1.47777825       0.85320125       1.25751875        3
Ti       4.95692324       0.85320125       1.25751875        4
Ti       0.00000001       1.70639691       3.77255625        5
Al       0.00000001       3.71508221       1.25751875        6
Al       3.21735074       1.85754389       3.77255625        7
