8
Lattice="6.490245919099801 1.5104177907617235e-15 -3.8114412630533955e-45 -3.245122959549901 5.620717842748711 1.6787347498621136e-44 2.9790608771965126e-45 -1.4045487471928019e-44 5.244004641455542" Properties=species:S:1:pos:R:3:tags:I:1 spacegroup="P 1" unit_cell=conventional n_minim_iter=6 stress="-2.870569334995677 3.956406092647244e-15 1.0332309728236176e-14 3.956406092647244e-15 -2.870569334995597 1.898812639464322e-15 1.0332309728236176e-14 1.898812639464322e-15 -2.8705744439384797" pbc="T T T"
Ti       3.24512297       3.78427861       1.31100116        0
Ti      -1.65471505       4.70250104       3.93300348        1
Ti       1.65471506       4.70250104       3.93300348        2
Ti       1.59040791       0.91822806       1.31100116        3
Ti       4.89983802       0.91822806       1.31100116        4
Ti       0.00000001       1.83645049       3.93300348        5
Al       0.00000001       3.74715085       1.31100116        6
Al       3.24512297       1.87357824       3.93300348        7
