8
Lattice="6.459031917876297 1.5340750755432828e-15 -3.7493322247726736e-45 -3.229515958938149 5.593685724735395 1.6826852888159962e-44 3.0061697850571893e-45 -1.364717959438827e-44 5.143531268655134" Properties=species:S:1:pos:R:3:tags:I:1 spacegroup="P 1" unit_cell=conventional n_minim_iter=5 stress="-5.932056650180388 1.619024732802563e-14 4.121876451436886e-15 1.619024732802563e-14 -5.932056650180449 -7.033189835507971e-15 4.121876451436886e-15 -7.033189835507971e-15 -5.932081769850769" pbc="T T T"
Ti       3.22951596       3.81777316       1.28588281        0
Ti      -1.69152571       4.70573224       3.85764845        1
Ti       1.69152572       4.70573224       3.85764845        2
Ti       1.53799025       0.88796468       1.28588281        3
Ti       4.92104168       0.88796468       1.28588281        4
Ti       0.00000001       1.77592377       3.85764845        5
Al       0.00000001       3.72912941       1.28588281        6
Al       3.22951596       1.86456751       3.85764845        7
