8
Lattice="6.39507690611493 1.5188852157087692e-15 -3.7122076851231704e-45 -3.1975384530574655 5.538299059850719 1.666023944081182e-44 2.976403772688077e-45 -1.3512050128770835e-44 5.092601871345397" Properties=species:S:1:pos:R:3:tags:I:1 spacegroup="P 1" unit_cell=conventional n_minim_iter=5 stress="-5.932056650180388 1.619024732802563e-14 4.121876451436886e-15 1.619024732802563e-14 -5.932056650180449 -7.033189835507971e-15 4.121876451436886e-15 -7.033189835507971e-15 -5.932081769850769" pbc="T T T"
Ti       3.19753846       3.77997094       1.27315047        0
Ti      -1.67477683       4.65913777       3.81945140        1
Ti       1.67477684       4.65913777       3.81945140        2
Ti       1.52276163       0.87917238       1.27315047        3
Ti       4.87231529       0.87917238       1.27315047        4
Ti       0.00000001       1.75833921       3.81945140        5
Al       0.00000001       3.69220492       1.27315047        6
Al       3.19753846       1.84610523       3.81945140        7
