8
Lattice="6.50626572358592 1.4348400712434064e-15 -1.52917716751137e-45 -3.253132861792961 5.634591400397349 3.1936292326391057e-46 1.2427364291383093e-45 7.387355803436714e-46 6.112763486704067" Properties=species:S:1:pos:R:3:tags:I:1 spacegroup="P 1" unit_cell=conventional n_minim_iter=7 stress="4.907020100721607 -1.1169023036610889e-13 -5.621593539575152e-15 -1.1169023036610889e-13 4.907020100721675 1.210085860357098e-14 -5.621593539575152e-15 1.210085860357098e-14 4.906618420165602" pbc="T T T"
Ti       3.25313287       3.10805599       1.52819087        0
Ti      -1.06508412       4.37132652       4.58457261        1
Ti       1.06508414       4.37132652       4.58457261        2
Ti       2.18804874       1.26327616       1.52819087        3
Ti       4.31821700       1.26327616       1.52819087        4
Ti       0.00000001       2.52654669       4.58457261        5
Al       0.00000001       3.75639991       1.52819087        6
Al       3.25313287       1.87820277       4.58457261        7
