1
Lattice="2.4315747943165897 2.241942979463677e-17 9.488443763530971e-51 1.2157873971582946 2.1058055430800873 -1.0099234834615044e-49 -3.395571398253664e-50 4.847895954084661e-49 2.3094523822179047" Properties=species:S:1:pos:R:3:forces:R:3 cutoff=-1.0 nneightol=1.2 n_minim_iter=1 energy=-162.4683591677425 stress="-0.27262970813814064 -3.9215343274954283e-16 -9.315132545618957e-18 -3.9215343274954283e-16 -0.27262970813814197 3.630701267780617e-17 -9.315132545618957e-18 3.630701267780617e-17 -0.2815406898695198" free_energy=-162.4683591677425 pbc="T T T"
Si       0.00000000       0.00000000       0.00000000      -0.00000000       0.00000000      -0.00000000
