1
Lattice="2.570412460405594 1.635446794623758e-17 3.788510451896889e-52 1.2852062302027971 2.226042488915306 2.5795675264062126e-51 -2.659873538611869e-51 -2.3297736818768468e-50 2.400045355775013" Properties=species:S:1:pos:R:3:forces:R:3 cutoff=-1.0 nneightol=1.2 n_minim_iter=1 energy=-162.7841535824517 stress="-0.07533975933424768 2.1316617291893777e-16 -5.4317898877121915e-18 2.1316617291893777e-16 -0.07533975933424787 7.073958923532159e-18 -5.4317898877121915e-18 7.073958923532159e-18 -0.0882949384011489" free_energy=-162.7841535824517 pbc="T T T"
Si       0.00000000       0.00000000       0.00000000      -0.00000000      -0.00000000       0.00000000
