2
Lattice="4.729300517978548 3.778736681171853e-17 2.0702580200941988e-16 3.778736681171913e-17 4.729300517978548 -2.678149513924554e-16 2.364650258989274 2.364650258989274 1.3045459432755981" Properties=species:S:1:pos:R:3 cutoff=-1.0 nneightol=1.2 n_minim_iter=1 energy=-325.68377387888876 free_energy=-325.68377387888876 pbc="T T T"
Si      -0.00000000      -1.18232513      -0.32613649
Si      -0.00000000       1.18232513       0.32613649
