2
Lattice="5.003069059496292 9.873979826534689e-17 2.6437099658445333e-15 9.873979826536168e-17 5.003069059496292 -4.420310023932356e-15 2.5015345297481453 2.501534529748147 1.503116665387647" Properties=species:S:1:pos:R:3 cutoff=-1.0 nneightol=1.2 n_minim_iter=1 energy=-325.4597947576623 free_energy=-325.4597947576623 pbc="T T T"
Si      -0.00000000      -1.25076726      -0.37577917
Si      -0.00000000       1.25076727       0.37577917
