2
Lattice="4.9661512029914245 3.967981658947422e-17 2.1739397439239004e-16 3.9679816589474884e-17 4.9661512029914245 -2.8122753840249093e-16 2.4830756014957123 2.4830756014957123 1.369879621928707" Properties=species:S:1:pos:R:3 cutoff=-1.0 nneightol=1.2 n_minim_iter=1 stress="0.04968385607668376 4.149128214902561e-16 -5.2734790320090786e-17 4.149128214902561e-16 0.049683856076681784 3.6130289720387776e-17 -5.2734790320090786e-17 3.6130289720387776e-17 0.0380354068367177" pbc="T T T"
Si      -0.00000000      -1.24153780      -0.34246991
Si      -0.00000000       1.24153780       0.34246991
