2
Lattice="5.002587041774355 8.955566753571106e-18 1.8602150691149555e-16 8.955566753570863e-18 5.002587041774355 -2.419486917683499e-16 2.5012935208871774 2.5012935208871774 1.3792194861799487" Properties=species:S:1:pos:R:3:forces:R:3 cutoff=-1.0 nneightol=1.2 n_minim_iter=1 energy=-325.6036682411934 stress="0.05691297790694216 -1.0266781649692352e-17 -2.5649265022538968e-17 -1.0266781649692352e-17 0.05691297790694192 1.276683194961126e-16 -2.5649265022538968e-17 1.276683194961126e-16 0.03846287509567379" free_energy=-325.6036682411934 pbc="T T T"
Si      -0.00000000      -1.25064676      -0.34480487       0.00000000      -0.00000000      -0.00000000
Si      -0.00000000       1.25064676       0.34480487      -0.00000000       0.00000000       0.00000000
2
Lattice="4.927307234120513 -1.0531998946836375e-17 2.529547361496405e-15 -1.0531998946836671e-17 4.927307234120513 -4.422591469449165e-15 2.4636536170602565 2.463653617060255 1.4216850822122515" Properties=species:S:1:pos:R:3:forces:R:3 cutoff=-1.0 nneightol=1.2 n_minim_iter=2 energy=-325.6149810725102 stress="0.04381408483026814 1.8062120675664083e-16 1.8564519337158803e-16 1.8062120675664083e-16 0.043814084830268135 -2.3360191027124473e-16 1.8564519337158803e-16 -2.3360191027124473e-16 0.04080536602889581" free_energy=-325.6149810725102 pbc="T T T"
Si      -0.00000000      -1.23182681      -0.35542127       0.00000000       0.00000000      -0.00000000
Si      -0.00000000       1.23182681       0.35542127      -0.00000000      -0.00000000       0.00000000
