2
Lattice="4.96525291128568 8.888731675043565e-18 1.8463323497244887e-16 8.8887316750433e-18 4.96525291128568 -2.4014303722308886e-16 2.48262645564284 2.48262645564284 1.3689264198445548" Properties=species:S:1:pos:R:3:forces:R:3 cutoff=-1.0 nneightol=1.2 n_minim_iter=1 energy=-325.6398971035858 stress="0.04800799073826773 5.877856414361827e-17 1.4237086241104982e-16 5.877856414361827e-17 0.04800799073826795 5.125706323686568e-17 1.4237086241104982e-16 5.125706323686568e-17 0.034414511944511755" free_energy=-325.6398971035858 pbc="T T T"
Si      -0.00000000      -1.24131323      -0.34223160       0.00000000      -0.00000000      -0.00000000
Si      -0.00000000       1.24131323       0.34223160      -0.00000000       0.00000000       0.00000000
