2
Lattice="4.390493405958671 1.290655616427758e-17 -6.153408770748721e-17 1.2906556164277258e-17 4.390493405958671 3.353825599848375e-16 2.1952467029793357 2.1952467029793357 1.193726333686606" Properties=species:S:1:pos:R:3:forces:R:3 cutoff=-1.0 nneightol=1.2 n_minim_iter=1 energy=-324.8928227549735 stress="-0.29226513240886115 3.9935869457669175e-16 -2.0349736211582933e-16 3.9935869457669175e-16 -0.29226513240886115 2.8930278416286813e-16 -2.0349736211582933e-16 2.8930278416286813e-16 -0.27838454871579776" free_energy=-324.8928227549735 pbc="T T T"
Si      -0.00000000      -1.09762335      -0.29843158      -0.00000000       0.00000000      -0.00000000
Si      -0.00000000       1.09762335       0.29843158       0.00000000      -0.00000000       0.00000000
