2
Lattice="4.9635387355505936 -1.0609442896801881e-17 2.5481476424390797e-15 -1.060944289680218e-17 4.9635387355505936 -4.455111692267909e-15 2.4817693677752968 2.4817693677752954 1.4321390244248668" Properties=species:S:1:pos:R:3:forces:R:3 cutoff=-1.0 nneightol=1.2 n_minim_iter=2 energy=-325.6149810725102 stress="0.04381408483026814 1.8062120675664083e-16 1.8564519337158803e-16 1.8062120675664083e-16 0.043814084830268135 -2.3360191027124473e-16 1.8564519337158803e-16 -2.3360191027124473e-16 0.04080536602889581" free_energy=-325.6149810725102 pbc="T T T"
Si      -0.00000000      -1.24088468      -0.35803476       0.00000000       0.00000000      -0.00000000
Si      -0.00000000       1.24088469       0.35803476      -0.00000000      -0.00000000       0.00000000
