2
Lattice="4.577544237233817 1.3456421939306602e-17 -6.415566145631057e-17 1.3456421939306309e-17 4.577544237233819 3.4967106490667877e-16 2.2887721186169085 2.2887721186169094 1.244583374657918" Properties=species:S:1:pos:R:3:forces:R:3 cutoff=-1.0 nneightol=1.2 n_minim_iter=2 energy=-325.504125038019 stress="-0.12021686430933827 1.2484154149792367e-16 2.2356457486935173e-17 1.2484154149792367e-16 -0.12021686430933609 9.71966597209895e-17 2.2356457486935173e-17 9.71966597209895e-17 -0.12049418050204562" free_energy=-325.504125038019 pbc="T T T"
Si      -0.00000000      -1.14438606      -0.31114584      -0.00000000      -0.00000000       0.00000000
Si      -0.00000000       1.14438606       0.31114584       0.00000000       0.00000000      -0.00000000
