2
Lattice="3.2110779489821435 -5.47944409837163e-33 -6.961158266138998e-35 5.47944409837163e-33 3.2110779489821435 2.796361552855041e-18 6.961158266138998e-35 -2.7963615528551246e-18 3.2110779489821435" Properties=species:S:1:pos:R:3:forces:R:3 n_minim_iter=1 energy=-325.0854686789907 stress="0.059930536317565924 1.8599703945191803e-18 6.905467549228959e-17 1.8599703945191803e-18 0.05993053631756594 5.543235710989557e-17 6.905467549228959e-17 5.543235710989557e-17 0.059930536317565807" free_energy=-325.0854686789907 pbc="T T T"
Si       0.00000000       0.00000000       0.00000000      -0.00000000      -0.00000000      -0.00000000
Si       1.60553897       1.60553897       1.60553897       0.00000000       0.00000000       0.00000000
