2
Lattice="2.866135179107891 -4.890827236777669e-33 -6.213371618787084e-35 4.890827236777669e-33 2.866135179107891 2.495968751765476e-18 6.213371618787084e-35 -2.495968751765476e-18 2.866135179107891" Properties=species:S:1:pos:R:3:forces:R:3 n_minim_iter=1 energy=-324.5266775392149 stress="-0.28379617956533804 6.597901142001473e-17 2.5142755608129553e-18 6.597901142001473e-17 -0.2837961795653383 6.446860412340914e-18 2.5142755608129553e-18 6.446860412340914e-18 -0.28379617956533804" free_energy=-324.5266775392149 pbc="T T T"
Si       0.00000000       0.00000000       0.00000000      -0.00000000      -0.00000000      -0.00000000
Si       1.43306759       1.43306759       1.43306759       0.00000000       0.00000000       0.00000000
