2
Lattice="2.9530401952303786 -5.039123598708776e-33 -6.401769278688723e-35 5.039123598708776e-33 2.9530401952303786 2.5716498313581412e-18 6.401769278688722e-35 -2.57164983135814e-18 2.9530401952303786" Properties=species:S:1:pos:R:3:forces:R:3 n_minim_iter=1 energy=-325.0183943595804 stress="-0.144570748765244 9.784492145815701e-18 1.5072496506893375e-17 9.784492145815701e-18 -0.14457074876524395 -2.644002180538837e-18 1.5072496506893375e-17 -2.644002180538837e-18 -0.14457074876524406" free_energy=-325.0183943595804 pbc="T T T"
Si       0.00000000       0.00000000       0.00000000      -0.00000000      -0.00000000      -0.00000000
Si       1.47652010       1.47652010       1.47652010       0.00000000       0.00000000       0.00000000
