2
Lattice="3.2809057606079493 -5.598599595807157e-33 -7.112534986302223e-35 5.5985995958071555e-33 3.2809057606079493 2.857170979114001e-18 7.112534986302221e-35 -2.8571709791139896e-18 3.2809057606079493" Properties=species:S:1:pos:R:3:forces:R:3 n_minim_iter=1 energy=-324.9844956179504 stress="0.07675613201794892 3.170366078521155e-17 1.1638052693305509e-17 3.170366078521155e-17 0.07675613201794892 -2.006560809190605e-18 1.1638052693305509e-17 -2.006560809190605e-18 0.07675613201794905" free_energy=-324.9844956179504 pbc="T T T"
Si       0.00000000       0.00000000       0.00000000       0.00000000       0.00000000      -0.00000000
Si       1.64045288       1.64045288       1.64045288      -0.00000000      -0.00000000       0.00000000
