2
Lattice="3.008249950997838 -5.133334569360685e-33 -6.521456142053091e-35 5.133334569360685e-33 3.008249950997837 2.619729149525916e-18 6.521456142053092e-35 -2.619729149525914e-18 3.008249950997838" Properties=species:S:1:pos:R:3:forces:R:3 n_minim_iter=1 energy=-325.194961352913 stress="-0.030200935845247964 3.615670765994986e-17 9.399813317001124e-18 3.615670765994986e-17 -0.030200935845247693 3.71300381643093e-18 9.399813317001124e-18 3.71300381643093e-18 -0.030200935845247957" free_energy=-325.194961352913 pbc="T T T"
Si       0.00000000       0.00000000       0.00000000       0.00000000       0.00000000      -0.00000000
Si       1.50412498       1.50412498       1.50412498      -0.00000000      -0.00000000       0.00000000
