2
Lattice="2.9809007103711487 -5.086665308281439e-33 -6.462166895424415e-35 5.0866653082814396e-33 2.9809007103711496 2.5959121116952105e-18 6.462166895424415e-35 -2.5959121116952737e-18 2.9809007103711487" Properties=species:S:1:pos:R:3:forces:R:3 n_minim_iter=1 energy=-325.1629211446447 stress="-0.05843760802692746 -1.2744372707021405e-19 9.87688884794159e-18 -1.2744372707021405e-19 -0.05843760802692751 -1.2999260161161834e-17 9.87688884794159e-18 -1.2999260161161834e-17 -0.058437608026927795" free_energy=-325.1629211446447 pbc="T T T"
Si       0.00000000       0.00000000       0.00000000       0.00000000      -0.00000000       0.00000000
Si       1.49045036       1.49045036       1.49045036      -0.00000000       0.00000000      -0.00000000
