2
Lattice="2.8051349669763024 -4.786735321952056e-33 -6.08113187323664e-35 4.786735321952056e-33 2.8051349669763024 2.442846824913826e-18 6.08113187323664e-35 -2.442846824913826e-18 2.8051349669763024" Properties=species:S:1:pos:R:3:forces:R:3 n_minim_iter=1 energy=-324.1468421385083 stress="-0.18017377430659043 -5.232149113314694e-17 2.6602815994848276e-17 -5.232149113314694e-17 -0.18017377430659046 1.2181496245794632e-17 2.6602815994848276e-17 1.2181496245794632e-17 -0.18017377430658998" free_energy=-324.1468421385083 pbc="T T T"
Si       0.00000000       0.00000000       0.00000000       0.00000000      -0.00000000      -0.00000000
Si       1.40256748       1.40256748       1.40256748      -0.00000000       0.00000000       0.00000000
