4
Lattice="1.8438834845049725 -3.193699878399753 -1.6158605944169308e-35 1.843883484504973 3.193699878399753 1.6158605944169397e-35 -1.866818209167759e-48 -8.125153229499215e-35 6.047621076328089" Properties=species:S:1:pos:R:3:forces:R:3 cutoff=-1.0 nneightol=1.2 n_minim_iter=3 energy=-652.4081351958027 stress="-0.06996439942783264 2.770190306756403e-16 4.095209345875129e-17 2.770190306756403e-16 -0.06996439942783204 -6.041786620092093e-17 4.095209345875129e-17 -6.041786620092093e-17 -0.06997598893350947" free_energy=-652.4081351958027 pbc="T T T"
Si       1.84388348       1.06456663       0.37861640       0.00000000      -0.00000000      -0.00023197
Si       1.84388348      -1.06456663       3.40242694      -0.00000000       0.00000000      -0.00023197
Si       1.84388348       1.06456663       2.64519414       0.00000000      -0.00000000       0.00023197
Si       1.84388348      -1.06456663      -0.37861640      -0.00000000       0.00000000       0.00023197
