4
Lattice="2.0320507982354297 -3.5196152261046585 -4.385663336741002e-19 2.032050798235429 3.5196152261046585 4.385663336741262e-19 -1.457381357926604e-32 -1.5954226774938768e-18 6.686705765038449" Properties=species:S:1:pos:R:3:forces:R:3 cutoff=-1.0 nneightol=1.2 n_minim_iter=3 energy=-652.2939047303802 stress="0.05455318350511759 5.4495547018158753e-17 3.140748313330844e-17 5.4495547018158753e-17 0.05455318350511786 -3.1124394484042423e-17 3.140748313330844e-17 -3.1124394484042423e-17 0.0541494030869241" free_energy=-652.2939047303802 pbc="T T T"
Si       2.03205080       1.17320508       0.42560885       0.00000000       0.00000000      -0.00139454
Si       2.03205080      -1.17320508       3.76896174      -0.00000000       0.00000000      -0.00139454
Si       2.03205080       1.17320508       2.91774403       0.00000000      -0.00000000       0.00139454
Si       2.03205080      -1.17320508      -0.42560885      -0.00000000      -0.00000000       0.00139454
