2
Lattice="2.876629337313236 1.0125596532274436e-16 2.876629337313236 2.876629337313236 2.876629337313236 1.812194926245041e-16 1.1283749715448638e-16 2.876629337313236 2.876629337313236" Properties=species:S:1:pos:R:3 n_minim_iter=1 energy=-326.1138429081547 free_energy=-326.1138429081547 pbc="T T T"
Si       0.00000000       0.00000000       0.00000000
Si       1.43831467       1.43831467       1.43831467
