2
Lattice="2.897325223970443 1.0198445055179471e-16 2.897325223970443 2.897325223970443 2.897325223970443 1.8252327480832076e-16 1.136493056212572e-16 2.897325223970443 2.897325223970443" Properties=species:S:1:pos:R:3 n_minim_iter=1 stress="0.06457933852994324 -1.3908270385621293e-17 1.2936474570215703e-16 -1.3908270385621293e-17 0.06457933852994333 -7.032592102678255e-17 1.2936474570215703e-16 -7.032592102678255e-17 0.0645793385299442" pbc="T T T"
Si       0.00000000       0.00000000       0.00000000
Si       1.44866261       1.44866261       1.44866261
