2
Lattice="2.650933265692334 9.331157245116551e-17 2.650933265692334 2.650933265692334 2.650933265692334 1.6700127999072595e-16 1.0398443447137809e-16 2.650933265692334 2.650933265692334" Properties=species:S:1:pos:R:3 n_minim_iter=1 stress="-0.03842193406917373 3.136262015902803e-16 3.383960256193886e-17 3.136262015902803e-16 -0.03842193406917349 3.843309078119e-16 3.383960256193886e-17 3.843309078119e-16 -0.03842193406916343" pbc="T T T"
Si      -0.00000000       0.00000000       0.00000000
Si       1.32546663       1.32546663       1.32546663
