2
Lattice="2.675255112950268 9.416768974462072e-17 2.675255112950268 2.675255112950268 2.675255112950268 1.685334874123085e-16 1.0493847339991181e-16 2.675255112950268 2.675255112950268" Properties=species:S:1:pos:R:3 n_minim_iter=1 stress="-0.03842193406917373 3.136262015902803e-16 3.383960256193886e-17 3.136262015902803e-16 -0.03842193406917349 3.843309078119e-16 3.383960256193886e-17 3.843309078119e-16 -0.03842193406916343" pbc="T T T"
Si       0.00000000       0.00000000       0.00000000
Si       1.33762756       1.33762756       1.33762756
