2
Lattice="2.855631294283535 1.0051684433510722e-16 2.855631294283535 2.855631294283535 2.855631294283535 1.7989667544587376e-16 1.1201383642424206e-16 2.855631294283535 2.855631294283535" Properties=species:S:1:pos:R:3 n_minim_iter=1 stress="0.054837573437494215 -1.7331131389754466e-16 -9.870513256576259e-18 -1.7331131389754466e-16 0.05483757343749457 1.9219565435446602e-16 -9.870513256576259e-18 1.9219565435446602e-16 0.05483757343749524" pbc="T T T"
Si       0.00000000       0.00000000       0.00000000
Si       1.42781565       1.42781565       1.42781565
