2
Lattice="2.7907079625837232 9.823157437072133e-17 2.7907079625837232 2.7907079625837232 2.7907079625837232 1.7580668961505365e-16 1.0946718011335999e-16 2.7907079625837232 2.7907079625837232" Properties=species:S:1:pos:R:3 n_minim_iter=1 stress="0.020684945798176962 -5.620115751823212e-16 2.1404247423011006e-16 -5.620115751823212e-16 0.020684945798176983 -2.0277023091282263e-16 2.1404247423011006e-16 -2.0277023091282263e-16 0.020684945798174044" pbc="T T T"
Si       0.00000000       0.00000000       0.00000000
Si       1.39535398       1.39535398       1.39535398
