2
Lattice="2.5751504546572344 9.064405405152458e-17 2.5751504546572344 2.5751504546572344 2.5751504546572344 1.6222717774984908e-16 1.010118086229194e-16 2.5751504546572344 2.5751504546572344" Properties=species:S:1:pos:R:3 n_minim_iter=1 stress="-0.1100250410360942 2.1231284799840804e-16 -4.81023195288227e-17 2.1231284799840804e-16 -0.11002504103609388 5.903903445320837e-16 -4.81023195288227e-17 5.903903445320837e-16 -0.11002504103608009" pbc="T T T"
Si       0.00000000       0.00000000       0.00000000
Si       1.28757523       1.28757523       1.28757523
