1
Lattice="2.8489224585783743 2.02200829636125e-16 -2.3734234556286843e-50 1.424461229289187 2.467239222540892 -4.1464653492332665e-50 3.2232096409779765e-49 5.425270491154436e-49 2.659254452463213" Properties=species:S:1:pos:R:3:forces:R:3 cutoff=-1.0 nneightol=1.2 n_minim_iter=1 energy=-162.6318863943734 stress="0.0935684135993733 1.2227257617129474e-17 -2.877001792265756e-18 1.2227257617129474e-17 0.09356841359937319 -1.0115909527644115e-17 -2.877001792265756e-18 -1.0115909527644115e-17 0.09818222244495076" free_energy=-162.6318863943734 pbc="T T T"
Si       0.00000000       0.00000000       0.00000000      -0.00000000      -0.00000000      -0.00000000
