4
Lattice="4.220908588980298 0.0 0.0 0.0 4.220908588980298 0.0 0.0 0.0 4.220908588980298" Properties=species:S:1:pos:R:3 n_minim_iter=1 stress="0.06071784584161504 -9.784845086670807e-18 -3.4817511051190824e-18 -9.784845086670807e-18 0.06071784584161509 3.0954617350102635e-18 -3.4817511051190824e-18 3.0954617350102635e-18 0.060717845841615235" pbc="T T T"
Al       0.00000000       0.00000000       0.00000000
Al       2.11045429       2.11045429       0.00000000
Al       2.11045429       0.00000000       2.11045429
Al       0.00000000       2.11045429       2.11045429
