4
Lattice="3.6741811000284557 0.0 0.0 0.0 3.6741811000284557 0.0 0.0 0.0 3.6741811000284557" Properties=species:S:1:pos:R:3 n_minim_iter=1 stress="-0.17233012556454622 -4.0857249987008504e-17 6.034520812665258e-19 -4.0857249987008504e-17 -0.1723301255645461 3.714239473710106e-18 6.034520812665258e-19 3.714239473710106e-18 -0.17233012556454608" pbc="T T T"
Al       0.00000000       0.00000000       0.00000000
Al       1.83709055       1.83709055       0.00000000
Al       1.83709055       0.00000000       1.83709055
Al       0.00000000       1.83709055       1.83709055
