4
Lattice="4.190758212686589 0.0 0.0 0.0 4.190758212686589 0.0 0.0 0.0 4.190758212686589" Properties=species:S:1:pos:R:3 n_minim_iter=1 stress="0.05052530364573357 -2.6915031910647632e-18 2.49286721448029e-19 -2.6915031910647632e-18 0.05052530364573352 -5.100663006855398e-19 2.49286721448029e-19 -5.100663006855398e-19 0.05052530364573363" pbc="T T T"
Al       0.00000000       0.00000000       0.00000000
Al       2.09537911       2.09537911       0.00000000
Al       2.09537911       0.00000000       2.09537911
Al       0.00000000       2.09537911       2.09537911
