4
Lattice="4.308869380063768 0.0 0.0 0.0 4.308869380063768 0.0 0.0 0.0 4.308869380063768" Properties=species:S:1:pos:R:3 n_minim_iter=1 stress="0.07168689561274046 -6.02281472565615e-18 -2.353778957003226e-20 -6.02281472565615e-18 0.0716868956127405 -1.64993758700949e-18 -2.353778957003226e-20 -1.64993758700949e-18 0.0716868956127404" pbc="T T T"
Al       0.00000000       0.00000000       0.00000000
Al       2.15443469       2.15443469       0.00000000
Al       2.15443469       0.00000000       2.15443469
Al       0.00000000       2.15443469       2.15443469
