4
Lattice="3.7515549107338066 0.0 0.0 0.0 3.7515549107338066 0.0 0.0 0.0 3.7515549107338066" Properties=species:S:1:pos:R:3 n_minim_iter=1 stress="-0.13866317005164192 -2.289805168393832e-17 2.397549349455386e-18 -2.289805168393832e-17 -0.13866317005164194 -6.340939978475831e-18 2.397549349455386e-18 -6.340939978475831e-18 -0.13866317005164236" pbc="T T T"
Al       0.00000000       0.00000000       0.00000000
Al       1.87577746       1.87577746       0.00000000
Al       1.87577746       0.00000000       1.87577746
Al       0.00000000       1.87577746       1.87577746
