8
Lattice="5.660688038817652 1.5429715633158764e-17 6.078478926763612e-49 -2.830344019408826 4.902299644514799 -1.471147700936889e-48 -4.934071140650277e-49 1.094041956058612e-48 4.594938606363713" Properties=species:S:1:pos:R:3:tags:I:1 spacegroup="P 1" unit_cell=conventional n_minim_iter=1 energy=-9788.797379714917 free_energy=-9788.797379714917 pbc="T T T"
Ti       2.83034402       3.25950355       1.14873465        0
Ti      -1.40763662       4.08090405       3.44620395        1
Ti       1.40763663       4.08090405       3.44620395        2
Ti       1.42270740       0.82140541       1.14873465        3
Ti       4.23798065       0.82140541       1.14873465        4
Ti       0.00000000       1.64280591       3.44620395        5
Al       0.00000000       3.26820467       1.14873465        6
Al       2.83034402       1.63410479       3.44620395        7
8
Lattice="5.682345832070936 -4.247954738968467e-17 6.157314621717e-49 -2.841172916035468 4.921055843662055 -1.466869918048371e-48 -4.865458316717101e-49 1.0728697722917002e-48 4.559978896298659" Properties=species:S:1:pos:R:3:tags:I:1 spacegroup="P 1" unit_cell=conventional n_minim_iter=2 stress="-0.3146872189041211 -8.605549744970534e-16 -2.553125226671866e-18 -8.605549744970534e-16 -0.3146872189041194 -6.20481239160192e-18 -2.553125226671866e-18 -6.20481239160192e-18 -0.31324123264251" pbc="T T T"
Ti       2.84117292       3.27300436       1.13999472        0
Ti      -1.41391419       4.09703256       3.41998417        1
Ti       1.41391420       4.09703256       3.41998417        2
Ti       1.42725873       0.82403313       1.13999472        3
Ti       4.25508712       0.82403313       1.13999472        4
Ti       0.00000000       1.64806134       3.41998417        5
Al       0.00000000       3.28070882       1.13999472        6
Al       2.84117292       1.64035687       3.41998417        7
8
Lattice="5.681463216525777 -5.194350690070425e-17 5.72476842930715e-49 -2.8407316082628884 4.920291476178172 -1.466099917608012e-48 -4.965720794176769e-49 1.0680132106706952e-48 4.561395792166982" Properties=species:S:1:pos:R:3:tags:I:1 spacegroup="P 1" unit_cell=conventional n_minim_iter=3 stress="-0.31299636047563445 -7.175564133583664e-16 6.1553750382711996e-18 -7.175564133583664e-16 -0.31299636047563223 -3.4372710237036933e-18 6.1553750382711996e-18 -3.4372710237036933e-18 -0.3112871385417614" pbc="T T T"
Ti       2.84073161       3.27358303       1.14034895        0
Ti      -1.41463599       4.09693972       3.42104684        1
Ti       1.41463600       4.09693972       3.42104684        2
Ti       1.42609562       0.82336161       1.14034895        3
Ti       4.25536761       0.82336161       1.14034895        4
Ti       0.00000000       1.64671829       3.42104684        5
Al       0.00000000       3.28019924       1.14034895        6
Al       2.84073161       1.64010208       3.42104684        7
8
Lattice="5.682050362041269 -4.230296331114727e-17 5.355113248677392e-49 -2.8410251810206346 4.920799959110307 -1.4906576674209835e-48 -6.171903314269293e-49 9.519542504261037e-49 4.560453151908899" Properties=species:S:1:pos:R:3:tags:I:1 spacegroup="P 1" unit_cell=conventional n_minim_iter=4 stress="-0.3119084452063903 1.5423354336439007e-16 -2.8499363109009e-18 1.5423354336439007e-16 -0.31190844520638666 1.1372691862364205e-18 -2.8499363109009e-18 1.1372691862364205e-18 -0.31195742978847346" pbc="T T T"
Ti       2.84102519       3.27392739       1.14011329        0
Ti      -1.41478743       4.09736614       3.42033986        1
Ti       1.41478744       4.09736614       3.42033986        2
Ti       1.42623775       0.82344367       1.14011329        3
Ti       4.25581262       0.82344367       1.14011329        4
Ti       0.00000000       1.64688242       3.42033986        5
Al       0.00000000       3.28053823       1.14011329        6
Al       2.84102519       1.64027158       3.42033986        7
