8
Lattice="5.341224375169468 2.3608108747028305e-16 2.294262116346716e-48 -2.670612187584734 4.625635996209423 -3.332513276797735e-48 -1.932649208796618e-48 2.125723495216925e-48 4.499360813712918" Properties=species:S:1:pos:R:3:tags:I:1 spacegroup="P 1" unit_cell=conventional n_minim_iter=1 energy=-9784.088376326647 free_energy=-9784.088376326647 pbc="T T T"
Ti       2.67061219       3.12851475       1.12484020        0
Ti      -1.37406314       3.87707769       3.37452061        1
Ti       1.37406315       3.87707769       3.37452061        2
Ti       1.29654905       0.74856757       1.12484020        3
Ti       4.04467534       0.74856757       1.12484020        4
Ti       0.00000000       1.49713051       3.37452061        5
Al       0.00000000       3.08376196       1.12484020        6
Al       2.67061219       1.54188329       3.37452061        7
8
Lattice="5.394534363188691 2.0855254102802676e-16 2.361793486467455e-48 -2.6972671815943454 4.671803800109515 -3.334130181173616e-48 -1.84590230169951e-48 2.1856666542642143e-48 4.4108728457903865" Properties=species:S:1:pos:R:3:tags:I:1 spacegroup="P 1" unit_cell=conventional n_minim_iter=2 stress="0.04512622453156828 -2.1672233147064765e-16 -2.541711944666929e-18 -2.1672233147064765e-16 0.045126224531570516 -5.513794646752026e-18 -2.541711944666929e-18 -5.513794646752026e-18 0.0428979052681277" pbc="T T T"
Ti       2.69726719       3.15535270       1.10271821        0
Ti      -1.38397795       3.91358059       3.30815463        1
Ti       1.38397796       3.91358059       3.30815463        2
Ti       1.31328923       0.75823257       1.10271821        3
Ti       4.08124514       0.75823257       1.10271821        4
Ti       0.00000000       1.51646045       3.30815463        5
Al       0.00000000       3.11454054       1.10271821        6
Al       2.69726719       1.55727261       3.30815463        7
8
Lattice="5.38597246738246 2.6444602735607057e-16 2.3767495868701734e-48 -2.69298623369123 4.664388980836763 -3.2346240129114205e-48 -1.8630913708583068e-48 2.1971758621024887e-48 4.424907618955972" Properties=species:S:1:pos:R:3:tags:I:1 spacegroup="P 1" unit_cell=conventional n_minim_iter=3 stress="0.09326209148888888 -2.3151864015888526e-15 1.3177869141463412e-18 -2.3151864015888526e-15 0.09326209148889342 -1.8253578151201393e-18 1.3177869141463412e-18 -1.8253578151201393e-18 0.07126989943073107" pbc="T T T"
Ti       2.69298624       3.12470778       1.10622690        0
Ti      -1.35957915       3.89455071       3.31868071        1
Ti       1.35957916       3.89455071       3.31868071        2
Ti       1.33340708       0.76984760       1.10622690        3
Ti       4.05256539       0.76984760       1.10622690        4
Ti       0.00000000       1.53969054       3.31868071        5
Al       0.00000000       3.10959732       1.10622690        6
Al       2.69298624       1.55480100       3.31868071        7
8
Lattice="5.369292216248747 2.7162587131514373e-16 2.44228173174846e-48 -2.6846461081243733 4.649943459613464 -3.3259529231475685e-48 -1.8594501268528765e-48 2.341124650321803e-48 4.452443172715096" Properties=species:S:1:pos:R:3:tags:I:1 spacegroup="P 1" unit_cell=conventional n_minim_iter=4 stress="0.07463796763875631 5.053086621394324e-16 -2.279949923407889e-17 5.053086621394324e-16 0.07463796763875373 9.867641669305655e-17 -2.279949923407889e-17 9.867641669305655e-17 0.08146975674893715" pbc="T T T"
Ti       2.68464611       3.11569574       1.11311079        0
Ti      -1.35594458       3.88282193       3.33933238        1
Ti       1.35594459       3.88282193       3.33933238        2
Ti       1.32870153       0.76713084       1.11311079        3
Ti       4.04059069       0.76713084       1.11311079        4
Ti       0.00000000       1.53425702       3.33933238        5
Al       0.00000000       3.09996696       1.11311079        6
Al       2.68464611       1.54998581       3.33933238        7
8
Lattice="5.374602414750449 2.761233321610436e-16 3.360129711362259e-48 -2.6873012073752247 4.654542226415076 -2.71505252941616e-48 -1.2549508348087849e-48 2.098110399789431e-48 4.443649340084586" Properties=species:S:1:pos:R:3:tags:I:1 spacegroup="P 1" unit_cell=conventional n_minim_iter=5 stress="0.07558478846244225 -1.9853340083457732e-15 1.0887895637679278e-16 -1.9853340083457732e-15 0.07558478846244204 -1.5764636746799527e-17 1.0887895637679278e-16 -1.5764636746799527e-17 0.07545431993908047" pbc="T T T"
Ti       2.68730121       3.12088926       1.11091233        0
Ti      -1.35911474       3.88771807       3.33273700        1
Ti       1.35911475       3.88771807       3.33273700        2
Ti       1.32818646       0.76683347       1.11091233        3
Ti       4.04641596       0.76683347       1.11091233        4
Ti       0.00000000       1.53366228       3.33273700        5
Al       0.00000000       3.10303281       1.11091233        6
Al       2.68730121       1.55151873       3.33273700        7
8
Lattice="5.374196350894487 2.8705144500295264e-16 3.3387445110153634e-48 -2.6870981754472436 4.654190564800253 -2.7074889014035008e-48 -1.2305874702174511e-48 1.8731736789685067e-48 4.444320872509698" Properties=species:S:1:pos:R:3:tags:I:1 spacegroup="P 1" unit_cell=conventional n_minim_iter=6 stress="0.0772920096405015 2.6593183397885587e-15 -6.324642062791304e-18 2.6593183397885587e-15 0.07729200964050316 -2.890752862684826e-17 -6.324642062791304e-18 -2.890752862684826e-17 0.07697768352181081" pbc="T T T"
Ti       2.68709818       3.11971173       1.11108022        0
Ti      -1.35819648       3.88695347       3.33324065        1
Ti       1.35819649       3.88695347       3.33324065        2
Ti       1.32890170       0.76724641       1.11108022        3
Ti       4.04529466       0.76724641       1.11108022        4
Ti       0.00000000       1.53448816       3.33324065        5
Al       0.00000000       3.10279837       1.11108022        6
Al       2.68709818       1.55140151       3.33324065        7
