8
Lattice="5.633064731698626 -4.1938264445223475e-17 5.308946181979929e-49 -2.816532365849313 4.8783771588131835 -1.4778065308046088e-48 -4.260997141219853e-49 1.1235789871191632e-48 4.521136944191568" Properties=species:S:1:pos:R:3:tags:I:1 spacegroup="P 1" unit_cell=conventional n_minim_iter=1 energy=-9787.456505283615 free_energy=-9787.456505283615 pbc="T T T"
Ti       2.81653237       3.24570247       1.13028423        0
Ti      -1.40259038       4.06204226       3.39085271        1
Ti       1.40259039       4.06204226       3.39085271        2
Ti       1.41394199       0.81634467       1.13028423        3
Ti       4.21912276       0.81634467       1.13028423        4
Ti       0.00000000       1.63268445       3.39085271        5
Al       0.00000000       3.25225632       1.13028423        6
Al       2.81653237       1.62613060       3.39085271        7
8
Lattice="5.654116899690379 8.657209739570588e-17 5.4300476288900265e-49 -2.8270584498451896 4.896608871098779 -1.4580145190321068e-48 -4.17783186508795e-49 1.1124917633716939e-48 4.4875322122207875" Properties=species:S:1:pos:R:3:tags:I:1 spacegroup="P 1" unit_cell=conventional n_minim_iter=2 stress="-0.47948081164852957 2.5546950443674463e-15 2.0505211301391558e-16 2.5546950443674463e-15 -0.4794808116485274 -2.3792648448330665e-16 2.0505211301391558e-16 -2.3792648448330665e-16 -0.4902699166350469" pbc="T T T"
Ti       2.82705845       3.26108293       1.12188305        0
Ti      -1.41064719       4.07884835       3.36564916        1
Ti       1.41064720       4.07884835       3.36564916        2
Ti       1.41641126       0.81777032       1.12188305        3
Ti       4.23770565       0.81777032       1.12188305        4
Ti       0.00000000       1.63553574       3.36564916        5
Al       0.00000000       3.26441081       1.12188305        6
Al       2.82705845       1.63220786       3.36564916        7
8
Lattice="5.64374195559358 8.338021767013073e-17 4.982731418513666e-48 -2.82187097779679 4.887623905948107 -7.891543673788046e-48 3.157590241712658e-48 -1.3058792152553855e-48 4.504046322933388" Properties=species:S:1:pos:R:3:tags:I:1 spacegroup="P 1" unit_cell=conventional n_minim_iter=3 stress="-0.4728966259024942 -6.85095650694409e-16 1.7988560084711562e-16 -6.85095650694409e-16 -0.47289662590249415 -2.2906935553860233e-17 1.7988560084711562e-16 -2.2906935553860233e-17 -0.47181764109950813" pbc="T T T"
Ti       2.82187098       3.26039396       1.12601158        0
Ti      -1.41264426       4.07401138       3.37803474        1
Ti       1.41264427       4.07401138       3.37803474        2
Ti       1.40922671       0.81362231       1.12601158        3
Ti       4.23451525       0.81362231       1.12601158        4
Ti       0.00000000       1.62723973       3.37803474        5
Al       0.00000000       3.25842083       1.12601158        6
Al       2.82187098       1.62921286       3.37803474        7
8
Lattice="5.6442201903511355 7.813484472039401e-17 3.906298581587581e-48 -2.8221100951755678 4.8880380693971235 -8.291104276452553e-48 2.658977522776999e-48 -1.2175197472107704e-48 4.503283099609426" Properties=species:S:1:pos:R:3:tags:I:1 spacegroup="P 1" unit_cell=conventional n_minim_iter=4 stress="-0.4721520895501497 -1.0185328237951005e-15 9.927676530940742e-19 -1.0185328237951005e-15 -0.47215208955014726 3.270550212719213e-18 9.927676530940742e-19 3.270550212719213e-18 -0.4721218168638799" pbc="T T T"
Ti       2.82211010       3.26074247       1.12582077        0
Ti      -1.41282653       4.07439272       3.37746232        1
Ti       1.41282654       4.07439272       3.37746232        2
Ti       1.40928357       0.81365514       1.12582077        3
Ti       4.23493663       0.81365514       1.12582077        4
Ti       0.00000000       1.62730538       3.37746232        5
Al       0.00000000       3.25869694       1.12582077        6
Al       2.82211010       1.62935092       3.37746232        7
