8
Lattice="5.341224375169468 2.3608108747028305e-16 2.294262116346716e-48 -2.670612187584734 4.625635996209426 -3.332513276797737e-48 -4.3405634925609475e-48 8.776313261512784e-48 4.499360813712918" Properties=species:S:1:pos:R:3:tags:I:1 spacegroup="P 1" unit_cell=conventional n_minim_iter=3 stress="-0.12109698472697443 1.5482136760477127e-15 3.296878652567305e-17 1.5482136760477127e-15 -0.12109698472697629 -5.792567178847249e-17 3.296878652567305e-17 -5.792567178847249e-17 -0.12159689040527075" pbc="T T T"
Ti       2.67061219       3.12851475       1.12484020        0
Ti      -1.37406314       3.87707769       3.37452061        1
Ti       1.37406315       3.87707769       3.37452061        2
Ti       1.29654905       0.74856757       1.12484020        3
Ti       4.04467534       0.74856757       1.12484020        4
Ti       0.00000000       1.49713051       3.37452061        5
Al       0.00000000       3.08376196       1.12484020        6
Al       2.67061219       1.54188329       3.37452061        7
