8
Lattice="5.45580396771055 2.338978927378476e-16 3.517123692820166e-48 -2.727901983855275 4.724864834105271 -8.607616296480006e-48 -3.1292484589536785e-48 6.368025469128905e-48 4.566027630937434" Properties=species:S:1:pos:R:3:tags:I:1 spacegroup="P 1" unit_cell=conventional n_minim_iter=4 stress="-0.24829064350396465 -6.69669628982299e-16 6.080266830163616e-17 -6.69669628982299e-16 -0.24829064350396315 -3.3021593782025184e-17 6.080266830163616e-17 -3.3021593782025184e-17 -0.248639714548481" pbc="T T T"
Ti       2.72790199       3.19214368       1.14150691        0
Ti      -1.40052243       3.95850662       3.42452072        1
Ti       1.40052244       3.95850662       3.42452072        2
Ti       1.32737955       0.76636767       1.14150691        3
Ti       4.12842442       0.76636767       1.14150691        4
Ti       0.00000000       1.53273061       3.42452072        5
Al       0.00000000       3.14991462       1.14150691        6
Al       2.72790199       1.57495967       3.42452072        7
