8
Lattice="5.272134643379363 2.6120211879480177e-16 3.255575717689949e-48 -2.636067321689682 4.565802533338544 -6.246455790787395e-48 -2.5368735842105707e-48 -3.487761834527806e-48 4.346408500084388" Properties=species:S:1:pos:R:3:tags:I:1 spacegroup="P 1" unit_cell=conventional n_minim_iter=5 stress="0.16911916764317395 -1.2052451405406639e-15 -1.5056830200699485e-16 -1.2052451405406639e-15 0.169119167643165 -8.438941812508996e-18 -1.5056830200699485e-16 -8.438941812508996e-18 0.16908434404603878" pbc="T T T"
Ti       2.63606733       3.03681455       1.08660212        0
Ti      -1.31192092       3.80131083       3.25980637        1
Ti       1.31192093       3.80131083       3.25980637        2
Ti       1.32414640       0.76450085       1.08660212        3
Ti       3.94798826       0.76450085       1.08660212        4
Ti       0.00000000       1.52899712       3.25980637        5
Al       0.00000000       3.04387293       1.08660212        6
Al       2.63606733       1.52193875       3.25980637        7
