8
Lattice="5.6442201903511355 7.813484472039401e-17 3.906298581587581e-48 -2.8221100951755678 4.8880380693971235 -8.291104276452553e-48 2.658977522776999e-48 -1.2175197472107704e-48 4.503283099609426" Properties=species:S:1:pos:R:3:tags:I:1 spacegroup="P 1" unit_cell=conventional n_minim_iter=4 stress="-0.4721520895501497 -1.0185328237951005e-15 9.927676530940742e-19 -1.0185328237951005e-15 -0.47215208955014726 3.270550212719213e-18 9.927676530940742e-19 3.270550212719213e-18 -0.4721218168638799" pbc="T T T"
Ti       2.82211010       3.26074247       1.12582077        0
Ti      -1.41282653       4.07439272       3.37746232        1
Ti       1.41282654       4.07439272       3.37746232        2
Ti       1.40928357       0.81365514       1.12582077        3
Ti       4.23493663       0.81365514       1.12582077        4
Ti       0.00000000       1.62730538       3.37746232        5
Al       0.00000000       3.25869694       1.12582077        6
Al       2.82211010       1.62935092       3.37746232        7
