8
Lattice="5.594268719442182 7.744334965262566e-17 3.8717277545504954e-48 -2.797134359721091 4.84477882663357 -8.21772782406391e-48 2.6354455141208497e-48 -1.206744671082833e-48 4.463428946660279" Properties=species:S:1:pos:R:3:tags:I:1 spacegroup="P 1" unit_cell=conventional n_minim_iter=4 stress="-0.4721520895501497 -1.0185328237951005e-15 9.927676530940742e-19 -1.0185328237951005e-15 -0.47215208955014726 3.270550212719213e-18 9.927676530940742e-19 3.270550212719213e-18 -0.4721218168638799" pbc="T T T"
Ti       2.79713436       3.23188483       1.11585723        0
Ti      -1.40032298       4.03833425       3.34757171        1
Ti       1.40032299       4.03833425       3.34757171        2
Ti       1.39681138       0.80645427       1.11585723        3
Ti       4.19745735       0.80645427       1.11585723        4
Ti       0.00000000       1.61290370       3.34757171        5
Al       0.00000000       3.22985740       1.11585723        6
Al       2.79713436       1.61493112       3.34757171        7
