4
Lattice="2.0305442596751133 -3.517005824774628 8.139791586354193e-19 2.0305442596751133 3.517005824774628 -8.139791586354325e-19 2.2282271540767165e-32 1.5534725738243247e-18 6.712176881687051" Properties=species:S:1:pos:R:3 cutoff=-1.0 nneightol=1.2 n_minim_iter=1 energy=-652.1480081016668 free_energy=-652.1480081016668 pbc="T T T"
Si       2.03054426       1.17233527       0.42300061
Si       2.03054426      -1.17233527       3.77908905
Si       2.03054426       1.17233527       2.93308784
Si       2.03054426      -1.17233527      -0.42300061
4
Lattice="2.0299618230301064 -3.5159970149132866 1.1310364433753981e-18 2.0299618230301064 3.5159970149132866 -1.1310364433753284e-18 4.7768274586508065e-32 9.488173144289527e-19 6.716029149827637" Properties=species:S:1:pos:R:3 cutoff=-1.0 nneightol=1.2 n_minim_iter=2 stress="0.06174803310575768 -1.1129852092704377e-17 -3.1081529956071903e-18 -1.1129852092704377e-17 0.06174803310575746 -1.075678695842301e-16 -3.1081529956071903e-18 -1.075678695842301e-16 0.061761422156768914" pbc="T T T"
Si       2.02996182       1.17199900       0.42355365
Si       2.02996182      -1.17199900       3.78156823
Si       2.02996182       1.17199900       2.93446092
Si       2.02996182      -1.17199900      -0.42355365
4
Lattice="2.029648837134421 -3.5154549074399073 -3.148467480325919e-19 2.029648837134421 3.5154549074399073 3.1484674803263993e-19 9.256877666974508e-32 3.708259921769035e-18 6.718100625871809" Properties=species:S:1:pos:R:3 cutoff=-1.0 nneightol=1.2 n_minim_iter=3 stress="0.061638435023104746 6.54554036834192e-18 -4.96010284353615e-18 6.54554036834192e-18 0.061638435023104746 7.71457164944662e-19 -4.96010284353615e-18 7.71457164944662e-19 0.06187005616270016" pbc="T T T"
Si       2.02964884       1.17181830       0.42432437
Si       2.02964884      -1.17181830       3.78337468
Si       2.02964884       1.17181830       2.93472594
Si       2.02964884      -1.17181830      -0.42432437
4
Lattice="2.029647366763654 -3.515452360683032 -4.8545682390053914e-18 2.029647366763654 3.515452360683032 4.854568239005555e-18 8.48668928706525e-32 1.2372271758674402e-17 6.718110359683216" Properties=species:S:1:pos:R:3 cutoff=-1.0 nneightol=1.2 n_minim_iter=4 stress="0.061663563909077505 4.2783041052505834e-17 -2.2655303046937517e-17 4.2783041052505834e-17 0.06166356390907743 8.445683934800264e-18 -2.2655303046937517e-17 8.445683934800264e-18 0.061762278316766436" pbc="T T T"
Si       2.02964737       1.17181745       0.42482708
Si       2.02964737      -1.17181745       3.78388226
Si       2.02964737       1.17181745       2.93422810
Si       2.02964737      -1.17181745      -0.42482708
