4
Lattice="2.003190952880602 -3.4696285076515148 1.097269952189199e-34 2.0031909528806024 3.4696285076515148 -1.0972699521891898e-34 -1.493976129753219e-48 2.088280234119127e-34 6.603258038561148" Properties=species:S:1:pos:R:3 cutoff=-1.0 nneightol=1.2 n_minim_iter=1 energy=-652.3775497337256 free_energy=-652.3775497337256 pbc="T T T"
Si       2.00319095       1.15654284       0.41378352
Si       2.00319095      -1.15654284       3.71541254
Si       2.00319095       1.15654284       2.88784550
Si       2.00319095      -1.15654284      -0.41378352
4
Lattice="2.002275351128927 -3.4680426388981145 1.3027735138375853e-34 2.0022753511289273 3.4680426388981145 -1.3027735138375644e-34 -1.5561625534744452e-48 1.6981298880008782e-34 6.609298503447716" Properties=species:S:1:pos:R:3 cutoff=-1.0 nneightol=1.2 n_minim_iter=2 stress="0.049999830835638436 2.892871358775278e-17 2.107464250171519e-17 2.892871358775278e-17 0.04999983083563836 -2.7128635476840864e-17 2.107464250171519e-17 -2.7128635476840864e-17 0.05015579009090602" pbc="T T T"
Si       2.00227535       1.15601421       0.41445035
Si       2.00227535      -1.15601421       3.71909960
Si       2.00227535       1.15601421       2.89019890
Si       2.00227535      -1.15601421      -0.41445035
4
Lattice="2.0018754096162183 -3.467349919878048 9.75938035191037e-35 2.001875409616219 3.467349919878048 -9.759380351910184e-35 -1.433701011590813e-48 2.3206932191763153e-34 6.61193962374496" Properties=species:S:1:pos:R:3 cutoff=-1.0 nneightol=1.2 n_minim_iter=3 stress="0.04991911252858752 -5.350506744718481e-17 -3.347468717064278e-18 -5.350506744718481e-17 0.049919112528587446 -1.738180564564061e-16 -3.347468717064278e-18 -1.738180564564061e-16 0.05019880110785495" pbc="T T T"
Si       2.00187541       1.15578331       0.41582563
Si       2.00187541      -1.15578331       3.72179544
Si       2.00187541       1.15578331       2.89014418
Si       2.00187541      -1.15578331      -0.41582563
