4
Lattice="1.762792382100219 -3.053245968992949 2.4231311502368316e-17 1.762792382100219 3.053245968992949 -2.423131150236833e-17 2.0537100001992243e-32 4.661921401435536e-17 5.874214742897349" Properties=species:S:1:pos:R:3 cutoff=-1.0 nneightol=1.2 n_minim_iter=1 energy=-651.0347522939672 free_energy=-651.0347522939672 pbc="T T T"
Si       1.76279238       1.01774866       0.37985273
Si       1.76279238      -1.01774866       3.31696010
Si       1.76279238       1.01774866       2.55725464
Si       1.76279238      -1.01774866      -0.37985273
4
Lattice="1.7634628068110458 -3.054407178654751 2.531494363893613e-17 1.7634628068110458 3.054407178654751 -2.5314943638936152e-17 2.1706482372303796e-32 4.451923049161626e-17 5.869749131149012" Properties=species:S:1:pos:R:3 cutoff=-1.0 nneightol=1.2 n_minim_iter=2 stress="-0.19398965282201966 -2.7346395117959267e-17 -1.0789065346899252e-16 -2.7346395117959267e-17 -0.19398965282201922 -2.038120366131202e-16 -1.0789065346899252e-16 -2.038120366131202e-16 -0.19389561467548716" pbc="T T T"
Si       1.76346281       1.01813573       0.37963378
Si       1.76346281      -1.01813573       3.31450835
Si       1.76346281       1.01813573       2.55524078
Si       1.76346281      -1.01813573      -0.37963378
4
Lattice="1.7639408894260216 -3.0552352420341053 2.5546515683231203e-17 1.7639408894260216 3.0552352420341053 -2.554651568323123e-17 1.682086762925029e-32 4.4059164607559416e-17 5.866567794695226" Properties=species:S:1:pos:R:3 cutoff=-1.0 nneightol=1.2 n_minim_iter=3 stress="-0.19392125423501103 4.3777455934053937e-17 7.981377579823491e-17 4.3777455934053937e-17 -0.19392125423501103 8.814397126370027e-17 7.981377579823491e-17 8.814397126370027e-17 -0.19393415938105707" pbc="T T T"
Si       1.76394089       1.01841175       0.37850264
Si       1.76394089      -1.01841175       3.31178654
Si       1.76394089       1.01841175       2.55478125
Si       1.76394089      -1.01841175      -0.37850264
