4
Lattice="2.003190952880602 -3.4696285076515156 1.0972699521891992e-34 2.003190952880602 3.4696285076515156 -1.0972699521891898e-34 -1.5837096176659135e-48 2.088280234119127e-34 6.603258038561148" Properties=species:S:1:pos:R:3 cutoff=-1.0 nneightol=1.2 n_minim_iter=1 stress="0.04241370082374825 -5.831745643816507e-17 -3.2278472327886157e-18 -5.831745643816507e-17 0.04241370082374841 -3.709421601434443e-17 -3.2278472327886157e-18 -3.709421601434443e-17 0.04183059666197123" pbc="T T T"
Si       2.00319095       1.15654284       0.41378352
Si       2.00319095      -1.15654284       3.71541254
Si       2.00319095       1.15654284       2.88784550
Si       2.00319095      -1.15654284      -0.41378352
