4
Lattice="1.9730632037927476 -3.4174457155136646 1.0807671451284644e-34 1.9730632037927476 3.4174457155136646 -1.0807671451284552e-34 -5.068679369057687e-49 1.4770920393588736e-34 6.503945838163051" Properties=species:S:1:pos:R:3 cutoff=-1.0 nneightol=1.2 n_minim_iter=3 stress="0.0331186619936686 -5.406364755523144e-17 -5.606547242702838e-17 -5.406364755523144e-17 0.03311866199366811 1.5702878752826973e-17 -5.606547242702838e-17 1.5702878752826973e-17 0.03294629107468125" pbc="T T T"
Si       1.97306320       1.13914857       0.40756027
Si       1.97306320      -1.13914857       3.65953319
Si       1.97306320       1.13914857       2.84441265
Si       1.97306320      -1.13914857      -0.40756027
