4
Lattice="3.9148676411688634 0.0 0.0 0.0 3.9148676411688634 0.0 0.0 0.0 3.9148676411688634" Properties=species:S:1:pos:R:3:forces:R:3 n_minim_iter=1 energy=-650.3227254711726 stress="0.012087114195469923 -2.059983972404949e-18 8.738668851359943e-18 -2.059983972404949e-18 0.012087114195469954 2.0021598608988453e-18 8.738668851359943e-18 2.0021598608988453e-18 0.012087114195470166" free_energy=-650.3227254711726 pbc="T T T"
Si       0.00000000       0.00000000       0.00000000      -0.00000000      -0.00000000      -0.00000000
Si       1.95743382       1.95743382       0.00000000       0.00000000       0.00000000      -0.00000000
Si       1.95743382       0.00000000       1.95743382       0.00000000      -0.00000000       0.00000000
Si       0.00000000       1.95743382       1.95743382      -0.00000000       0.00000000       0.00000000
4
Lattice="3.87451749310755 0.0 0.0 0.0 3.87451749310755 0.0 0.0 0.0 3.87451749310755" Properties=species:S:1:pos:R:3:forces:R:3 n_minim_iter=2 energy=-650.3379745147831 stress="0.002042917960587127 -3.206164559884326e-18 -3.653536358937953e-18 -3.206164559884326e-18 0.0020429179605870704 -2.9317765231314346e-17 -3.653536358937953e-18 -2.9317765231314346e-17 0.0020429179605868865" free_energy=-650.3379745147831 pbc="T T T"
Si       0.00000000       0.00000000       0.00000000      -0.00000000      -0.00000000       0.00000000
Si       1.93725875       1.93725875       0.00000000       0.00000000       0.00000000       0.00000000
Si       1.93725875       0.00000000       1.93725875      -0.00000000       0.00000000      -0.00000000
Si       0.00000000       1.93725875       1.93725875       0.00000000      -0.00000000      -0.00000000
