4
Lattice="3.8419569831730267 0.0 0.0 0.0 3.8419569831730267 0.0 0.0 0.0 3.8419569831730267" Properties=species:S:1:pos:R:3:forces:R:3 n_minim_iter=1 energy=-650.3310265968267 stress="-0.011682951897746454 -8.637717043266176e-18 -2.217740542317124e-18 -8.637717043266176e-18 -0.011682951897746423 -8.626245971495573e-18 -2.217740542317124e-18 -8.626245971495573e-18 -0.011682951897746255" free_energy=-650.3310265968267 pbc="T T T"
Si       0.00000000       0.00000000       0.00000000      -0.00000000      -0.00000000      -0.00000000
Si       1.92097849       1.92097849       0.00000000       0.00000000      -0.00000000      -0.00000000
Si       1.92097849       0.00000000       1.92097849       0.00000000      -0.00000000       0.00000000
Si       0.00000000       1.92097849       1.92097849      -0.00000000       0.00000000       0.00000000
