2
Lattice="2.9078670820125843 0.0 0.0 0.0 2.9078670820125843 0.0 0.0 -1.0380519657785307e-33 2.9078670820125843" Properties=species:S:1:pos:R:3 Minim_Constant_Volume=F n_minim_iter=1 stress="-0.5267785031047196 -3.798208679320889e-19 2.410487171310757e-19 -3.798208679320889e-19 -0.5267785031047196 -1.1006042886985128e-17 2.410487171310757e-19 -1.1006042886985128e-17 -0.5267785031047195" pbc="T T T"
Ti       0.00000000       0.00000000       0.00000000
Ti       1.45393354       1.45393354       1.45393354
