2
Lattice="2.876257327600344 0.0 0.0 0.0 2.8762573276003445 0.0 0.0 0.0 2.876257327600344" Properties=species:S:1:pos:R:3 Minim_Constant_Volume=F n_minim_iter=1 stress="-0.6325077054153851 -8.748393064013831e-19 -7.290327553344859e-18 -8.748393064013831e-19 -0.6325077054153925 2.0412917149365605e-18 -7.290327553344859e-18 2.0412917149365605e-18 -0.6325077054153867" pbc="T T T"
Ti       0.00000000       0.00000000       0.00000000
Ti       1.43812866       1.43812866       1.43812866
