2
Lattice="3.056479496348784 0.0 0.0 0.0 3.056479496348784 0.0 0.0 0.0 3.056479496348784" Properties=species:S:1:pos:R:3 Minim_Constant_Volume=F n_minim_iter=1 energy=-3186.9980029428853 free_energy=-3186.9980029428853 pbc="T T T"
Ti       0.00000000       0.00000000       0.00000000
Ti       1.52823975       1.52823975       1.52823975
