2
Lattice="3.0279125960863222 0.0 0.0 0.0 3.0279125960863214 0.0 0.0 9.860761315262648e-32 3.0279125960863222" Properties=species:S:1:pos:R:3 Minim_Constant_Volume=F n_minim_iter=1 stress="-0.14957513433731784 -1.3779610569322975e-17 7.453632008274868e-17 -1.3779610569322975e-17 -0.14957513433731964 1.5309687862024176e-17 7.453632008274868e-17 1.5309687862024176e-17 -0.14957513433731784" pbc="T T T"
Ti       0.00000000       0.00000000       0.00000000
Ti       1.51395630       1.51395630       1.51395630
