2
Lattice="2.9388041601749584 0.0 0.0 0.0 2.9388041601749584 0.0 0.0 9.860761315262654e-32 2.9388041601749584" Properties=species:S:1:pos:R:3 Minim_Constant_Volume=F n_minim_iter=1 stress="-0.3612816748693211 6.8275931085955715e-18 1.7341460001695201e-18 6.8275931085955715e-18 -0.36128167486932095 3.554034682255613e-18 1.7341460001695201e-18 3.554034682255613e-18 -0.3612816748693211" pbc="T T T"
Ti       0.00000000       0.00000000       0.00000000
Ti       1.46940208       1.46940208       1.46940208
