2
Lattice="3.385344592600685 0.0 0.0 -1.6926722963003424 2.9317944177564743 0.0 0.0 0.0 3.385344592600685" Properties=species:S:1:pos:R:3:forces:R:3 n_minim_iter=1 energy=-325.2489882902543 stress="0.02282432800760247 -1.3084127123862548e-17 7.961627032738867e-17 -1.3084127123862548e-17 0.022824328007602555 -4.21419026936226e-17 7.961627032738867e-17 -4.21419026936226e-17 0.03125681198999777" free_energy=-325.2489882902543 pbc="T T T"
Si       0.00000000       0.00000000       0.00000000       0.00000000       0.00000000      -0.00000000
Si       0.00000000       1.95452961       1.69267230      -0.00000000      -0.00000000       0.00000000
