2
Lattice="3.536439873141232 -2.417316895980297e-17 -1.0512545738279842e-49 -1.768219936570616 3.0626467690965242 -2.0209353652307017e-49 1.0100113393702443e-49 2.8251537312240093e-49 3.3976968679121957" Properties=species:S:1:pos:R:3:forces:R:3 n_minim_iter=1 energy=-325.1319292249033 stress="0.0459751595793664 -6.502855583369863e-17 -1.885568853459909e-17 -6.502855583369863e-17 0.04597515957936654 -2.635082472710222e-17 -1.885568853459909e-17 -2.635082472710222e-17 0.06091765481283716" free_energy=-325.1319292249033 pbc="T T T"
Si      -0.00000000       0.00000000       0.00000000      -0.00000000       0.00000000      -0.00000000
Si       0.00000000       2.04176451       1.69884843       0.00000000      -0.00000000       0.00000000
