2
Lattice="3.1441455463006034 1.0602286081268515e-17 5.573612099740013e-51 -1.5720727731503013 2.722909916292023 5.030441088715106e-49 2.8663331748950203e-49 9.476817667695377e-50 3.2705599628315047" Properties=species:S:1:pos:R:3:forces:R:3 n_minim_iter=2 energy=-325.1769697331009 stress="-0.07886731061152476 1.9404172899822167e-16 1.6114357115116656e-16 1.9404172899822167e-16 -0.07886731061152462 -1.6535587720013708e-16 1.6114357115116656e-16 -1.6535587720013708e-16 -0.08696454116222571" free_energy=-325.1769697331009 pbc="T T T"
Si      -0.00000000      -0.00000000      -0.00000000      -0.00000000       0.00000000       0.00000000
Si      -0.00000000       1.81527328       1.63527998       0.00000000      -0.00000000      -0.00000000
