2
Lattice="3.6937143856641215 -5.925249883821814e-17 -1.2035380694762826e-49 -1.8468571928320607 3.198850492309162 -3.617898286265575e-49 1.4687342546511535e-49 2.7458055048286703e-49 3.182222862421413" Properties=species:S:1:pos:R:3:forces:R:3 n_minim_iter=2 energy=-325.1170737116674 stress="0.04169169087286395 -7.090747104891202e-17 9.24614944697423e-17 -7.090747104891202e-17 0.04169169087286387 9.492535326367721e-18 9.24614944697423e-17 9.492535326367721e-18 0.047178205832851816" free_energy=-325.1170737116674 pbc="T T T"
Si      -0.00000000      -0.00000000      -0.00000000       0.00000000       0.00000000      -0.00000000
Si      -0.00000000       2.13256699       1.59111143      -0.00000000      -0.00000000       0.00000000
