2
Lattice="3.7706888172468465 -6.048727958781522e-17 -1.2286189634256547e-49 -1.8853444086234232 3.2655123055016677 -3.6932927632154566e-49 1.058484481039444e-49 4.28521132168742e-49 3.2485381674041514" Properties=species:S:1:pos:R:3:forces:R:3 n_minim_iter=1 energy=-325.03576312604 stress="0.05312583121452168 4.669179161832208e-18 1.416629153265972e-18 4.669179161832208e-18 0.05312583121452183 -2.3149927294615265e-18 1.416629153265972e-18 -2.3149927294615265e-18 0.06752739211816222" free_energy=-325.03576312604 pbc="T T T"
Si      -0.00000000       0.00000000       0.00000000       0.00000000      -0.00000000      -0.00000000
Si       0.00000000       2.17700820       1.62426908      -0.00000000       0.00000000       0.00000000
