2
Lattice="3.484425848763462 -2.3817629534656095e-17 -1.0357927017216272e-49 -1.742212924381731 3.017601302632313 -1.9912114097489884e-49 2.375700414602207e-49 -2.644783352966576e-49 3.347723478273062" Properties=species:S:1:pos:R:3:forces:R:3 n_minim_iter=2 energy=-325.2034835980868 stress="0.035664524758971194 -3.471421307127088e-17 8.053275525157483e-17 -3.471421307127088e-17 0.035664524758971326 2.4178938671320063e-17 8.053275525157483e-17 2.4178938671320063e-17 0.04293025180034544" free_energy=-325.2034835980868 pbc="T T T"
Si      -0.00000000      -0.00000000       0.00000000       0.00000000       0.00000000      -0.00000000
Si       0.00000000       2.01173420       1.67386174      -0.00000000      -0.00000000       0.00000000
