2
Lattice="2.4542371316956677 3.450824378771363e-52 1.9135322732950392e-35 -7.276880564620635e-52 2.4542371316956677 4.9071809711867743e-17 -3.3227943094883783e-35 -8.521180036650983e-17 4.261712900870458" Properties=species:S:1:pos:R:3:tags:I:1 spacegroup="P 1" unit_cell=conventional n_minim_iter=1 energy=-1705.520730535551 free_energy=-1705.520730535551 pbc="T T T"
Ti       1.22711857       1.22711857       2.13085646        0
Al       0.00000000       0.00000000       0.00000001        1
2
Lattice="2.4427217909211585 3.4303529627149715e-52 1.9722300077743893e-35 -7.159061231866016e-52 2.4427217909211585 4.955972752747683e-17 -3.2288765782934446e-35 -8.477002408077368e-17 4.301988260915747" Properties=species:S:1:pos:R:3:tags:I:1 spacegroup="P 1" unit_cell=conventional n_minim_iter=2 stress="-0.7154448975893681 1.3540062283526932e-17 -2.918275822297374e-17 1.3540062283526932e-17 -0.7154448975893681 -3.2978647719113184e-17 -2.918275822297374e-17 -3.2978647719113184e-17 -0.772295467504418" pbc="T T T"
Ti       1.22136090       1.22136090       2.15099414        0
Al       0.00000000       0.00000000       0.00000001        1
2
Lattice="2.4417571364932926 3.651922716977967e-52 1.9773231826393776e-35 -7.156624034133295e-52 2.4417571364932926 5.2398408690785335e-17 -3.221592381722653e-35 -7.9875269953346e-17 4.30538806813681" Properties=species:S:1:pos:R:3:tags:I:1 spacegroup="P 1" unit_cell=conventional n_minim_iter=3 stress="-0.7106950533560538 -5.526177664268009e-19 3.2440453069241704e-17 -5.526177664268009e-19 -0.7106950533560539 -1.8922174920802643e-17 3.2440453069241704e-17 -1.8922174920802643e-17 -0.704049138888352" pbc="T T T"
Ti       1.22087857       1.22087857       2.15269404        0
Al       0.00000000       0.00000000       0.00000001        1
