2
Lattice="2.5225055373654506 1.9897044376271088e-52 1.8326533478066163e-35 -5.7760294923198655e-52 2.5225055373654506 5.211583482582249e-17 -3.1033071194989066e-35 -8.824988176141976e-17 4.271462141190298" Properties=species:S:1:pos:R:3:tags:I:1 spacegroup="P 1" unit_cell=conventional n_minim_iter=1 energy=-1705.1550747761803 free_energy=-1705.1550747761803 pbc="T T T"
Ti       1.26125277       1.26125277       2.13573108        0
Al       0.00000000       0.00000000       0.00000001        1
2
Lattice="2.512394004461609 3.343252676052022e-52 1.8878758290393801e-35 -3.8891715357416325e-52 2.512394004461609 4.714971348625355e-17 -3.0153599530930645e-35 -9.701724782501523e-17 4.305913699765442" Properties=species:S:1:pos:R:3:tags:I:1 spacegroup="P 1" unit_cell=conventional n_minim_iter=2 stress="0.8029566109615871 5.106027898430727e-19 -8.169017460821784e-18 5.106027898430727e-19 0.8029566109615871 8.93547149037903e-18 -8.169017460821784e-18 8.93547149037903e-18 0.7945081005168223" pbc="T T T"
Ti       1.25619700       1.25619700       2.15295686        0
Al       0.00000000      -0.00000000       0.00000001        1
