2
Lattice="2.4175797352405386 3.6157626912518915e-52 1.957744439414447e-35 -7.816945999591631e-52 2.4175797352405386 5.1879578487326895e-17 -3.451960649133666e-35 -9.147581258637509e-17 4.2627576634514135" Properties=species:S:1:pos:R:3:tags:I:1 spacegroup="P 1" unit_cell=conventional n_minim_iter=1 energy=-1704.2627957907732 free_energy=-1704.2627957907732 pbc="T T T"
Ti       1.20878987       1.20878987       2.13137884        0
Al       0.00000000       0.00000000       0.00000001        1
2
Lattice="2.398976590337023 3.927592223101076e-52 2.0031088903285095e-35 -7.732891797972165e-52 2.398976590337023 5.688235153734851e-17 -3.392314613764955e-35 -8.337507457646742e-17 4.329126107477892" Properties=species:S:1:pos:R:3:tags:I:1 spacegroup="P 1" unit_cell=conventional n_minim_iter=2 stress="-2.2747647333867804 1.8417002094396377e-17 2.239446867046161e-18 1.8417002094396377e-17 -2.27476473338678 1.6710492137851668e-18 2.239446867046161e-18 1.6710492137851668e-18 -2.3527527448861965" pbc="T T T"
Ti       1.19948830       1.19948830       2.16456306        0
Al       0.00000000       0.00000000       0.00000001        1
2
Lattice="2.3974257299400223 3.539879379018993e-52 2.0225724590572296e-35 -7.692540769769415e-52 2.3974257299400223 5.2480879954210254e-17 -3.3607505830042755e-35 -9.121180079053538e-17 4.334728818505078" Properties=species:S:1:pos:R:3:tags:I:1 spacegroup="P 1" unit_cell=conventional n_minim_iter=3 stress="-2.232160155969992 -1.0114688038036658e-18 3.844665242303218e-17 -1.0114688038036658e-18 -2.2321601559699915 -1.9495574160826946e-17 3.844665242303218e-17 -1.9495574160826946e-17 -2.206061241137428" pbc="T T T"
Ti       1.19871286       1.19871286       2.16736441        0
Al       0.00000000      -0.00000000       0.00000001        1
2
Lattice="2.3978145008409517 3.1568069194889186e-52 2.0497040565582955e-35 -7.63584697279426e-52 2.3978145008409517 4.807509964079521e-17 -3.31219826541903e-35 -9.896500713146983e-17 4.333323305434119" Properties=species:S:1:pos:R:3:tags:I:1 spacegroup="P 1" unit_cell=conventional n_minim_iter=4 stress="-2.2429694968972105 -2.9357027871115604e-17 -3.3408509952949353e-17 -2.9357027871115604e-17 -2.2429694968972105 -4.1219213940034115e-17 -3.3408509952949353e-17 -4.1219213940034115e-17 -2.2431491738388853" pbc="T T T"
Ti       1.19890725       1.19890725       2.16666166        0
Al       0.00000000      -0.00000000       0.00000001        1
