2
Lattice="2.246793502633643 -4.896904006824383e-50 4.386413539111264e-33 -9.87529202960803e-50 2.246793502633643 9.070158005091276e-17 -7.572475688701958e-33 -1.5461121925847444e-16 4.6363230856942685" Properties=species:S:1:pos:R:3:tags:I:1 spacegroup="P 1" unit_cell=conventional n_minim_iter=6 stress="4.056994487019133 1.598850899798118e-17 -3.159166780994077e-17 1.598850899798118e-17 4.056994487019133 -1.9322854539102198e-16 -3.159166780994077e-17 -1.9322854539102198e-16 4.05294811638017" pbc="T T T"
Ti       1.12339675       1.12339675       2.31816155        0
Al      -0.00000000       0.00000000       0.00000001        1
