2
Lattice="2.4780661669209527 3.484329623483068e-52 1.9321114184624676e-35 -6.703856027840612e-52 2.4780661669209527 4.954826484617038e-17 -3.106060396338197e-35 -7.5540536226641e-17 4.303091342066452" Properties=species:S:1:pos:R:3:tags:I:1 spacegroup="P 1" unit_cell=conventional n_minim_iter=3 stress="0.4064973299940831 2.048963193694369e-17 2.1072858260085994e-18 2.048963193694369e-17 0.4064973299940832 -2.5734157892291596e-17 2.1072858260085994e-18 -2.5734157892291596e-17 0.4099218114821764" pbc="T T T"
Ti       1.23903308       1.23903308       2.15154568        0
Al       0.00000000       0.00000000       0.00000001        1
