2
Lattice="2.304668869265054 -4.942903701081057e-50 -3.4669209055228994e-33 -5.589241696859567e-50 2.304668869265054 8.46331645776865e-17 -1.1992723588914147e-33 -1.902874215167279e-17 4.40639007110436" Properties=species:S:1:pos:R:3:tags:I:1 spacegroup="P 1" unit_cell=conventional n_minim_iter=3 stress="-1.5442600426430309 3.911273118251144e-17 9.648388503386711e-17 3.911273118251144e-17 -1.5442600426430304 -1.785210703880552e-17 9.648388503386711e-17 -1.785210703880552e-17 -1.544310275296067" pbc="T T T"
Ti       1.15233443       1.15233443       2.20319504        0
Al      -0.00000000       0.00000000       0.00000001        1
