2
Lattice="2.7846583271153484 -9.156156147853115e-52 1.0297366439928212e-34 -9.19586933353429e-52 2.7846583271153484 4.650354877366139e-17 -1.6305930852223118e-34 -8.2510992072544e-17 4.576066678808266" Properties=species:S:1:pos:R:3:tags:I:1 spacegroup="P 1" unit_cell=conventional n_minim_iter=2 stress="-0.12265176208715761 5.475352743040767e-18 -1.35156430049161e-18 5.475352743040767e-18 -0.12265176208715761 3.024023288930472e-17 -1.35156430049161e-18 3.024023288930472e-17 -0.13365531430330904" pbc="T T T"
Ti       1.39232916       1.39232916       2.28803335        0
Al       0.00000000      -0.00000000       0.00000001        1
