2
Lattice="2.793207695867467 9.041011654943459e-17 2.793207695867467 2.793207695867467 2.793207695867467 4.334049911101379e-17 -3.1400155575111328e-18 2.793207695867467 2.793207695867467" Properties=species:S:1:pos:R:3:forces:R:3 n_minim_iter=1 energy=-326.3067058713665 stress="0.03120173807374242 -1.3914349045456028e-16 4.504963592194479e-17 -1.3914349045456028e-16 0.031201738073742425 -1.1047824891922413e-16 4.504963592194479e-17 -1.1047824891922413e-16 0.031201738073742383" free_energy=-326.3067058713665 pbc="T T T"
Si       0.00000000       0.00000000       0.00000000      -0.00000000       0.00000000      -0.00000000
Si       1.39660385       1.39660385       1.39660385       0.00000000      -0.00000000       0.00000000
