2
Lattice="2.551154687671001 8.257538205598429e-17 2.551154687671001 2.551154687671001 2.551154687671001 3.958471030874251e-17 -2.867908971021429e-18 2.551154687671001 2.551154687671001" Properties=species:S:1:pos:R:3:forces:R:3 n_minim_iter=1 energy=-325.8093544811768 stress="-0.17315341374796248 -6.970912979788211e-16 3.8373705121466084e-16 -6.970912979788211e-16 -0.17315341374796261 -6.863736036326002e-16 3.8373705121466084e-16 -6.863736036326002e-16 -0.17315341374796261" free_energy=-325.8093544811768 pbc="T T T"
Si       0.00000000       0.00000000       0.00000000      -0.00000000       0.00000000      -0.00000000
Si       1.27557734       1.27557734       1.27557734       0.00000000      -0.00000000       0.00000000
