4
Lattice="2.05670671272596 -3.56232052270933 -4.063763561497629e-18 2.0567067127259593 3.56232052270933 4.06376356149766e-18 -5.231174562948586e-32 -7.77164007377984e-18 6.81266823499279" Properties=species:S:1:pos:R:3:forces:R:3 cutoff=-1.0 nneightol=1.2 n_minim_iter=1 energy=-651.8706006217768 stress="0.07152685146878326 -2.7247773509079377e-17 -1.713958580317553e-17 -2.7247773509079377e-17 0.0715268514687834 1.4178399818657002e-17 -1.713958580317553e-17 1.4178399818657002e-17 0.0707906158452821" free_energy=-651.8706006217768 pbc="T T T"
Si       2.05670671       1.18744017       0.43649479      -0.00000000      -0.00000000       0.03499336
Si       2.05670671      -1.18744017       3.84282891       0.00000000       0.00000000       0.03499336
Si       2.05670671       1.18744017       2.96983932      -0.00000000      -0.00000000      -0.03499336
Si       2.05670671      -1.18744017      -0.43649479       0.00000000       0.00000000      -0.03499336
4
Lattice="2.0551598296213918 -3.559641242578849 -3.3674300688802207e-18 2.055159829621391 3.559641242578849 3.3674300688801987e-18 -5.292643223729822e-32 -9.108475044908975e-18 6.822927648663322" Properties=species:S:1:pos:R:3:forces:R:3 cutoff=-1.0 nneightol=1.2 n_minim_iter=2 energy=-651.8707310759322 stress="0.07091603110670379 -4.087166026361907e-17 -1.2097173962726325e-17 -4.087166026361907e-17 0.07091603110670404 -3.5865301516440354e-18 -1.2097173962726325e-17 -3.5865301516440354e-18 0.0716000212113816" free_energy=-651.8707310759322 pbc="T T T"
Si       2.05515983       1.18654708       0.43822844      -0.00000000       0.00000000       0.02379283
Si       2.05515983      -1.18654708       3.84969226       0.00000000      -0.00000000       0.02379283
Si       2.05515983       1.18654708       2.97323538      -0.00000000       0.00000000      -0.02379283
Si       2.05515983      -1.18654708      -0.43822844       0.00000000      -0.00000000      -0.02379283
4
Lattice="2.055590581543287 -3.560387326793027 -2.8129169287531137e-18 2.055590581543286 3.560387326793027 2.812916928753066e-18 -3.696991751357038e-32 -1.0168932490487382e-17 6.820068439938283" Properties=species:S:1:pos:R:3:forces:R:3 cutoff=-1.0 nneightol=1.2 n_minim_iter=3 energy=-651.8708080544168 stress="0.07109954714167259 -1.3169757196055033e-16 3.7383952576075176e-17 -1.3169757196055033e-16 0.0710995471416726 6.343210705096714e-18 3.7383952576075176e-17 6.343210705096714e-18 0.07109741571290804" free_energy=-651.8708080544168 pbc="T T T"
Si       2.05559058       1.18679578       0.43936270      -0.00000000       0.00000000      -0.00006295
Si       2.05559058      -1.18679578       3.84939692       0.00000000       0.00000000      -0.00006295
Si       2.05559058       1.18679578       2.97067152      -0.00000000      -0.00000000       0.00006295
Si       2.05559058      -1.18679578      -0.43936270       0.00000000      -0.00000000       0.00006295
