20
Lattice="1.7783393688880174 -1.0252971072870401e-16 -1.1390232059341402e-17 4.736723298667708e-16 8.215668864841215 2.7247786539541502e-15 3.438912255483742e-16 -1.7807029056646206e-14 53.69120680085628" Properties=species:S:1:pos:R:3 unique_starting_index=4 config_type=initial n_minim_iter=1 energy=-3224.0646615803153 free_energy=-3224.0646615803153 pbc="T T T"
Si       1.06074110       4.56117957      32.97882349
Si       1.06074110       3.65448929      20.71238331
Si       0.72964828       3.26737520      28.91155012
Si       0.72964828       4.94829367      24.77965668
Si       0.71759827       0.45334514      47.55798671
Si       0.71759827       7.76232372       6.13322009
Si       1.04869109       7.37520963      51.62526008
Si       1.04869109       0.84045924       2.06594672
Si       0.91873626       6.68330514      10.17120999
Si       0.91873626       1.53236372      43.51999681
Si       0.86551145       6.59959926      44.37170614
Si       0.86551145       1.61606960       9.31950066
Si       0.85960311       2.57547071      16.67439341
Si       0.85960311       5.64019815      37.01681339
Si       0.91282792       2.49176483      36.16510406
Si       0.91282792       5.72390403      17.52610274
Si       1.70751378       4.65391715      49.89723194
Si       1.70751378       3.56175171       3.79397486
Si       0.07082559       7.66958614      23.05162854
Si       0.07082559       0.54608272      30.63957826
20
Lattice="1.7486956029473708 -1.0041249980687918e-16 -1.0204460604733041e-17 4.757808587290663e-16 8.22110864273579 2.7401226365975597e-15 3.817454578365639e-16 -1.7730409386523115e-14 53.72698795189208" Properties=species:S:1:pos:R:3 unique_starting_index=4 config_type=initial n_minim_iter=2 stress="-0.5000310964210548 -3.0472563550960525e-16 7.241545998572601e-16 -3.0472563550960525e-16 -0.7534257731283197 -1.4585433814354087e-14 7.241545998572601e-16 -1.4585433814354087e-14 -0.6401437365118987" pbc="T T T"
Si       1.04305665       4.56421539      33.00078915
Si       1.04305665       3.65689326      20.72619881
Si       0.71748672       3.26955704      28.93079123
Si       0.71748672       4.95155161      24.79619672
Si       0.70563896       0.45366106      47.58969278
Si       0.70563896       7.76744758       6.13729517
Si       1.03120889       7.38011136      51.65969070
Si       1.03120889       0.84099729       2.06729725
Si       0.90342057       6.68771048      10.17800085
Si       0.90342057       1.53339816      43.54898710
Si       0.85108370       6.60393933      44.40126210
Si       0.85108370       1.61716932       9.32572585
Si       0.84527503       2.57715616      16.68549313
Si       0.84527503       5.64395248      37.04149482
Si       0.89761191       2.49338500      36.18921983
Si       0.89761191       5.72772364      17.53776812
Si       1.67905042       4.65697614      49.93047566
Si       1.67905042       3.56413250       3.79651229
Si       0.06964519       7.67468682      23.06698169
Si       0.06964519       0.54642182      30.66000626
20
Lattice="1.7501233283812105 -1.9301792250325778e-16 -5.1937201468966814e-15 1.8518565037599285e-16 9.647560363855174 7.42176489800628e-15 -1.392073640922002e-13 7.572916897200429e-15 61.589581080740956" Properties=species:S:1:pos:R:3 unique_starting_index=4 config_type=initial n_minim_iter=3 stress="0.4413743278510989 -1.0398621681757141e-16 1.0486166546018342e-15 -1.0398621681757141e-16 -0.5559268761901488 1.4451308324873168e-15 1.0486166546018342e-15 1.4451308324873168e-15 0.1482965477211784" pbc="T T T"
Si       1.04330910       5.36015469      37.82758321
Si       1.04330910       4.28740567      23.76199787
Si       0.71843441       3.84304144      33.15693945
Si       0.71843441       5.80451892      28.43264163
Si       0.70681423       0.53637451      54.55678841
Si       0.70681423       9.11118585       7.03279267
Si       1.03168892       8.66682162      59.22743217
Si       1.03168892       0.98073874       2.36214891
Si       0.90391966       7.84160378      11.67053170
Si       0.90391966       1.80595658      49.91904938
Si       0.85176814       7.74085973      50.89607472
Si       0.85176814       1.90670064      10.69350636
Si       0.84620366       3.01782360      19.12425884
Si       0.84620366       6.62973676      42.46532224
Si       0.89835519       2.91707955      41.48829690
Si       0.89835519       6.73048082      20.10128418
Si       1.68043296       5.45792439      57.23426463
Si       1.68043296       4.18963598       4.35531646
Si       0.06969037       9.01341616      26.43947409
Si       0.06969037       0.63414421      35.15010700
20
Lattice="1.750092461379499 -1.9743660387733485e-16 -5.3480515309055866e-15 2.9947386815242865e-16 10.877593935668674 1.3269925348045156e-14 -1.4380032298877715e-13 5.07705011163384e-14 61.61148918253696" Properties=species:S:1:pos:R:3 unique_starting_index=4 config_type=initial n_minim_iter=4 stress="0.6986526944926603 -3.7143573677400017e-16 -3.761686080376852e-16 -3.7143573677400017e-16 -0.09681098154732438 2.8775857283204903e-16 -3.761686080376852e-16 2.8775857283204903e-16 0.29494127879488863" pbc="T T T"
Si       1.04335346       6.04393654      37.83961156
Si       1.04335346       4.83365739      23.77187763
Si       0.71826319       4.34017738      33.16579913
Si       0.71826319       6.53741656      28.44569006
Si       0.70673900       0.60513958      54.57762222
Si       0.70673900      10.27245436       7.03386696
Si       1.03182927       9.77897435      59.25143465
Si       1.03182927       1.09861959       2.36005453
Si       0.90390175       8.83442133      11.67566099
Si       0.90390175       2.04317261      49.93582819
Si       0.85181228       8.72007237      50.91489354
Si       0.85181228       2.15752156      10.69659564
Si       0.84619071       3.39562436      19.13008360
Si       0.84619071       7.48196957      42.48140558
Si       0.89828019       3.28127541      41.50234023
Si       0.89828019       7.59631853      20.10914895
Si       1.68025035       6.14755700      57.25156237
Si       1.68025035       4.73003693       4.35992681
Si       0.06984211      10.16883390      26.44581778
Si       0.06984211       0.70876004      35.16567141
20
Lattice="1.7494712307530038 -2.0175361894650445e-16 -5.4531814924408245e-15 3.26454027888666e-16 11.296799636453352 9.266307355085087e-15 -1.5132658969833936e-13 3.140126283273758e-14 60.13211096167322" Properties=species:S:1:pos:R:3 unique_starting_index=4 config_type=initial n_minim_iter=5 stress="0.7446907431075164 -5.573458830800376e-16 5.514604002382605e-16 -5.573458830800376e-16 0.11324652621084576 2.3399932416005335e-15 5.514604002382605e-16 2.3399932416005335e-15 0.3960004944235782" pbc="T T T"
Si       1.03999853       6.27028382      36.95922075
Si       1.03999853       5.02651582      23.17289021
Si       0.71767534       4.59876772      32.31949909
Si       0.71767534       6.69803191      27.81261188
Si       0.70947270       0.62188400      53.23894569
Si       0.70947270      10.67491564       6.89316527
Si       1.03179589      10.24716754      57.87866736
Si       1.03179589       1.04963210       2.25344360
Si       0.90321868       9.23412719      11.37444091
Si       0.90321868       2.06267245      48.75767005
Si       0.85164267       9.12603809      49.68601520
Si       0.85164267       2.17076154      10.44609577
Si       0.84625255       3.58572737      18.69161457
Si       0.84625255       7.71107227      41.44049640
Si       0.89782856       3.47763827      40.51215125
Si       0.89782856       7.81916136      19.61995972
Si       1.67656589       6.30234118      55.85658091
Si       1.67656589       4.99445846       4.27553006
Si       0.07290534      10.64285828      25.79052543
Si       0.07290534       0.65394136      34.34158554
20
Lattice="1.7482654250151541 -2.0887507856184916e-16 -5.548875779492541e-15 3.15184149040354e-16 11.484614865796212 1.0328526176654296e-14 -1.665406944995868e-13 4.585740095351629e-14 56.04151355811574" Properties=species:S:1:pos:R:3 unique_starting_index=4 config_type=initial n_minim_iter=6 stress="0.7903249816777028 -1.3695126095221576e-16 2.5683294831312507e-16 -1.3695126095221576e-16 0.09348271854799516 6.220034215005534e-15 2.5683294831312507e-16 6.220034215005534e-15 0.1107087502704912" pbc="T T T"
Si       1.03245656       6.40773229      34.43647088
Si       1.03245656       5.07688258      21.60504267
Si       0.72128692       4.76612212      30.01572587
Si       0.72128692       6.71849274      26.02578769
Si       0.71580887       0.66542485      49.62579945
Si       0.71580887      10.81919001       6.41571411
Si       1.02697851      10.50842955      54.04654447
Si       1.02697851       0.97618531       1.99496909
Si       0.90125760       9.41335793      10.58546529
Si       0.90125760       2.07125694      45.45604826
Si       0.85131861       9.27593643      46.26067270
Si       0.85131861       2.20867844       9.78084086
Si       0.84700783       3.67105049      17.43529148
Si       0.84700783       7.81356437      38.60622207
Si       0.89694681       3.53362900      37.80159764
Si       0.89694681       7.95098587      18.23991592
Si       1.67376704       6.38050926      52.06100424
Si       1.67376704       5.10410561       3.98050932
Si       0.07449839      10.84641304      24.04024746
Si       0.07449839       0.63820182      32.00126610
20
Lattice="1.7473322430641076 -2.145587770115406e-16 -5.582240000471037e-15 2.7821707915582456e-16 11.393904189998773 9.972270925423918e-15 -1.7071148676894726e-13 4.467895314844923e-14 54.98251214540422" Properties=species:S:1:pos:R:3 unique_starting_index=4 config_type=initial n_minim_iter=7 stress="0.8004992371967222 1.536562499055413e-16 -5.84705135779172e-17 1.536562499055413e-16 0.04724814831989761 1.798031682062994e-15 -5.84705135779172e-17 1.798031682062994e-15 -0.056975150827385856" pbc="T T T"
Si       1.03579749       6.32627735      33.70714412
Si       1.03579749       5.06762684      21.27536802
Si       0.71945643       4.77191461      29.46535967
Si       0.71945643       6.62198958      25.51715247
Si       0.71153475       0.62932525      48.76662409
Si       0.71153475      10.76457894       6.21588805
Si       1.02787581      10.46886670      53.00840854
Si       1.02787581       0.92503749       1.97410360
Si       0.90264401       9.31260500      10.40904321
Si       0.90264401       2.08129919      44.57346893
Si       0.85220284       9.17387129      45.36452805
Si       0.85220284       2.22003290       9.61798410
Si       0.84468823       3.61565290      17.08221286
Si       0.84468823       7.77825129      37.90029928
Si       0.89512940       3.47691920      37.10924017
Si       0.89512940       7.91698499      17.87327198
Si       1.67211404       6.33403711      51.07463719
Si       1.67211404       5.05986708       3.90787495
Si       0.07521821      10.75681917      23.58338112
Si       0.07521821       0.63708502      31.39913103
20
Lattice="1.7465390885944891 -2.181745034556631e-16 -5.600511582441559e-15 2.5306470632988997e-16 11.3237156334753 1.0273141024721652e-14 -1.706182542413652e-13 4.5983697620081376e-14 55.166280938832124" Properties=species:S:1:pos:R:3 unique_starting_index=4 config_type=initial n_minim_iter=8 stress="0.8028129660538976 1.5301374981990652e-15 -2.8995988568984743e-16 1.5301374981990652e-15 0.028260011619647418 -5.193736643484757e-16 -2.8995988568984743e-16 -5.193736643484757e-16 -0.03780844026375052" pbc="T T T"
Si       1.04392862       6.26717068      33.80134468
Si       1.04392862       5.05654495      21.36493626
Si       0.71444704       4.72781885      29.60314913
Si       0.71444704       6.59589679      25.56313180
Si       0.70261047       0.60531286      48.94807673
Si       0.70261047      10.71840277       6.21820421
Si       1.03209205      10.38967666      53.14627227
Si       1.03209205       0.93403897       2.02000866
Si       0.90586516       9.23157622      10.44500210
Si       0.90586516       2.09213941      44.72127884
Si       0.85370700       9.09389268      45.51462914
Si       0.85370700       2.22982295       9.65165180
Si       0.84067393       3.56971840      17.13813837
Si       0.84067393       7.75399723      38.02814257
Si       0.89283209       3.43203486      37.23479227
Si       0.89283209       7.89168077      17.93148867
Si       1.66975164       6.30972846      51.24295164
Si       1.66975164       5.01398717       3.92332930
Si       0.07678744      10.67584499      23.65981117
Si       0.07678744       0.64787065      31.50646976
20
Lattice="1.7425291435621326 -2.246837899799907e-16 -5.65239321228188e-15 1.7824006190009056e-16 10.959512706931235 1.1107156408035423e-14 -1.6946663061284483e-13 4.8034387526096743e-14 55.91584704154345" Properties=species:S:1:pos:R:3 unique_starting_index=4 config_type=initial n_minim_iter=9 stress="0.7951646737949108 1.2264187755323286e-15 6.17056242182466e-16 1.2264187755323286e-15 -0.01719613421401901 1.0064202905351763e-15 6.17056242182466e-16 1.0064202905351763e-15 0.02416265449677501" pbc="T T T"
Si       1.08103642       6.04302244      34.24181967
Si       1.08103642       4.91649027      21.67402737
Si       0.69071804       4.59530310      29.98681893
Si       0.69071804       6.36420961      25.92902812
Si       0.66149272       0.56326608      49.63195089
Si       0.66149272      10.39624662       6.28389615
Si       1.05181111      10.07505945      53.88695164
Si       1.05181111       0.88445325       2.02889541
Si       0.92311640       8.86447676      10.57538381
Si       0.92311640       2.09503595      45.34046323
Si       0.86135954       8.70196894      46.11038522
Si       0.86135954       2.25754376       9.80546183
Si       0.81941275       3.38472040      17.38253971
Si       0.81941275       7.57479230      38.53330734
Si       0.88116960       3.22221259      37.76338535
Si       0.88116960       7.73730012      18.15246169
Si       1.65439027       6.15742979      51.92606510
Si       1.65439027       4.80208292       3.98978194
Si       0.08813887      10.28183927      23.96814158
Si       0.08813887       0.67767344      31.94770546
20
Lattice="1.7337037551002175 -2.3564428912007924e-16 -5.76076955099019e-15 9.583613776894952e-17 10.704400081196468 1.5620224297553747e-14 -1.7117964919937957e-13 7.529262278706938e-14 56.13277669507102" Properties=species:S:1:pos:R:3 unique_starting_index=4 config_type=initial n_minim_iter=10 stress="0.7235236692453042 1.458802429906144e-15 4.478506407767095e-15 1.458802429906144e-15 -0.024635253039042702 4.985165287937595e-15 4.478506407767095e-15 4.985165287937595e-15 -0.09183976917463757" pbc="T T T"
Si       1.16629722       5.87799175      34.36610087
Si       1.16629722       4.82640833      21.76667582
Si       0.63512743       4.57324682      30.12651490
Si       0.63512743       6.13115327      26.00626180
Si       0.56740654       0.52579171      49.83306417
Si       0.56740654      10.17860837       6.29971252
Si       1.09857632       9.92544686      54.07265014
Si       1.09857632       0.77895322       2.06012655
Si       0.96559856       8.64711578      10.52275455
Si       0.96559856       2.05728430      45.61002214
Si       0.88107300       8.38954435      46.20382416
Si       0.88107300       2.31485573       9.92895253
Si       0.76810519       3.29491574      17.54363379
Si       0.76810519       7.40948434      38.58914290
Si       0.85263076       3.03734431      37.99534088
Si       0.85263076       7.66705577      18.13743581
Si       1.61342142       6.02083046      52.08423787
Si       1.61342142       4.68356962       4.04853883
Si       0.12028234      10.03576966      24.01784952
Si       0.12028234       0.66863042      32.11492717
20
Lattice="1.716475349119365 -2.5809059828018226e-16 -6.0659238481154514e-15 -9.021084209847597e-17 10.082291038217662 1.4423243140172707e-14 -1.7287971143142212e-13 5.703932846148597e-14 57.927128365344636" Properties=species:S:1:pos:R:3 unique_starting_index=4 config_type=initial n_minim_iter=11 stress="0.5964963227284064 -1.7112605126711491e-15 7.457693691643489e-16 -1.7112605126711491e-15 -0.06446170608435171 9.30628031327867e-15 7.457693691643489e-16 9.30628031327867e-15 -0.025958143630608763" pbc="T T T"
Si       1.32369238       5.42845693      35.50800890
Si       1.32369238       4.65383411      22.41911947
Si       0.53107304       4.45807511      31.09905592
Si       0.53107304       5.62421593      26.82807244
Si       0.39278297       0.38731141      51.38268365
Si       0.39278297       9.69497963       6.54444472
Si       1.18540231       9.49922063      55.79163663
Si       1.18540231       0.58307041       2.13549174
Si       1.04423711       8.08165087      10.70165966
Si       1.04423711       2.00064017      47.22546871
Si       0.92498446       7.72892487      47.57462879
Si       0.92498446       2.35336617      10.35249957
Si       0.67223824       3.04050535      18.26190452
Si       0.67223824       7.04178569      39.66522384
Si       0.79149089       2.68777935      39.31606376
Si       0.79149089       7.39451168      18.61106461
Si       1.52772942       5.68251601      53.65535953
Si       1.52772942       4.39977503       4.27176884
Si       0.18874593       9.44092055      24.69179535
Si       0.18874593       0.64137049      33.23533302
20
Lattice="1.6664340076600637 -3.5204415918462986e-16 -9.004419079700232e-15 -7.029054242608181e-16 8.904794332635214 9.427167944713274e-15 -2.396523519013889e-13 1.6988915244436375e-14 62.070374153001474" Properties=species:S:1:pos:R:3 unique_starting_index=4 config_type=initial n_minim_iter=12 stress="0.16084934496059916 -2.8964605925369045e-15 -6.384507892862869e-15 -2.8964605925369045e-15 -0.015205334162605872 1.268415901264434e-14 -6.384507892862869e-15 1.268415901264434e-14 0.28658750765800545" pbc="T T T"
Si       1.76666594       4.38633739      38.11816524
Si       1.76666594       4.51845694      23.95220891
Si       0.22019925       4.29436544      33.33243601
Si       0.22019925       4.61042889      28.73793815
Si      -0.10023194      -0.06605978      54.98739599
Si      -0.10023194       8.97085411       7.08297816
Si       1.44623476       8.74676261      59.77312522
Si       1.44623476       0.15803172       2.29724893
Si       1.22869765       6.90885242      11.14296720
Si       1.22869765       1.99594191      50.92740695
Si       1.08161103       6.49915065      50.75528855
Si       1.08161103       2.40564368      11.31508560
Si       0.43773636       2.45645526      19.89221987
Si       0.43773636       6.44833908      42.17815428
Si       0.58482298       2.04675348      42.35027268
Si       0.58482298       6.85804085      19.72010147
Si       1.27086656       5.03900489      57.24930467
Si       1.27086656       3.86578944       4.82106948
Si       0.39556744       8.31818661      26.21411760
Si       0.39556744       0.58660772      35.85625656
20
Lattice="1.6641593480814363 -3.654243948113337e-16 -9.873061133956875e-15 -7.737498813421786e-16 8.852059455794857 1.3414400646918646e-14 -2.656752481032125e-13 4.2890243874979116e-14 62.03799869865916" Properties=species:S:1:pos:R:3 unique_starting_index=4 config_type=initial n_minim_iter=13 stress="0.11393726820861357 -2.62985012375035e-15 -5.7626372168432e-15 -2.62985012375035e-15 -0.14622937263818425 1.094701840130227e-14 -5.7626372168432e-15 1.094701840130227e-14 0.24886826254700045" pbc="T T T"
Si       1.78440531       4.34673599      38.10278402
Si       1.78440531       4.50532347      23.93521468
Si       0.20774473       4.27491819      33.30610616
Si       0.20774473       4.57714126      28.73189254
Si      -0.12024596      -0.07929374      54.95421403
Si      -0.12024596       8.93135319       7.08378467
Si       1.45641462       8.70094792      59.75089189
Si       1.45641462       0.15111154       2.28710681
Si       1.23554613       6.84623468      11.12588108
Si       1.23554613       2.00582477      50.91211762
Si       1.08800666       6.44006612      50.71895357
Si       1.08800666       2.41199334      11.31904513
Si       0.42861322       2.42020496      19.89311827
Si       0.42861322       6.43185450      42.14488043
Si       0.57615269       2.01403639      42.33804448
Si       0.57615269       6.83802307      19.69995422
Si       1.26073109       5.00155277      57.21359516
Si       1.26073109       3.85050669       4.82440354
Si       0.40342826       8.27653642      26.19459581
Si       0.40342826       0.57552304      35.84340289
20
Lattice="1.663941153069746 -3.808345088274719e-16 -1.0731498812184612e-14 -8.202846218339748e-16 8.973923932394591 7.634244361451339e-15 -2.9885580104559057e-13 8.075269014142446e-15 60.676515824750425" Properties=species:S:1:pos:R:3 unique_starting_index=4 config_type=initial n_minim_iter=14 stress="0.1363279496199808 -2.051278848485586e-15 -7.310897508827436e-15 -2.051278848485586e-15 0.07846872965443807 8.366374830298798e-15 -7.310897508827436e-15 8.366374830298798e-15 0.10665465524813697" pbc="T T T"
Si       1.77492285       4.42453783      37.27591344
Si       1.77492285       4.54938610      23.40060238
Si       0.21421007       4.26605555      32.52338274
Si       0.21421007       4.70786839      28.15313308
Si      -0.11098169      -0.06242414      53.73886029
Si      -0.11098169       9.03634807       6.93765553
Si       1.44973108       8.75301751      58.49139099
Si       1.44973108       0.22090642       2.18512483
Si       1.22605109       6.89159790      10.91055656
Si       1.22605109       2.08232603      49.76595927
Si       1.08859015       6.52611749      49.61436940
Si       1.08859015       2.44780645      11.06214642
Si       0.43789006       2.40463594      19.42770135
Si       0.43789006       6.56928800      41.24881447
Si       0.57535100       2.03915552      41.40040433
Si       0.57535100       6.93476841      19.27611149
Si       1.26641676       5.03046581      55.99711402
Si       1.26641676       3.94345813       4.67940180
Si       0.39752440       8.43042009      25.65885611
Si       0.39752440       0.54350384      35.01765972
20
Lattice="1.668185762492552 -3.96570103541505e-16 -1.1498212030226168e-14 -9.05967721401679e-16 8.92355869401893 1.1868212781812319e-14 -3.2787386269702075e-13 3.683265503733304e-14 59.808444638185904" Properties=species:S:1:pos:R:3 unique_starting_index=4 config_type=initial n_minim_iter=15 stress="0.19518998395266574 7.045530095961614e-17 -1.485945942115005e-14 7.045530095961614e-17 -0.05775473944764435 1.2497398694111026e-15 -1.485945942115005e-14 1.2497398694111026e-15 -0.03712757103643969" pbc="T T T"
Si       1.72284226       4.44181242      36.70315426
Si       1.72284226       4.48174627      23.10529038
Si       0.24831340       4.19329844      32.07569820
Si       0.24831340       4.73026025      27.73274643
Si      -0.05465650      -0.01996693      53.00951270
Si      -0.05465650       8.94352562       6.79893194
Si       1.41987236       8.65507779      57.63696875
Si       1.41987236       0.26848091       2.17147589
Si       1.20796017       6.83894997      10.82203777
Si       1.20796017       2.08460873      48.98640687
Si       1.06620022       6.52637106      48.94693671
Si       1.06620022       2.39718763      10.86150793
Si       0.46022559       2.37717062      19.08218455
Si       0.46022559       6.54638807      40.72626008
Si       0.60198554       2.06459172      40.76573025
Si       0.60198554       6.85896698      19.04271439
Si       1.29298125       4.94250560      55.21280999
Si       1.29298125       3.98105310       4.59563465
Si       0.37520451       8.44283244      25.30858767
Si       0.37520451       0.48072625      34.49985697
20
Lattice="1.667153721278872 -4.0668606554179635e-16 -1.1965466463336073e-14 -9.482709362524549e-16 8.941128708612535 1.7123721400901664e-14 -3.43743316335244e-13 7.189819743096248e-14 59.485734571578405" Properties=species:S:1:pos:R:3 unique_starting_index=4 config_type=initial n_minim_iter=16 stress="0.18382309624000975 1.8417983552737205e-16 -1.5270273787164036e-14 1.8417983552737205e-16 -0.0037330144140263638 4.507460284830315e-15 -1.5270273787164036e-14 4.507460284830315e-15 -0.03755205472595834" pbc="T T T"
Si       1.70707273       4.44568469      36.47129514
Si       1.70707273       4.49544402      23.01443943
Si       0.25676984       4.18777641      31.93341721
Si       0.25676984       4.75335230      27.55231736
Si      -0.03991901      -0.02487966      52.75730672
Si      -0.03991901       8.96600837       6.72842785
Si       1.41038388       8.65834076      57.29518465
Si       1.41038388       0.28278795       2.19054992
Si       1.20981450       6.82494443      10.77837294
Si       1.20981450       2.11618428      48.70736163
Si       1.05487946       6.55462492      48.68219533
Si       1.05487946       2.38650379      10.80353924
Si       0.45733922       2.35438007      18.96449434
Si       0.45733922       6.58674863      40.52124023
Si       0.61227426       2.08406057      40.54640652
Si       0.61227426       6.85706814      18.93932805
Si       1.29414723       4.90882806      54.91251226
Si       1.29414723       4.03230065       4.57322231
Si       0.37300650       8.50286501      25.16964498
Si       0.37300650       0.43826370      34.31608959
20
Lattice="1.6630706152114063 -4.2477341371604553e-16 -1.2817775692163086e-14 -1.0366072838905527e-15 8.908089938429383 1.3423448315218624e-14 -3.6811079154773924e-13 4.7159590636323507e-14 59.557988616399115" Properties=species:S:1:pos:R:3 unique_starting_index=4 config_type=initial n_minim_iter=17 stress="0.11730526941241584 -9.130029867182802e-16 -2.3435966274974265e-14 -9.130029867182802e-16 0.006450516125084775 3.8699448538461164e-15 -2.3435966274974265e-14 3.8699448538461164e-15 0.012075053760401647" pbc="T T T"
Si       1.69328096       4.40867050      36.51310032
Si       1.69328096       4.49941944      23.04488829
Si       0.25260828       4.17031396      31.98304742
Si       0.25260828       4.73777598      27.57494120
Si      -0.03021035      -0.04537447      52.82388260
Si      -0.03021035       8.95346441       6.73410602
Si       1.41046234       8.62435893      57.35393550
Si       1.41046234       0.28373101       2.20405311
Si       1.21058230       6.77561430      10.77521019
Si       1.21058230       2.13247564      48.78277843
Si       1.04595119       6.54549921      48.73543594
Si       1.04595119       2.36259073      10.82255268
Si       0.45248831       2.32156933      19.00378412
Si       0.45248831       6.58652061      40.55420450
Si       0.61711943       2.09145424      40.60154699
Si       0.61711943       6.81663570      18.95644163
Si       1.28044797       4.81924843      54.94851632
Si       1.28044797       4.08884151       4.60947229
Si       0.38262264       8.54288648      25.16952202
Si       0.38262264       0.36520346      34.38846660
20
Lattice="1.6598042064595784 -4.4381941812790556e-16 -1.3740329288206947e-14 -1.1260068364200945e-15 8.892345227124622 1.137840272374037e-14 -3.9669768491094603e-13 3.406556402325159e-14 59.34010129306391" Properties=species:S:1:pos:R:3 unique_starting_index=4 config_type=initial n_minim_iter=18 stress="0.04525739381695819 -1.0931947025266673e-15 -1.9887802652378404e-14 -1.0931947025266673e-15 0.012287781346602649 7.179794521232658e-16 -1.9887802652378404e-14 7.179794521232658e-16 -0.06192259914178123" pbc="T T T"
Si       1.65322836       4.38012907      36.35471837
Si       1.65322836       4.51221615      22.98538292
Si       0.25305106       4.12024562      31.85090792
Si       0.25305106       4.77209960      27.48919338
Si       0.00657584      -0.06604354      52.65543357
Si       0.00657584       8.95838877       6.68466772
Si       1.40675315       8.56641824      57.15924402
Si       1.40675315       0.32592699       2.18085727
Si       1.19632420       6.75073220      10.72746107
Si       1.19632420       2.14161302      48.61264022
Si       1.03536647       6.56946133      48.55215577
Si       1.03536647       2.32288390      10.78794552
Si       0.46348001       2.30455959      18.94258958
Si       0.46348001       6.58778564      40.39751172
Si       0.62443774       2.12328872      40.45799617
Si       0.62443774       6.76905651      18.88210512
Si       1.26255594       4.74688475      54.69060829
Si       1.26255594       4.14546047       4.64949301
Si       0.39724827       8.59163309      25.02055764
Si       0.39724827       0.30071214      34.31954365
20
Lattice="1.6475087317772183 -5.37259802406537e-16 -1.904633681634038e-14 -1.589029074754939e-15 8.731579642106546 7.140877619494859e-15 -5.562603958264114e-13 6.377544019597976e-15 58.99457402413943" Properties=species:S:1:pos:R:3 unique_starting_index=4 config_type=initial n_minim_iter=19 stress="-0.2089579011817906 -1.1622141680154654e-15 -4.802702221542522e-15 -1.1622141680154654e-15 -0.09701105008420957 1.130293832919138e-16 -4.802702221542522e-15 1.130293832919138e-16 -0.19039848577502902" pbc="T T T"
Si       1.47720528       4.33136253      36.05056184
Si       1.47720528       4.40021711      22.94401218
Si       0.23804343       3.79566952      31.62643249
Si       0.23804343       4.93591012      27.36814153
Si       0.17030345      -0.03442729      52.44129919
Si       0.17030345       8.76600694       6.55327483
Si       1.40946530       8.16145934      56.86542854
Si       1.40946530       0.57012030       2.12914548
Si       1.09843208       6.55166873      10.60058617
Si       1.09843208       2.17991091      48.39398785
Si       1.00594056       6.58609105      48.22968223
Si       1.00594056       2.14548859      10.76489179
Si       0.54907665       2.18587891      18.89670084
Si       0.54907665       6.54570073      40.09787318
Si       0.64156817       2.22030123      40.26217880
Si       0.64156817       6.51127841      18.73239522