2
Lattice="4.621796652060246 -2.6010174591765986e-18 -8.864951684795458e-17 -2.601017459176762e-18 4.62179665206025 2.63414175078183e-16 2.310898326030123 2.310898326030125 1.2568923185355818" Properties=species:S:1:pos:R:3 cutoff=-1.0 nneightol=1.2 n_minim_iter=2 stress="-0.11993710813750626 1.2576731831958286e-16 5.927894098631701e-17 1.2576731831958286e-16 -0.11993710813750415 -1.6321110217011907e-16 5.927894098631701e-17 -1.6321110217011907e-16 -0.12014488282240945" pbc="T T T"
Si      -0.00000000      -1.15544916      -0.31422308
Si      -0.00000000       1.15544916       0.31422308
