2
Lattice="4.577353546909873 -2.576006126757936e-18 -8.779706484813604e-17 -2.5760061267580978e-18 4.577353546909878 2.608811895830553e-16 2.2886767734549367 2.288676773454939 1.2448060668718546" Properties=species:S:1:pos:R:3 cutoff=-1.0 nneightol=1.2 n_minim_iter=2 stress="-0.11993710813750626 1.2576731831958286e-16 5.927894098631701e-17 1.2576731831958286e-16 -0.11993710813750415 -1.6321110217011907e-16 5.927894098631701e-17 -1.6321110217011907e-16 -0.12014488282240945" pbc="T T T"
Si      -0.00000000      -1.14433839      -0.31120152
Si      -0.00000000       1.14433839       0.31120152
