2
Lattice="4.80971210271085 1.0404510247142916e-17 1.7768510660184237e-16 1.0404510247142794e-17 4.80971210271085 -2.007950125501968e-16 2.404856051355425 2.404856051355425 1.326396977572993" Properties=species:S:1:pos:R:3 cutoff=-1.0 nneightol=1.2 n_minim_iter=1 stress="-0.0017144418651617096 5.015976034197583e-17 1.5176776441342944e-16 5.015976034197583e-17 -0.001714441865162636 1.984204576401934e-16 1.5176776441342944e-16 1.984204576401934e-16 -0.0017843043924221198" pbc="T T T"
Si      -0.00000000      -1.20242802      -0.33159924
Si      -0.00000000       1.20242803       0.33159924
