2
Lattice="4.485781804307448 -2.5244721197024665e-18 -8.604065033019924e-17 -2.524472119702644e-18 4.485781804307448 2.5566215965724965e-16 2.242890902153724 2.242890902153724 1.2199032361035207" Properties=species:S:1:pos:R:3 cutoff=-1.0 nneightol=1.2 n_minim_iter=1 stress="-0.24474042311541327 -6.494419533511558e-17 -2.4475215681096095e-16 -6.494419533511558e-17 -0.24474042311541355 -2.978077174095148e-16 -2.4475215681096095e-16 -2.978077174095148e-16 -0.23485211534957162" pbc="T T T"
Si      -0.00000000      -1.12144545      -0.30497581
Si      -0.00000000       1.12144545       0.30497581
