2
Lattice="4.769292442977449 1.0317073254054458e-17 1.7619188384855293e-16 1.0317073254054358e-17 4.769292442977449 -1.9910757972467101e-16 2.3846462214887243 2.3846462214887243 1.3152502574866294" Properties=species:S:1:pos:R:3 cutoff=-1.0 nneightol=1.2 n_minim_iter=1 stress="-0.02010110517967377 6.253197039053133e-17 -1.7884146995628246e-17 6.253197039053133e-17 -0.02010110517967377 7.098279581632843e-18 -1.7884146995628246e-17 7.098279581632843e-18 -0.018509074918467778" pbc="T T T"
Si      -0.00000000      -1.19232311      -0.32881256
Si      -0.00000000       1.19232311       0.32881256
