2
Lattice="2.7256497314958548 -8.698509787545826e-16 4.816723842639241e-41 -1.3628248657479265 2.360481909293644 2.354609046251313e-25 -2.47067976719686e-40 -4.347803321151532e-25 4.358647606949534" Properties=species:S:1:pos:R:3 n_minim_iter=1 energy=-3187.069946675657 free_energy=-3187.069946675657 pbc="T T T"
Ti       0.00000000       0.00000000       0.00000000
Ti       0.00000000       1.57365461       2.17932380
