4
Lattice="1.8016807320453465 -3.1206025669204287 -1.9888046326245608e-19 1.8016807320453454 3.1206025669204287 1.9888046326245567e-19 1.4804753163738088e-34 -3.9172254350826366e-19 5.949934804651618" Properties=species:S:1:pos:R:3:forces:R:3 cutoff=-1.0 nneightol=1.2 n_minim_iter=3 energy=-651.9905477096272 stress="-0.13279899506339257 -3.178906909392594e-16 4.4431741682698597e-17 -3.178906909392594e-16 -0.13279899506339216 6.312295955167016e-17 4.4431741682698597e-17 6.312295955167016e-17 -0.13282406851809442" free_energy=-651.9905477096272 pbc="T T T"
Si       1.80168073       1.04020086       0.38053672      -0.00000000      -0.00000000      -0.00051812
Si       1.80168073      -1.04020086       3.35550412       0.00000000       0.00000000      -0.00051812
Si       1.80168073       1.04020086       2.59443068      -0.00000000      -0.00000000       0.00051812
Si       1.80168073      -1.04020086      -0.38053672       0.00000000      -0.00000000       0.00051812
