4
Lattice="1.780512341573986 -3.0839378391095753 -6.648478353626114e-19 1.780512341573986 3.0839378391095753 6.648478353626449e-19 -9.953053580341956e-32 2.3814678492763588e-18 5.90763883739645" Properties=species:S:1:pos:R:3:forces:R:3 cutoff=-1.0 nneightol=1.2 n_minim_iter=3 energy=-651.2897124818751 stress="-0.21731139275671144 4.177991938058838e-16 2.4788117945045723e-17 4.177991938058838e-16 -0.2173113927567116 -1.775488395431647e-16 2.4788117945045723e-17 -1.775488395431647e-16 -0.21733863383366947" free_energy=-651.2897124818751 pbc="T T T"
Si       1.78051234       1.02797928       0.38580874       0.00000000       0.00000000       0.00046197
Si       1.78051234      -1.02797928       3.33962816      -0.00000000       0.00000000       0.00046197
Si       1.78051234       1.02797928       2.56801068       0.00000000      -0.00000000      -0.00046197
Si       1.78051234      -1.02797928      -0.38580874      -0.00000000      -0.00000000      -0.00046197
