4
Lattice="1.9987504987345313 -3.46193741546184 -5.748023354310411e-19 1.9987504987345313 3.46193741546184 5.748023354310734e-19 8.520839849757944e-33 -4.569457375232222e-19 6.592486950177292" Properties=species:S:1:pos:R:3:forces:R:3 cutoff=-1.0 nneightol=1.2 n_minim_iter=2 energy=-652.398708729077 stress="0.04505805789954085 -1.702985844317461e-16 -4.338578313230647e-17 -1.702985844317461e-16 0.04505805789954098 -3.33616809771153e-17 -4.338578313230647e-17 -3.33616809771153e-17 0.045081006908935975" free_energy=-652.398708729077 pbc="T T T"
Si       1.99875050       1.15397914       0.41963372       0.00000000       0.00000000       0.00009427
Si       1.99875050      -1.15397914       3.71587720       0.00000000       0.00000000       0.00009427
Si       1.99875050       1.15397914       2.87660975      -0.00000000      -0.00000000      -0.00009427
Si       1.99875050      -1.15397914      -0.41963372       0.00000000      -0.00000000      -0.00009427
