4
Lattice="1.9562230616679361 -3.3882777337468104 -1.590996125411172e-34 1.9562230616679361 3.3882777337468104 1.590996125411183e-34 -9.222087652169632e-49 -2.639122650696733e-34 6.4426810575510824" Properties=species:S:1:pos:R:3:forces:R:3 cutoff=-1.0 nneightol=1.2 n_minim_iter=2 energy=-652.6183329672658 stress="0.025110922657482708 2.466151619603162e-16 -1.701019992476531e-16 2.466151619603162e-16 0.02511092265748383 1.379124012890302e-16 -1.701019992476531e-16 1.379124012890302e-16 0.024675599250994686" free_energy=-652.6183329672658 pbc="T T T"
Si       1.95622306       1.12942591       0.40201766       0.00000000      -0.00000000       0.00876628
Si       1.95622306      -1.12942591       3.62335819       0.00000000       0.00000000       0.00876628
Si       1.95622306       1.12942591       2.81932287       0.00000000       0.00000000      -0.00876628
Si       1.95622306      -1.12942591      -0.40201766      -0.00000000       0.00000000      -0.00876628
