4
Lattice="1.8356350860087702 -3.179413233123258 4.3326272921749e-19 1.8356350860087702 3.179413233123258 -4.332627292174877e-19 -6.965090806941316e-32 -2.730708434812604e-18 6.097466667541111" Properties=species:S:1:pos:R:3:forces:R:3 cutoff=-1.0 nneightol=1.2 n_minim_iter=3 energy=-652.3807993974091 stress="-0.07747578643643803 3.111342113018224e-17 4.710363640059363e-17 3.111342113018224e-17 -0.07747578643643933 -3.9030710159083525e-16 4.710363640059363e-17 -3.9030710159083525e-16 -0.078385337240023" free_energy=-652.3807993974091 pbc="T T T"
Si       1.83563509       1.05980441       0.38619863       0.00000000       0.00000000       0.00017342
Si       1.83563509      -1.05980441       3.43493196      -0.00000000      -0.00000000       0.00017342
Si       1.83563509       1.05980441       2.66253470      -0.00000000       0.00000000      -0.00017342
Si       1.83563509      -1.05980441      -0.38619863      -0.00000000      -0.00000000      -0.00017342
