4
Lattice="1.9856819819194291 -3.439302080358515 -1.5820958175389233e-35 1.9856819819194294 3.439302080358515 1.582095817539168e-35 -1.2746320236960966e-48 -1.2313197943867171e-34 6.55069497017599" Properties=species:S:1:pos:R:3:forces:R:3 cutoff=-1.0 nneightol=1.2 n_minim_iter=3 energy=-652.487236132274 stress="0.03748610117395126 3.054751050799997e-16 2.3725307247141064e-16 3.054751050799997e-16 0.03748610117395183 1.418079453698376e-16 2.3725307247141064e-16 1.418079453698376e-16 0.03777671600770471" free_energy=-652.487236132274 pbc="T T T"
Si       1.98568198       1.14643403       0.41198722      -0.00000000      -0.00000000       0.00631906
Si       1.98568198      -1.14643403       3.68733470      -0.00000000       0.00000000       0.00631906
Si       1.98568198       1.14643403       2.86336027       0.00000000      -0.00000000      -0.00631906
Si       1.98568198      -1.14643403      -0.41198722       0.00000000       0.00000000      -0.00631906
