10
Lattice="5.698209244771259 -0.3536333130289408 -0.33759237606449394 0.08572874853759528 6.58421135757072 -1.61749268229385 -0.17338046694130438 1.3863228945216266 5.505580335314219" Properties=species:S:1:pos:R:3 unique_starting_index=87 config_type=initial n_minim_iter=17 energy=-1627.7578055159854 free_energy=-1627.7578055159854 pbc="T T T"
Si       3.09653269       6.22720425       2.85583052
Si       1.68814828       2.64955333       2.57903414
Si       3.58502151       2.98462632       1.09469723
Si       0.72862838       4.15901883      -0.23314683
Si       1.39330436       1.34951208       4.46884940
Si       1.25647876       1.82785879       0.32894581
Si       5.47376598       5.96543996       2.85813376
Si       2.66221153       5.23562343       0.76384949
Si       2.66347323       4.31033022       4.30032914
Si       5.73171482       3.90228642       1.67664026
