22
Lattice="5.191571298677168 -2.6020291529455117 0.0012630627825776521 -4.276745630132213 10.335859096220616 -4.152215335070723 1.3192160494863285 -9.021693108288826 14.863537063463893" Properties=species:S:1:pos:R:3 unique_starting_index=51 config_type=initial n_minim_iter=1 energy=-3582.523704283103 free_energy=-3582.523704283103 pbc="T T T"
Si       0.44284523       5.57663186       0.62134039
Si       0.42957015      -1.06762844       8.01959344
Si      -0.70427685       7.00912269      -4.71013420
Si      -0.88450078       4.36250641       2.19482070
Si       0.32814867       0.04189287       5.15519274
Si       3.20620135      -2.24250564       5.92075336
Si      -0.52272152       1.14421972       0.33105701
Si       0.13227710       2.67319144      -1.35387929
Si       2.22565480      -4.07366745       7.21850155
Si       3.64335688      -4.43975789      11.11501758
Si      -1.13919491       0.66628382       8.35043485
Si       3.14409694      -2.06846322       3.38298333
Si       0.24952266       0.67967400       2.72087728
Si       4.52935521      -7.84777339      13.27410676
Si       2.95316580      -6.62225004      11.75408796
Si       0.96224692       2.94262757       2.54624977
Si       1.58586561      -1.15937243       1.85218491
Si       2.16668641      -0.27077403       6.64523912
Si       2.46917191      -3.29162546       9.43654882
Si       0.63078860      -4.17109081       4.45732027
Si       3.05934451       0.30366950       0.68718452
Si       2.76263405      -4.38384131       3.45830310
22
Lattice="5.188219767473136 -2.6005073900476687 0.004633079988210977 -4.275547211263431 10.332070797103846 -4.159820297063896 1.325530478266292 -9.021363353074067 14.876465556430817" Properties=species:S:1:pos:R:3 unique_starting_index=51 config_type=initial n_minim_iter=2 stress="-0.00038382876542807955 8.310942512325013e-05 0.00024061337064992786 8.310942512325013e-05 -0.00029647752373582247 -7.972852855852421e-05 0.00024061337064992786 -7.972852855852421e-05 4.587760997486727e-05" pbc="T T T"
Si       0.44300871       5.57445972       0.62051265
Si       0.43355687      -1.06951644       8.02560009
Si      -0.70584171       7.00715529      -4.71519513
Si      -0.88208456       4.35982750       2.19483166
Si       0.33047572       0.04071172       5.15884476
Si       3.20715839      -2.24318002       5.92687153
Si      -0.52188447       1.14353120       0.33048223
Si       0.13152644       2.67252031      -1.35562182
Si       2.22795859      -4.07354452       7.22552269
Si       3.64684573      -4.44030778      11.12527064
Si      -1.13420139       0.66390312       8.35524451
Si       3.14382483      -2.06814356       3.38762750
Si       0.25061029       0.67873998       2.72274615
Si       4.53268002      -7.84739421      13.28736711
Si       2.95683516      -6.62220451      11.76551350
Si       0.96311193       2.94100465       2.54756296
Si       1.58592484      -1.15912606       1.85430315
Si       2.16908109      -0.27196177       6.65107476
Si       2.47255595      -3.29250704       9.44512496
Si       0.63235698      -4.17035224       4.46174626
Si       3.05794872       0.30364752       0.68926890
Si       2.76235578      -4.38239149       3.46302638
22
Lattice="5.190554553216411 -2.6023158806606035 0.005142877026234177 -4.279042870212825 10.336928191784434 -4.16562421920557 1.3280142489115738 -9.02676594117926 14.892899535692406" Properties=species:S:1:pos:R:3 unique_starting_index=51 config_type=initial n_minim_iter=3 stress="0.0005238992769748657 -7.9311821854809e-05 0.00022257698371801576 -7.9311821854809e-05 0.0006143836849775702 -0.00016517265293223814 0.00022257698371801576 -0.00016517265293223814 0.001204170336666596" pbc="T T T"
Si       0.44116664       5.57732785       0.62004035
Si       0.43450661      -1.07234679       8.03439386
Si      -0.70760006       7.01027814      -4.72047011
Si      -0.88195520       4.36061321       2.19665621
Si       0.33030037       0.04028687       5.16415685
Si       3.20877734      -2.24664612       5.93297946
Si      -0.52139004       1.14376242       0.32993783
Si       0.13059797       2.67404416      -1.35795732
Si       2.23020715      -4.07637827       7.23358631
Si       3.64974923      -4.44397818      11.13657490
Si      -1.13489894       0.66341434       8.36347723
Si       3.14537633      -2.06972469       3.39204168
Si       0.24995666       0.67860144       2.72567482
Si       4.53515879      -7.85294150      13.30219075
Si       2.95887082      -6.62705480      11.77942801
Si       0.96270299       2.94211632       2.54919337
Si       1.58720782      -1.15988008       1.85569312
Si       2.17077163      -0.27275746       6.65838274
Si       2.47487737      -3.29598844       9.45561042
Si       0.63313958      -4.17266006       4.46709793
Si       3.05927939       0.30334121       0.69025272
Si       2.76408275      -4.38432458       3.46679237
22
Lattice="5.189364337412654 -2.6020540540773553 0.0022608602136258574 -4.278233066388915 10.330950716592303 -4.161278976341911 1.3222502752383176 -9.020295367451219 14.886143878412224" Properties=species:S:1:pos:R:3 unique_starting_index=51 config_type=initial n_minim_iter=4 stress="-0.0002912640280495752 -0.0005271887364239527 -0.00017887138727060463 -0.0005271887364239527 -0.00014430340611019683 3.90367443146868e-05 -0.00017887138727060463 3.90367443146868e-05 0.00015128807116123852" pbc="T T T"
Si       0.43584634       5.57684606       0.61882941
Si       0.43161503      -1.07518919       8.03263506
Si      -0.70717052       7.00539975      -4.71651038
Si      -0.88052087       4.35641182       2.19717531
Si       0.32621991       0.04151187       5.16226331
Si       3.20476978      -2.24966321       5.92798948
Si      -0.51897615       1.14260358       0.32797747
Si       0.12907642       2.67351519      -1.35903996
Si       2.22832771      -4.07403011       7.22982684
Si       3.64522339      -4.44129361      11.12798294
Si      -1.14028928       0.66446972       8.36051724
Si       3.14278797      -2.06850747       3.39075486
Si       0.24610912       0.67840064       2.72531688
Si       4.52590652      -7.84887093      13.29477254
Si       2.95189473      -6.62402425      11.77598243
Si       0.95930483       2.94189808       2.54603606
Si       1.58743264      -1.15892058       1.85200108
Si       2.16849705      -0.27105632       6.65602695
Si       2.47171123      -3.29584566       9.45161425
Si       0.63067921      -4.17025406       4.46552867
Si       3.05855876       0.30301467       0.68908611
Si       2.76206557      -4.38038349       3.46245727
22
Lattice="5.189246463215722 -2.597375590685006 0.003512043397789448 -4.271266402274085 10.328069575841539 -4.161177105511714 1.317432814542696 -9.02077593182882 14.881071536627665" Properties=species:S:1:pos:R:3 unique_starting_index=51 config_type=initial n_minim_iter=5 stress="-0.00010829792494874785 0.00016436756733170232 -2.8351144382707555e-05 0.00016436756733170232 0.00011988470606998813 5.863803194001024e-05 -2.8351144382707555e-05 5.863803194001024e-05 4.080520578878052e-06" pbc="T T T"
Si       0.44047745       5.57853761       0.61797841
Si       0.43284390      -1.07650202       8.03005194
Si      -0.70178588       7.00544953      -4.71486651
Si      -0.87539850       4.35551258       2.19604525
Si       0.32724820       0.04192925       5.16042464
Si       3.20516167      -2.24823800       5.92618158
Si      -0.51716711       1.14214049       0.32700860
Si       0.13084192       2.67445102      -1.35908040
Si       2.22747631      -4.07293776       7.22783779
Si       3.64540288      -4.43902467      11.12404284
Si      -1.13875509       0.66300012       8.35672608
Si       3.14279231      -2.06561098       3.39067770
Si       0.24686864       0.67856765       2.72444994
Si       4.52248577      -7.84626918      13.29116230
Si       2.94910404      -6.62271892      11.77319640
Si       0.96298664       2.94333785       2.54451312
Si       1.58788637      -1.15745204       1.85108904
Si       2.17105804      -0.26914910       6.65415432
Si       2.47211745      -3.29490081       9.44882590
Si       0.62754327      -4.17031560       4.46431515
Si       3.06073527       0.30611871       0.68959295
Si       2.75964285      -4.37794627       3.46148256
22
Lattice="5.195301184061736 -2.596354512070151 0.006768781974516567 -4.279297015415256 10.323137278328836 -4.16587783438901 1.326364700671798 -9.021088541762133 14.879755468072492" Properties=species:S:1:pos:R:3 unique_starting_index=51 config_type=initial n_minim_iter=6 stress="0.0004909391163285563 -6.847550597890957e-05 0.00021221335345983404 -6.847550597890957e-05 -0.00031356685635531087 -7.007727689718846e-05 0.00021221335345983404 -7.007727689718846e-05 -0.00018096840272362901" pbc="T T T"
Si       0.43907275       5.57474296       0.61489531
Si       0.43734497      -1.08060902       8.02789096
Si      -0.70490839       7.00207558      -4.71599317
Si      -0.87552113       4.35169796       2.19299868
Si       0.32970390       0.04026465       5.15896315
Si       3.21093319      -2.25072103       5.92588730
Si      -0.51652160       1.14129955       0.32517692
Si       0.12896447       2.67390939      -1.35976742
Si       2.23388374      -4.07427178       7.22800858
Si       3.65503812      -4.44206062      11.12294549
Si      -1.13717405       0.65861734       8.35241231
Si       3.14741608      -2.06536430       3.39197057
Si       0.24763171       0.67701348       2.72334479
Si       4.53291393      -7.84734757      13.29187416
Si       2.95823136      -6.62330308      11.77350733
Si       0.96536649       2.93979306       2.54221409
Si       1.59120682      -1.15731589       1.85084204
Si       2.17618406      -0.27254784       6.65279502
Si       2.47945001      -3.29749409       9.44751602
Si       0.62990028      -4.16905816       4.46458701
Si       3.06498391       0.30544882       0.69058766
Si       2.76405265      -4.37633887       3.46241905
22
Lattice="5.193611030951154 -2.5964998512267807 0.007006349203933488 -4.276090434200833 10.327710152487278 -4.17278448531631 1.3205469506701573 -9.033696187663645 14.88800464073809" Properties=species:S:1:pos:R:3 unique_starting_index=51 config_type=initial n_minim_iter=7 stress="0.00024354833253406813 3.932142554289742e-06 -6.59100733223436e-05 3.932142554289742e-06 -0.000142436888865028 -0.0003518226034740053 -6.59100733223436e-05 -0.0003518226034740053 -0.00011838105505063503" pbc="T T T"
Si       0.43524813       5.57670815       0.60880787
Si       0.43641675      -1.09038572       8.03047656
Si      -0.70030557       7.00483873      -4.72033364
Si      -0.87391407       4.35147611       2.19058554
Si       0.32828587       0.03884310       5.16123419
Si       3.20641381      -2.25791192       5.92655087
Si      -0.51253975       1.14148428       0.32159673
Si       0.12603367       2.67811572      -1.36195992
Si       2.23143681      -4.08281659       7.23215251
Si       3.65145462      -4.45329366      11.12617347
Si      -1.14084659       0.65082928       8.35245384
Si       3.14362940      -2.06521487       3.39397506
Si       0.24522555       0.67568026       2.72358295
Si       4.52334173      -7.85869121      13.30006460
Si       2.95366042      -6.63179149      11.78122475
Si       0.96750211       2.93778887       2.53920720
Si       1.59226192      -1.15751819       1.84958313
Si       2.17287176      -0.27862748       6.65378785
Si       2.47619541      -3.30595544       9.45025215
Si       0.62544889      -4.17185184       4.46750774
Si       3.06627648       0.30622414       0.68997723
Si       2.75942285      -4.37829120       3.46289841
22
Lattice="5.192911731678731 -2.5978020886164623 0.006824127009357284 -4.278318432013519 10.327000330239521 -4.166894006521082 1.3271714007665116 -9.023600471076374 14.884391841166652" Properties=species:S:1:pos:R:3 unique_starting_index=51 config_type=initial n_minim_iter=8 stress="0.00012742427859575205 -0.00014546792714001543 0.0003161856135602834 -0.00014546792714001543 0.00013899270926815088 0.0002720207664365497 0.0003161856135602834 0.0002720207664365497 -0.00017913516889114892" pbc="T T T"
Si       0.43151865       5.57945204       0.61215665
Si       0.44096088      -1.08689034       8.03226044
Si      -0.70101433       7.00092361      -4.71493866
Si      -0.87191150       4.35486359       2.19452823
Si       0.33036284       0.04492431       5.16392767
Si       3.20704811      -2.25597993       5.92672049
Si      -0.50936398       1.14237231       0.32011342
Si       0.12216735       2.67974432      -1.36012080
Si       2.23497052      -4.08016948       7.23194928
Si       3.65670114      -4.44750866      11.12604667
Si      -1.13851441       0.65628386       8.35361191
Si       3.14325496      -2.06094417       3.39495334
Si       0.24499668       0.67845597       2.72521310
Si       4.52567364      -7.85039999      13.29999290
Si       2.95882476      -6.62294772      11.78119480
Si       0.97024910       2.93957146       2.54188916
Si       1.59455219      -1.15528994       1.84817850
Si       2.17448212      -0.27467094       6.65639062
Si       2.48049961      -3.30018218       9.45056529
Si       0.62560124      -4.16801075       4.46486101
Si       3.06784803       0.30710308       0.69194954
Si       2.75862238      -4.37559204       3.45917494
22
Lattice="5.192332611805244 -2.594545858169672 0.004017341852453732 -4.273104309477421 10.319037475554612 -4.16848149298433 1.3157192469072285 -9.018828074925926 14.894791938022907" Properties=species:S:1:pos:R:3 unique_starting_index=51 config_type=initial n_minim_iter=9 stress="0.00011040005934738545 9.776151448952421e-05 -0.00013990112879728097 9.776151448952421e-05 -0.0003184862199850498 0.00015674480361161535 -0.00013990112879728097 0.00015674480361161535 0.0002337007930027233" pbc="T T T"
Si       0.43041507       5.57665389       0.61023457
Si       0.43676279      -1.08902807       8.03822607
Si      -0.69458748       6.99513017      -4.71775079
Si      -0.87053185       4.35159180       2.19623253
Si       0.32725910       0.04568341       5.16825549
Si       3.20183651      -2.25555975       5.92879694
Si      -0.50686082       1.14158997       0.31880819
Si       0.12135660       2.68005738      -1.36174266
Si       2.23015050      -4.07935750       7.23670517
Si       3.64993899      -4.44603206      11.13171515
Si      -1.14380035       0.65259119       8.35904989
Si       3.13967660      -2.05706648       3.39611853
Si       0.24290406       0.67798390       2.72708452
Si       4.51305415      -7.84555204      13.30868190
Si       2.95002210      -6.61839815      11.78948219
Si       0.97134174       2.93653360       2.54216265
Si       1.59438341      -1.15319461       1.84747138
Si       2.17019364      -0.27581805       6.66008498
Si       2.47473729      -3.29942868       9.45602114
Si       0.62008011      -4.16427980       4.46749744
Si       3.06944891       0.30806520       0.69090849
Si       2.75335775      -4.37093581       3.45869121
22
Lattice="5.1902805004929995 -2.5987077901269418 0.0070454601009710535 -4.273693934507062 10.335847573431034 -4.178566581339415 1.3173490172610962 -9.046262195523685 14.897635758104045" Properties=species:S:1:pos:R:3 unique_starting_index=51 config_type=initial n_minim_iter=10 stress="-0.0003064900921111699 4.224807018988904e-05 -0.0001345893607899745 4.224807018988904e-05 0.00026893470466621516 -0.00035689719263900084 -0.0001345893607899745 -0.00035689719263900084 -1.7710639852265303e-05" pbc="T T T"
Si       0.42546214       5.58346865       0.60116351
Si       0.43787358      -1.10231239       8.03633945
Si      -0.69363831       7.00629575      -4.72225736
Si      -0.86868488       4.35405831       2.19028569
Si       0.32661537       0.04133352       5.16683917
Si       3.19906437      -2.26723587       5.92805526
Si      -0.50360184       1.14278409       0.31518225
Si       0.11729382       2.68762574      -1.36515354
Si       2.23097494      -4.09537941       7.23901285
Si       3.65114931      -4.46614115      11.13090992
Si      -1.14353210       0.64023622       8.35247703
Si       3.13719248      -2.06093753       3.39733593
Si       0.24191331       0.67553019       2.72524768
Si       4.50854494      -7.87101831      13.31315659
Si       2.94962028      -6.63961611      11.79295712
Si       0.97247465       2.93459831       2.53657982
Si       1.59530153      -1.15512904       1.84618457
Si       2.16877363      -0.28640227       6.65779591
Si       2.47563248      -3.31668770       9.45520624
Si       0.61841418      -4.17202068       4.46909120
Si       3.07072134       0.30706522       0.69079287
Si       2.74945576      -4.37802553       3.45942998
22
Lattice="5.194908119175895 -2.5998442090105573 0.0023392836000063577 -4.2800243399665066 10.327834248912602 -4.164400947433905 1.318282895163608 -9.023807659796526 14.886460748180271" Properties=species:S:1:pos:R:3 unique_starting_index=51 config_type=initial n_minim_iter=11 stress="0.00017348097999105147 3.22554541834327e-05 -7.16192962711729e-08 3.22554541834327e-05 -0.0002711980458879018 0.00022130240941782312 -7.16192962711729e-08 0.00022130240941782312 0.00010162323200855097" pbc="T T T"
Si       0.42078555       5.58570520       0.60438328
Si       0.43581934      -1.09159145       8.03761944
Si      -0.69202207       6.99502892      -4.71169088
Si      -0.86465739       4.35435790       2.19745641
Si       0.32245455       0.04818972       5.16770911
Si       3.19814940      -2.25840496       5.92631071
Si      -0.50196992       1.14363297       0.31669393
Si       0.11213750       2.69065322      -1.36599425
Si       2.23452672      -4.08881588       7.23616746
Si       3.65744781      -4.44994849      11.12577889
Si      -1.14237074       0.64019506       8.35068937
Si       3.13876875      -2.05176773       3.39323231
Si       0.24298757       0.67733595       2.72675926
Si       4.50320533      -7.85250714      13.30590197
Si       2.94748626      -6.62428887      11.78494271
Si       0.97215571       2.93064406       2.53927864
Si       1.59573929      -1.14839059       1.84282783
Si       2.16843538      -0.28284818       6.65919945
Si       2.48033062      -3.30997351       9.45337011
Si       0.61616583      -4.15866465       4.46148654
Si       3.07873261       0.30432377       0.69178888
Si       2.74383100      -4.36554059       3.44859463
22
Lattice="5.194262345345981 -2.604726837738095 0.003915759317148276 -4.282761964571904 10.343218417524533 -4.170410339735582 1.3201575090609685 -9.045674508514267 14.885905304310304" Properties=species:S:1:pos:R:3 unique_starting_index=51 config_type=initial n_minim_iter=12 stress="-9.521569927734785e-05 -2.4426344505524002e-05 1.99275891517508e-05 -2.4426344505524002e-05 0.00016897680647287062 -0.00012917336753983467 1.99275891517508e-05 -0.00012917336753983467 -5.810815798342176e-05" pbc="T T T"
Si       0.41364678       5.59359412       0.59562634
Si       0.43668250      -1.10254277       8.03602242
Si      -0.69024552       7.00336590      -4.71338759
Si      -0.86124671       4.35711536       2.19363394
Si       0.32031248       0.04522614       5.16607677
Si       3.19552217      -2.26810274       5.92534826
Si      -0.49895402       1.14551226       0.31385728
Si       0.10623737       2.69966163      -1.36960684
Si       2.23664894      -4.10375202       7.23693273
Si       3.66084683      -4.46658332      11.12478440
Si      -1.14152179       0.62772877       8.34345168
Si       3.13770417      -2.05337769       3.39296522
Si       0.24209530       0.67461925       2.72562113
Si       4.49662698      -7.87339792      13.30761332
Si       2.94620383      -6.64136109      11.78493590
Si       0.97276534       2.92816665       2.53379578
Si       1.59598351      -1.14880841       1.84067030
Si       2.16576850      -0.29222299       6.65675472
Si       2.48193028      -3.32592097       9.45216922
Si       0.61346402      -4.16236576       4.46109856
Si       3.08246703       0.30193283       0.69211385
Si       2.73884087      -4.36888981       3.44605637
22
Lattice="5.19587579936571 -2.6054393132790183 0.002985009415067474 -4.285034855057548 10.342681781124437 -4.167382588057639 1.3205330565713034 -9.042899107401944 14.881144953669596" Properties=species:S:1:pos:R:3 unique_starting_index=51 config_type=initial n_minim_iter=13 stress="-1.920054540188248e-05 -6.568862185591992e-06 -1.7181860292770216e-05 -6.568862185591992e-06 3.2824934530992206e-05 1.7036900756867072e-05 -1.7181860292770216e-05 1.7036900756867072e-05 -2.9697920468059734e-05" pbc="T T T"
Si       0.40954206       5.59479539       0.59369852
Si       0.43846516      -1.10393418       8.03508647
Si      -0.68844951       7.00136154      -4.71104735
Si      -0.85857103       4.35740334       2.19486340
Si       0.31888967       0.04470687       5.16397420
Si       3.19741748      -2.26809493       5.92556210
Si      -0.50061534       1.14717604       0.31479650
Si       0.10362558       2.70209878      -1.36951752
Si       2.23890138      -4.10469551       7.23300208
Si       3.66453682      -4.46673154      11.12685305
Si      -1.14044556       0.62716353       8.34140814
Si       3.14154597      -2.05190131       3.39110834
Si       0.24170875       0.67264789       2.72657814
Si       4.49393958      -7.87069952      13.30248254
Si       2.94510043      -6.63791355      11.77819001
Si       0.97228856       2.92889946       2.53152521
Si       1.59401213      -1.14884693       1.84022897
Si       2.16221692      -0.29053003       6.65388607
Si       2.48185444      -3.32648615       9.45133943
Si       0.61153696      -4.15822994       4.45949633
Si       3.08505288       0.29978884       0.69307141
Si       2.73945226      -4.36515486       3.44271043
22
Lattice="5.197705094732648 -2.6051683097518707 0.0036858584918487017 -4.287502446833737 10.340806288261922 -4.168856340591052 1.3228239615122346 -9.042319050493605 14.882213807152329" Properties=species:S:1:pos:R:3 unique_starting_index=51 config_type=initial n_minim_iter=14 stress="9.578274586399375e-05 2.5034680899396874e-05 3.672525347484817e-05 2.5034680899396874e-05 -0.0001712995893685789 -1.9667413081828415e-06 3.672525347484817e-05 -1.9667413081828415e-06 0.00013734234008045884" pbc="T T T"
Si       0.40577512       5.59464874       0.59037919
Si       0.44123307      -1.10791732       8.03620332
Si      -0.68811273       6.99899004      -4.70992002
Si      -0.85682122       4.35673691       2.19464177
Si       0.31849696       0.04364174       5.16319961
Si       3.19987925      -2.26798062       5.92853418
Si      -0.50054212       1.14828420       0.31418931
Si       0.10052382       2.70457153      -1.37108906
Si       2.24190159      -4.10648108       7.23373100
Si       3.67014281      -4.46745241      11.12987563
Si      -1.13913805       0.62250058       8.34104582
Si       3.14328849      -2.04928148       3.39163375
Si       0.24280258       0.67271766       2.72728124
Si       4.49313452      -7.86911208      13.30417966
Si       2.94467580      -6.63729294      11.77837454
Si       0.97459397       2.92570184       2.53058680
Si       1.59492545      -1.14921729       1.84137310
Si       2.16145778      -0.29169541       6.65207952
Si       2.48662098      -3.33031054       9.45373980
Si       0.61123400      -4.15447412       4.45799440
Si       3.08726620       0.29882998       0.69444056
Si       2.73805725      -4.36223329       3.44090503
22
Lattice="5.197982928101322 -2.6056397784082965 0.004292634063941138 -4.2881613774119804 10.342789034093407 -4.169388022459139 1.323944995073052 -9.045325040310725 14.87999711257265" Properties=species:S:1:pos:R:3 unique_starting_index=51 config_type=initial n_minim_iter=15 stress="4.3472490208519806e-05 1.2299525277080086e-05 2.046605169444484e-05 1.2299525277080086e-05 -8.796213215956699e-05 -8.451077015409411e-06 2.046605169444484e-05 -8.451077015409411e-06 6.185655465302311e-05" pbc="T T T"
Si       0.40352029       5.59560893       0.58815464
Si       0.44323174      -1.11161654       8.03486974
Si      -0.68812927       7.00006445      -4.70838777
Si      -0.85642511       4.35737380       2.19348623
Si       0.31833921       0.04221672       5.16074696
Si       3.20201123      -2.26857271       5.92975003
Si      -0.50124684       1.14946699       0.31389313
Si       0.09916099       2.70621502      -1.37149432
Si       2.24321942      -4.10826874       7.23250887
Si       3.67266897      -4.46971550      11.12969154
Si      -1.13838754       0.62057174       8.33974074
Si       3.14421636      -2.04913151       3.39166961
Si       0.24355080       0.67330042       2.72701669
Si       4.49285922      -7.87062608      13.30183650
Si       2.94355179      -6.63937897      11.77575408
Si       0.97586786       2.92534047       2.52926437
Si       1.59528622      -1.15095313       1.84269410
Si       2.16045220      -0.29185486       6.64833870
Si       2.48920729      -3.33382364       9.45340351
Si       0.61167147      -4.15418432       4.45616698
Si       3.08657059       0.29869349       0.69505604
Si       2.73783352      -4.36268883       3.43965332
22
Lattice="5.1979412055244385 -2.6068035401544853 0.005077458077703212 -4.288827688012184 10.347266053915849 -4.169596881992846 1.3254955850014396 -9.050730374367902 14.875631599109362" Properties=species:S:1:pos:R:3 unique_starting_index=51 config_type=initial n_minim_iter=16 stress="-6.467351051473484e-05 -1.552321145886924e-05 -2.8813658108032513e-05 -1.552321145886924e-05 0.0001273973500902446 -2.932129528697754e-06 -2.8813658108032513e-05 -2.932129528697754e-06 -0.00010378427039662346" pbc="T T T"
Si       0.40013305       5.59761790       0.58498085
Si       0.44609834      -1.11714100       8.03237029
Si      -0.68709163       7.00205601      -4.70553971
Si      -0.85599382       4.35834303       2.19147458
Si       0.31773606       0.04015901       5.15606632
Si       3.20566901      -2.26929290       5.93170715
Si      -0.50239097       1.15153691       0.31337780
Si       0.09692451       2.70884074      -1.37165609
Si       2.24493406      -4.11059029       7.23083088
Si       3.67561833      -4.47392168      11.12864048
Si      -1.13681848       0.61799551       8.33791886
Si       3.14545000      -2.04962393       3.39238339
Si       0.24464471       0.67464390       2.72619268
Si       4.49219837      -7.87381923      13.29706571
Si       2.94120727      -6.64327151      11.77105208
Si       0.97774259       2.92644171       2.52681270
Si       1.59587480      -1.15372844       1.84520709
Si       2.15870938      -0.29176746       6.64174157
Si       2.49248163      -3.33899072       9.45243405
Si       0.61241655      -4.15460768       4.45290027
Si       3.08389291       0.29914700       0.69567242
Si       2.73756237      -4.36395305       3.43707684
22
Lattice="5.1982385987275315 -2.607640593987913 0.005282350041282268 -4.290467062973267 10.348135997875012 -4.169398613450286 1.3277861405315798 -9.050383547448705 14.875836963256962" Properties=species:S:1:pos:R:3 unique_starting_index=51 config_type=initial n_minim_iter=17 stress="-2.7169264729957432e-06 -3.199561500323713e-06 -1.0928914710643803e-06 -3.199561500323713e-06 1.9434461910929496e-05 1.249631039221465e-05 -1.0928914710643803e-06 1.249631039221465e-05 -1.1662305477455437e-05" pbc="T T T"
Si       0.39762300       5.59790419       0.58326096
Si       0.44768789      -1.11861287       8.03341140
Si      -0.68286989       6.99906320      -4.70371270
Si      -0.85540902       4.35658925       2.19098901
Si       0.31626385       0.04018445       5.15330923
Si       3.20926505      -2.26777040       5.93574901
Si      -0.50224184       1.15292644       0.31273124
Si       0.09330713       2.71077237      -1.37149986
Si       2.24718896      -4.10965553       7.23406682
Si       3.67782213      -4.47617273      11.13023833
Si      -1.13316187       0.61448851       8.33966049
Si       3.14653793      -2.04931080       3.39638136
Si       0.24539821       0.67617705       2.72530284
Si       4.49129069      -7.87389108      13.29727167
Si       2.93976900      -6.64346579      11.77151156
Si       0.97952888       2.92906987       2.52488484
Si       1.59692745      -1.15325058       1.84804297
Si       2.15791561      -0.29216832       6.63922717
Si       2.49441424      -3.34019181       9.45465634
Si       0.61225485      -4.15335711       4.45077289
Si       3.08038271       0.30075502       0.69550132
Si       2.73664815      -4.36192442       3.43329764
22
Lattice="5.198910242973493 -2.6084845464415496 0.00573063589195581 -4.292286786489444 10.349676409312492 -4.170494977212633 1.3295232601465359 -9.0527449454991 14.876019341778166" Properties=species:S:1:pos:R:3 unique_starting_index=51 config_type=initial n_minim_iter=18 stress="3.73717725183165e-05 2.3175191366597543e-05 2.165891948790772e-05 2.3175191366597543e-05 -0.0001151136381873648 -4.374225724505119e-05 2.165891948790772e-05 -4.374225724505119e-05 8.217891792797248e-05" pbc="T T T"
Si       0.39483056       5.59840332       0.57988801
Si       0.44973792      -1.12157096       8.03439793
Si      -0.68206032       6.99891826      -4.70249105
Si      -0.85645297       4.35702628       2.19031414
Si       0.31569069       0.03913807       5.15099391
Si       3.21197265      -2.26843337       5.93963053
Si      -0.50291686       1.15427549       0.31281175
Si       0.08976630       2.71332686      -1.37212912
Si       2.25064305      -4.11241678       7.23494493
Si       3.68193087      -4.48009559      11.13160122
Si      -1.12945920       0.60904400       8.33993584
Si       3.14822346      -2.04834702       3.39907312
Si       0.24569723       0.67750785       2.72354052
Si       4.48919585      -7.87619096      13.29733697
Si       2.93847194      -6.64580920      11.77175709
Si       0.98098840       2.92953228       2.52241082