14
Lattice="5.819990996537057 2.0691449190516122e-61 -7.488033349882572e-46 1.7924351268861335e-63 6.650187719841335 1.8515571507797955e-15 1.7785541661553274e-45 -3.8487956770309955e-15 13.82361529418109" Properties=species:S:1:pos:R:3 unique_starting_index=9 config_type=initial n_minim_iter=1 energy=-2272.0571045625775 free_energy=-2272.0571045625775 pbc="T T T"
Si       2.01486771       1.68764238       6.29354497
Si       3.80512328       1.68764238       7.53007032
Si       4.92486321       4.96254534       0.61826268
Si       0.89512779       4.96254534      13.20535262
Si       3.80512328       4.96254534       7.53007032
Si       2.01486771       4.96254534       6.29354497
Si       0.89512779       1.68764238      13.20535262
Si       4.92486321       1.68764238       0.61826268
Si      -0.25885998       3.32509386       1.94130408
Si       6.07885098       3.32509386      11.88231122
Si       2.65113551       3.32509386       4.97050357
Si       3.16885548       3.32509386       8.85311172
Si       0.00000000       3.32509386      -0.00000000
Si       2.90999550       3.32509386       6.91180765
14
Lattice="5.83264100393626 1.9689459169628185e-61 -7.638937688055227e-46 -1.6231794147215235e-62 6.658923991007096 1.8400684509420015e-15 1.7439713221619644e-45 -3.871044920891249e-15 13.800712710916464" Properties=species:S:1:pos:R:3 unique_starting_index=9 config_type=initial n_minim_iter=2 stress="-0.0008868946432218488 6.123051294517448e-17 -1.698451940863688e-17 6.123051294517448e-17 0.00104299014347785 -1.5589249942497222e-16 -1.698451940863688e-17 -1.5589249942497222e-16 -0.0004636251299374242" pbc="T T T"
Si       2.01940556       1.68980403       6.28321938
Si       3.81323545       1.68980403       7.51749333
Si       4.93572606       4.96911997       0.61713698
Si       0.89691494       4.96911997      13.18357573
Si       3.81323545       4.96911997       7.51749333
Si       2.01940556       4.96911997       6.28321938
Si       0.89691494       1.68980403      13.18357573
Si       4.93572606       1.68980403       0.61713698
Si      -0.25943915       3.32946200       1.93805200
Si       6.09208015       3.32946200      11.86266071
Si       2.65688135       3.32946200       4.96230436
Si       3.17575965       3.32946200       8.83840835
Si       0.00000000       3.32946200      -0.00000000
Si       2.91632050       3.32946200       6.90035636
14
Lattice="5.869517428868676 1.8883016239839394e-61 -7.704961604961608e-46 -2.86313349440307e-62 6.644741084809842 1.825633667806443e-15 1.7413222821051158e-45 -3.89080043676595e-15 13.793543036546687" Properties=species:S:1:pos:R:3 unique_starting_index=9 config_type=initial n_minim_iter=3 stress="0.00015412993430413495 6.553814895658956e-17 8.296214818803559e-17 6.553814895658956e-17 -0.0008125163938459453 -1.3921864107520987e-16 8.296214818803559e-17 -1.3921864107520987e-16 -0.0006668649537522024" pbc="T T T"
Si       2.03306291       1.68638666       6.28055281
Si       3.83645452       1.68638666       7.51299023
Si       4.96782162       4.95835442       0.61621871
Si       0.90169581       4.95835442      13.17732432
Si       3.83645452       4.95835442       7.51299023
Si       2.03306291       4.95835442       6.28055281
Si       0.90169581       1.68638666      13.17732432
Si       4.96782162       1.68638666       0.61621871
Si      -0.26131131       3.32237054       1.93784093
Si       6.13082874       3.32237054      11.85570211
Si       2.67344740       3.32237054       4.95893059
Si       3.19607002       3.32237054       8.83461245
Si       0.00000000       3.32237054      -0.00000000
Si       2.93475871       3.32237054       6.89677152
14
Lattice="5.8806052506383155 1.8042542971587888e-61 -7.687263143025081e-46 -3.807237202654011e-62 6.649620064347374 1.824395013645643e-15 1.7506357066843884e-45 -3.8999830706174905e-15 13.807231164030897" Properties=species:S:1:pos:R:3 unique_starting_index=9 config_type=initial n_minim_iter=4 stress="0.0005913106170617539 8.317650453814149e-17 4.564968120338029e-17 8.317650453814149e-17 0.0002946880272606005 -1.800430690075959e-16 4.564968120338029e-17 -1.800430690075959e-16 0.0007448345161841276" pbc="T T T"
Si       2.03752576       1.68768280       6.28730959
Si       3.84307949       1.68768280       7.51992158
Si       4.97782838       4.96193727       0.61630599
Si       0.90277687       4.96193727      13.19092517
Si       3.84307949       4.96193727       7.51992158
Si       2.03752576       4.96193727       6.28730959
Si       0.90277687       1.68768280      13.19092517
Si       4.97782838       1.68768280       0.61630599
Si      -0.26196337       3.32481003       1.94053762
Si       6.14256862       3.32481003      11.86669355
Si       2.67833926       3.32481003       4.96307796
Si       3.20226599       3.32481003       8.84415320
Si       0.00000000       3.32481003      -0.00000000
Si       2.94030263       3.32481003       6.90361558
14
Lattice="5.893480921572159 1.7781274138491635e-61 -7.800443863664e-46 -4.5500499842428955e-62 6.652459111793527 1.8188199887938785e-15 1.72339754153115e-45 -3.9042330916706885e-15 13.774417016993345" Properties=species:S:1:pos:R:3 unique_starting_index=9 config_type=initial n_minim_iter=5 stress="0.0002504529461004943 1.6266500038471376e-16 6.866404335504695e-17 1.6266500038471376e-16 0.00012114431334493877 -1.688967438212164e-16 6.866404335504695e-17 -1.688967438212164e-16 0.00032778258597468483" pbc="T T T"
Si       2.04563280       1.68898814       6.27559832
Si       3.84784813       1.68898814       7.49881870
Si       4.99237326       4.96347097       0.61161019
Si       0.90110767       4.96347097      13.16280683
Si       3.84784813       4.96347097       7.49881870
Si       2.04563280       4.96347097       6.27559832
Si       0.90110767       1.68898814      13.16280683
Si       4.99237326       1.68898814       0.61161019
Si      -0.26337280       3.32622956       1.93949859
Si       6.15685373       3.32622956      11.83491843
Si       2.68336766       3.32622956       4.94770992
Si       3.21011327       3.32622956       8.82670710
Si       0.00000000       3.32622956      -0.00000000
Si       2.94674046       3.32622956       6.88720851
14
Lattice="5.90255162704376 1.6082057884067192e-61 -7.975840792851737e-46 -7.627698962305317e-62 6.653894431435442 1.7909599977873353e-15 1.665949393091148e-45 -3.955670417586084e-15 13.74775643213944" Properties=species:S:1:pos:R:3 unique_starting_index=9 config_type=initial n_minim_iter=6 stress="-1.4181333731006634e-06 7.714882923892229e-17 -4.071251113322288e-17 7.714882923892229e-17 -4.583718773454205e-07 -1.1901182125639725e-16 -4.071251113322288e-17 -1.1901182125639725e-16 2.139374608964726e-05" pbc="T T T"
Si       2.05133263       1.68942116       6.26581148
Si       3.85121899       1.68942116       7.48194495
Si       5.00260845       4.96447327       0.60806674
Si       0.89994318       4.96447327      13.13968969
Si       3.85121899       4.96447327       7.48194495
Si       2.05133263       4.96447327       6.26581148
Si       0.89994318       1.68942116      13.13968969
Si       5.00260845       1.68942116       0.60806674
Si      -0.26521594       3.32694722       1.93864829
Si       6.16776757       3.32694722      11.80910814
Si       2.68605987       3.32694722       4.93522993
Si       3.21649176       3.32694722       8.81252651
Si       0.00000000       3.32694722      -0.00000000
Si       2.95127581       3.32694722       6.87387822
14
Lattice="5.911243581367566 1.2626624936190708e-61 -8.368344634873409e-46 -1.2987503179775751e-61 6.652010137075555 1.7331938875718875e-15 1.6604320333800363e-45 -4.064419960176658e-15 13.709121944715518" Properties=species:S:1:pos:R:3 unique_starting_index=9 config_type=initial n_minim_iter=7 stress="-0.00015124951210235252 1.2875933029972824e-16 -1.4210780231043508e-16 1.2875933029972824e-16 -9.853268715839455e-06 -8.471105162511981e-17 -1.4210780231043508e-16 -8.471105162511981e-17 -0.0001814640069410199" pbc="T T T"
Si       2.05605547       1.68732375       6.25046851
Si       3.85518811       1.68732375       7.45865344
Si       5.01167726       4.96468638       0.60409247
Si       0.89956632       4.96468638      13.10502948
Si       3.85518811       4.96468638       7.45865344
Si       2.05605547       4.96468638       6.25046851
Si       0.89956632       1.68732375      13.10502948
Si       5.01167726       1.68732375       0.60409247
Si      -0.27149903       3.32600507       1.93751984
Si       6.18274261       3.32600507      11.77160211
Si       2.68412276       3.32600507       4.91704113
Si       3.22712082       3.32600507       8.79208081
Si       0.00000000       3.32600507      -0.00000000
Si       2.95562179       3.32600507       6.85456097
14
Lattice="5.925256191856413 1.0318755020410722e-61 -8.921678315303721e-46 -1.786057989989635e-61 6.638278582722818 1.6677613501026198e-15 1.5178226833515314e-45 -4.163139612509275e-15 13.598598902890839" Properties=species:S:1:pos:R:3 unique_starting_index=9 config_type=initial n_minim_iter=8 stress="-0.0001712992201512517 1.910865948970749e-17 -7.513841492349028e-17 1.910865948970749e-17 -6.556143170368657e-05 -1.6023581539813666e-17 -7.513841492349028e-17 -1.6023581539813666e-17 -0.00015618321964690101" pbc="T T T"
Si       2.06098392       1.67636722       6.20396679
Si       3.86427227       1.67636722       7.39463211
Si       5.02361202       4.96191137       0.59533266
Si       0.90164418       4.96191137      13.00326624
Si       3.86427227       4.96191137       7.39463211
Si       2.06098392       4.96191137       6.20396679
Si       0.90164418       1.67636722      13.00326624
Si       5.02361202       1.67636722       0.59533266
Si      -0.29862288       3.31913929       1.93429886
Si       6.22387907       3.31913929      11.66430005
Si       2.66400521       3.31913929       4.86500059
Si       3.26125098       3.31913929       8.73359831
Si       0.00000000       3.31913929      -0.00000000
Si       2.96262810       3.31913929       6.79929945
14
Lattice="5.914054135043043 9.391387340018274e-62 -9.43245017019547e-46 -2.049807651860439e-61 6.635968547503638 1.6428606760154763e-15 1.4250897722601567e-45 -4.20972078578278e-15 13.583872243692973" Properties=species:S:1:pos:R:3 unique_starting_index=9 config_type=initial n_minim_iter=9 stress="0.00015682659273016743 7.224951348819422e-17 2.7614714082992287e-16 7.224951348819422e-17 -0.000156596250362485 -5.566223881184271e-17 2.7614714082992287e-16 -5.566223881184271e-17 0.0001555790973367" pbc="T T T"
Si       2.05099132       1.67505859       6.19503859
Si       3.86306281       1.67505859       7.38883365
Si       5.00801839       4.96090996       0.59689753
Si       0.90603575       4.96090996      12.98697471
Si       3.86306281       4.96090996       7.38883365
Si       2.05099132       4.96090996       6.19503859
Si       0.90603575       1.67505859      12.98697471
Si       5.00801839       1.67505859       0.59689753
Si      -0.31370057       3.31798427       1.93311643
Si       6.22775470       3.31798427      11.65075581
Si       2.64332650       3.31798427       4.85881969
Si       3.27072764       3.31798427       8.72505256
Si       0.00000000       3.31798427      -0.00000000
Si       2.95702707       3.31798427       6.79193612
14
Lattice="5.964245629674423 1.1944628272725113e-62 -8.807415434672569e-46 -2.4287703843041133e-61 6.654463395973381 1.6030427762792622e-15 6.3595532667471225e-46 -4.239304203708395e-15 13.30235124281486" Properties=species:S:1:pos:R:3 unique_starting_index=9 config_type=initial n_minim_iter=10 stress="0.00042485019018988066 6.702556564137646e-17 3.103842066158048e-16 6.702556564137646e-17 0.0007165445552551251 -1.1872526406806484e-16 3.103842066158048e-16 -1.1872526406806484e-16 0.00147286048165659" pbc="T T T"
Si       2.06246082       1.68077881       6.07884052
Si       3.90178481       1.68077881       7.22351073
Si       5.04458363       4.97368459       0.57233511
Si       0.91966200       4.97368459      12.73001614
Si       3.90178481       4.97368459       7.22351073
Si       2.06246082       4.97368459       6.07884052
Si       0.91966200       1.68077881      12.73001614
Si       5.04458363       1.68077881       0.57233511
Si      -0.40567685       3.32723170       1.92200931
Si       6.36992248       3.32723170      11.38034193
Si       2.57644596       3.32723170       4.72916631
Si       3.38779966       3.32723170       8.57318494
Si       0.00000000       3.32723170      -0.00000000
Si       2.98212281       3.32723170       6.65117562
14
Lattice="5.967691283862918 2.3318552901666104e-62 -9.528970349145861e-46 -2.5240764540949624e-61 6.667186734342049 1.494881978323237e-15 4.602391654764549e-46 -4.4651187976381075e-15 13.269710625695096" Properties=species:S:1:pos:R:3 unique_starting_index=9 config_type=initial n_minim_iter=11 stress="4.373463274726033e-05 3.253279876632762e-17 1.942995439860793e-16 3.253279876632762e-17 0.0003829118436269537 -1.775367112113825e-17 1.942995439860793e-16 -1.775367112113825e-17 0.0005012083205134249" pbc="T T T"
Si       2.06229184       1.68958871       6.06698858
Si       3.90539944       1.68958871       7.20272204
Si       5.04613748       4.97759802       0.56786673
Si       0.92155380       4.97759802      12.70184390
Si       3.90539944       4.97759802       7.20272204
Si       2.06229184       4.97759802       6.06698858
Si       0.92155380       1.68958871      12.70184390
Si       5.04613748       1.68958871       0.56786673
Si      -0.41518291       3.33359337       1.91785752
Si       6.38287419       3.33359337      11.35185311
Si       2.56866273       3.33359337       4.71699779
Si       3.39902855       3.33359337       8.55271283
Si       0.00000000       3.33359337      -0.00000000
Si       2.98384564       3.33359337       6.63485531
14
Lattice="5.978249233118733 3.077614707699631e-63 -9.960117942425714e-46 -3.2461916003520254e-61 6.670937133637657 1.228880287487519e-15 3.638418699012103e-46 -5.006145975448392e-15 13.20782369076065" Properties=species:S:1:pos:R:3 unique_starting_index=9 config_type=initial n_minim_iter=12 stress="-0.0005876693817882635 7.019932481266644e-17 1.5513004428039486e-16 7.019932481266644e-17 -0.00016398328729463739 -2.0244559843800339e-16 1.5513004428039486e-16 -2.0244559843800339e-16 -0.00019045586028625702" pbc="T T T"
Si       2.06343068       1.69260638       6.04373156
Si       3.91481855       1.69260638       7.16409213
Si       5.05255530       4.97833076       0.56018028
Si       0.92569393       4.97833076      12.64764341
Si       3.91481855       4.97833076       7.16409213
Si       2.06343068       4.97833076       6.04373156
Si       0.92569393       1.69260638      12.64764341
Si       5.05255530       1.69260638       0.56018028
Si      -0.43473679       3.33546857       1.91263742
Si       6.41298602       3.33546857      11.29518627
Si       2.55438783       3.33546857       4.69127442
Si       3.42386140       3.33546857       8.51654927
Si       0.00000000       3.33546857      -0.00000000
Si       2.98912462       3.33546857       6.60391185
14
Lattice="6.0198284028604405 2.5654815510053734e-63 -1.0109814065219747e-45 -3.411850328982268e-61 6.671232760841968 1.1439864941550518e-15 2.6174185645884636e-46 -5.173063928111522e-15 13.152324272478253" Properties=species:S:1:pos:R:3 unique_starting_index=9 config_type=initial n_minim_iter=13 stress="2.1873257888664808e-05 5.739831525203915e-17 2.270080573075076e-16 5.739831525203915e-17 -0.0011025596682273217 -1.9290679071714975e-16 2.270080573075076e-16 -1.9290679071714975e-16 -0.001765128103164029" pbc="T T T"
Si       2.07521130       1.69649825       6.02938231
Si       3.94461710       1.69649825       7.12294196
Si       5.08512550       4.97473451       0.54677983
Si       0.93470290       4.97473451      12.60554445
Si       3.94461710       4.97473451       7.12294196
Si       2.07521130       4.97473451       6.02938231
Si       0.93470290       1.69649825      12.60554445
Si       5.08512550       1.69649825       0.54677983
Si      -0.45271175       3.33561638       1.90483534
Si       6.47254015       3.33561638      11.24748893
Si       2.55720245       3.33561638       4.67132679
Si       3.46262595       3.33561638       8.48099748
Si       0.00000000       3.33561638      -0.00000000
Si       3.00991420       3.33561638       6.57616214
14
Lattice="6.111905171221822 2.3758784873473815e-63 -1.1562942461472801e-45 -2.705334892742144e-61 6.6711660902033945 1.3013366672485912e-15 -6.701447320510043e-49 -4.809511834142868e-15 12.924896797843056" Properties=species:S:1:pos:R:3 unique_starting_index=9 config_type=initial n_minim_iter=14 stress="-0.00044224186412388574 6.802025780871109e-17 3.2527604524440484e-16 6.802025780871109e-17 -0.001119105252087225 -1.310654090833247e-16 3.2527604524440484e-16 -1.310654090833247e-16 -0.0007936209277972836" pbc="T T T"
Si       2.09320236       1.69838078       5.95834303
Si       4.01870281       1.69838078       6.96655377
Si       5.14915494       4.97278531       0.50410537
Si       0.96275023       4.97278531      12.42079143
Si       4.01870281       4.97278531       6.96655377
Si       2.09320236       4.97278531       5.95834303
Si       0.96275023       1.69838078      12.42079143
Si       5.14915494       1.69838078       0.50410537
Si      -0.54251664       3.33558305       1.88413570
Si       6.65442181       3.33558305      11.04076110
Si       2.51343594       3.33558305       4.57831270
Si       3.59846923       3.33558305       8.34658410
Si       0.00000000       3.33558305      -0.00000000
Si       3.05595259       3.33558305       6.46244840
14
Lattice="6.1478583400402576 -7.515171506952965e-62 -1.1111555980760617e-45 -2.7798107781281642e-61 6.659458885871568 1.645208487278694e-15 1.0006442134190701e-46 -4.0798905603386596e-15 12.894436609653551" Properties=species:S:1:pos:R:3 unique_starting_index=9 config_type=initial n_minim_iter=15 stress="-0.0003946984085344945 1.0806362678913997e-16 2.1703249433760251e-16 1.0806362678913997e-16 -0.00041739137719799433 -8.172893772952045e-18 2.1703249433760251e-16 -8.172893772952045e-18 -0.0015761350460179822" pbc="T T T"
Si       2.09900324       1.69246104       5.96525403
Si       4.04885510       1.69246104       6.92918258
Si       5.17293241       4.96699785       0.48196427
Si       0.97492593       4.96699785      12.41247234
Si       4.04885510       4.96699785       6.92918258
Si       2.09900324       4.96699785       5.96525403
Si       0.97492593       1.69246104      12.41247234
Si       5.17293241       1.69246104       0.48196427
Si      -0.55977366       3.32972944       1.87573113
Si       6.70763200       3.32972944      11.01870548
Si       2.51415551       3.32972944       4.57148718
Si       3.63370283       3.32972944       8.32294943
Si       0.00000000       3.32972944      -0.00000000
Si       3.07392917       3.32972944       6.44721830
14
Lattice="6.180445689896066 -7.269524439659388e-62 -1.1432312822576366e-45 -2.5961760181204253e-61 6.65225192940353 1.737074694391273e-15 8.032829463293584e-47 -3.8788635569677546e-15 12.87221249874662" Properties=species:S:1:pos:R:3 unique_starting_index=9 config_type=initial n_minim_iter=16 stress="0.0006095917327533489 1.1494958655286613e-16 2.1229954289247566e-16 1.1494958655286613e-16 0.00011757945141331945 -9.00399261318427e-17 2.1229954289247566e-16 -9.00399261318427e-17 3.186739741313027e-05" pbc="T T T"
Si       2.10650437       1.68884268       5.96688430
Si       4.07394132       1.68884268       6.90532819
Si       5.19672722       4.96340925       0.46922195
Si       0.98371847       4.96340925      12.40299055
Si       4.07394132       4.96340925       6.90532819
Si       2.10650437       4.96340925       5.96688430
Si       0.98371847       1.68884268      12.40299055
Si       5.19672722       1.68884268       0.46922195
Si      -0.57675486       3.32612596       1.87324875
Si       6.75720055       3.32612596      10.99896375
Si       2.51346798       3.32612596       4.56285750
Si       3.66697771       3.32612596       8.30935500
Si       0.00000000       3.32612596      -0.00000000
Si       3.09022284       3.32612596       6.43610625
14
Lattice="6.154913193541087 -7.617606931655583e-62 -1.1638434586900739e-45 -2.5484855356654407e-61 6.650519025334612 1.802169654965992e-15 4.316383291731236e-47 -3.757134883804259e-15 12.93102519562286" Properties=species:S:1:pos:R:3 unique_starting_index=9 config_type=initial n_minim_iter=17 stress="-0.00029433471986453413 7.081182981630898e-17 2.2065589746702815e-16 7.081182981630898e-17 -0.00011218485898289216 -6.400410681695233e-17 2.2065589746702815e-16 -6.400410681695233e-17 -0.0005172086001413493" pbc="T T T"
Si       2.09866752       1.68760732       5.98983616
Si       4.05624568       1.68760732       6.94118904
Si       5.17612411       4.96291170       0.47567644
Si       0.97878908       4.96291170      12.45534876
Si       4.05624568       4.96291170       6.94118904
Si       2.09866752       4.96291170       5.98983616
Si       0.97878908       1.68760732      12.45534876
Si       5.17612411       1.68760732       0.47567644
Si      -0.55748528       3.32525951       1.87770695
Si       6.71239847       3.32525951      11.05331825
Si       2.51997132       3.32525951       4.58780565
Si       3.63494187       3.32525951       8.34321954
Si       0.00000000       3.32525951      -0.00000000
Si       3.07745660       3.32525951       6.46551260
14
Lattice="6.150611952828759 -6.679847409136599e-62 -1.1650099137536637e-45 -2.321495361086109e-61 6.652108675602781 1.7704236998662161e-15 -7.694571417509217e-47 -3.828068572676332e-15 12.945562358855454" Properties=species:S:1:pos:R:3 unique_starting_index=9 config_type=initial n_minim_iter=18 stress="-0.00012768705696892738 8.714351020997887e-17 1.8864884675394126e-16 8.714351020997887e-17 -7.216497541988311e-05 -3.57067556433839e-17 1.8864884675394126e-16 -3.57067556433839e-17 -0.0002976375277819143" pbc="T T T"
Si       2.09731462       1.68853796       5.99388606
Si       4.05329733       1.68853796       6.95167630
Si       5.17262060       4.96357071       0.47889512
Si       0.97799135       4.96357071      12.46666724
Si       4.05329733       4.96357071       6.95167630
Si       2.09731462       4.96357071       5.99388606
Si       0.97799135       1.68853796      12.46666724
Si       5.17262060       1.68853796       0.47889512
Si      -0.55384414       3.32605434       1.87949063
Si       6.70445609       3.32605434      11.06607173
Si       2.52146184       3.32605434       4.59329055
Si       3.62915011       3.32605434       8.35227181
Si       0.00000000       3.32605434      -0.00000000
Si       3.07530598       3.32605434       6.47278118
14
Lattice="6.144074361375518 -7.116571929223055e-62 -1.1506527522772501e-45 -2.2249569021754712e-61 6.652862527998147 1.818054813407986e-15 -9.720763514102788e-47 -3.736663116834048e-15 12.972037240204793" Properties=species:S:1:pos:R:3 unique_starting_index=9 config_type=initial n_minim_iter=19 stress="2.4546052849700858e-05 4.689718577461875e-17 3.760480687260915e-16 4.689718577461875e-17 3.262193029772674e-06 -3.819095678765282e-17 3.760480687260915e-16 -3.819095678765282e-17 1.7390069796673135e-05" pbc="T T T"
Si       2.09492690       1.68902108       6.00340164
Si       4.04914746       1.68902108       6.96863560
Si       5.16696408       4.96384145       0.48261698
Si       0.97711028       4.96384145      12.48942026
Si       4.04914746       4.96384145       6.96863560
Si       2.09492690       4.96384145       6.00340164
Si       0.97711028       1.68902108      12.48942026
Si       5.16696408       1.68902108       0.48261698
Si      -0.54741001       3.32643126       1.88220196
Si       6.69148437       3.32643126      11.08983528
Si       2.52462717       3.32643126       4.60381666
Si       3.61944719       3.32643126       8.36822058
Si       0.00000000       3.32643126      -0.00000000
Si       3.07203718       3.32643126       6.48601862
