2
Lattice="2.9951204680925523 -9.525255418196654e-16 5.103583510578809e-41 -1.497560234046275 2.59385041276289 2.587396930460628e-25 -2.6571896617505085e-40 -4.732288100879029e-25 4.7440913681507375" Properties=species:S:1:pos:R:3 n_minim_iter=1 energy=-3187.0960162056354 free_energy=-3187.0960162056354 pbc="T T T"
Ti       0.00000000       0.00000000       0.00000000
Ti       0.00000000       1.72923361       2.37204568
