2
Lattice="2.5945698266859103 -8.639995487761292e-16 2.2670548297453618e-41 -1.2972849133429545 2.2469633818025865 2.241372952089698e-25 -1.760718434042194e-40 -4.249843156154617e-25 4.260443109827271" Properties=species:S:1:pos:R:3 n_minim_iter=3 stress="-0.57725844571663 8.268132510836045e-16 -6.052891024618388e-18 8.268132510836045e-16 -0.577258445716629 -6.984159150711451e-18 -6.052891024618388e-18 -6.984159150711451e-18 -0.5742699926287249" pbc="T T T"
Ti      -0.00000000       0.00000000       0.00000000
Ti       0.00000000       1.49797559       2.13022155
