2
Lattice="2.8824136341141187 -9.1668186232638e-16 4.911534894989e-41 -1.4412068170570584 2.496243431357451 2.490032794565471e-25 -1.8954294993195706e-40 -4.554211387435998e-25 4.5655704959838825" Properties=species:S:1:pos:R:3 n_minim_iter=1 stress="0.012540364094706009 7.023414828557193e-16 -1.4192232654281756e-18 7.023414828557193e-16 0.012540364094704921 1.288568874209233e-18 -1.4192232654281756e-18 1.288568874209233e-18 0.01888792190736265" pbc="T T T"
Ti       0.00000000       0.00000000       0.00000000
Ti       0.00000000       1.66416229       2.28278525
