12
Lattice="5.77113253201203 -5.447639791075475e-06 -8.134250833742833e-05 -5.4469890526741e-06 5.77122285966382 2.0183092271055573e-05 -9.798021089948492e-05 2.4201249707995554e-05 6.970195194501625" Properties=species:S:1:pos:R:3:forces:R:3 cutoff=-1.0 nneightol=1.2 n_minim_iter=1 energy=-1955.885913386661 stress="0.026498117552412208 1.912622763864003e-07 -4.3104295896878135e-06 1.912622763864003e-07 0.026525617423503428 8.315757173250834e-07 -4.3104295896878135e-06 8.315757173250834e-07 0.02705520921384375" free_energy=-1955.885913386661 pbc="T T T"
Si       0.46456792       0.46460321      -0.00000829       0.01024409       0.00800190      -0.00007607
Si      -0.46465408      -0.46459490       3.48509661      -0.00814297      -0.00809763       0.00027395
Si       2.42089864       3.35023339       5.22762115      -0.00847651       0.00812883       0.00019111
Si       3.35013731       2.42100670       1.74251340       0.00819182      -0.00813035      -0.00035181
Si       0.72614444       3.84635867      -0.09940985       0.03434040       0.00018131      -0.06244581
Si       0.96072118       2.15945720       1.64312262      -0.00032394      -0.03367205      -0.06258807
Si       1.92476395       5.04506870       3.58451341       0.00003974      -0.03368190       0.06224980
Si       2.15932866       0.96076632       5.32702383      -0.03318035       0.00016410       0.06319755
Si       3.61169706       4.81047511       1.84193150       0.03324941      -0.00031393       0.06245267
Si       3.84634462       0.72616259       0.09937565      -0.00235806       0.03406323       0.06218299
Si       4.81032047       3.61179158       5.12817508      -0.00019186       0.03360607      -0.06271687
Si       5.04492434       1.92486738       3.38561747      -0.03339176      -0.00024957      -0.06236945
12
Lattice="5.774863387109907 -9.113470432923535e-06 1.2329447753999831e-06 -9.113309559888491e-06 5.774427107844167 4.247475006691154e-06 1.570540089107067e-06 4.997864677629394e-06 6.961826807933292" Properties=species:S:1:pos:R:3:forces:R:3 cutoff=-1.0 nneightol=1.2 n_minim_iter=2 energy=-1955.886369174886 stress="0.02694241416521191 -1.7291278536916726e-07 -2.2727168941777758e-08 -1.7291278536916726e-07 0.026849441986437343 9.145178920473553e-08 -2.2727168941777758e-08 9.145178920473553e-08 0.025877907839658078" free_energy=-1955.886369174886 pbc="T T T"
Si       0.46501440       0.46497525      -0.00000400      -0.00421669      -0.00358482      -0.00018612
Si      -0.46502076      -0.46497790       3.48091097       0.00427517       0.00361960      -0.00020691
Si       2.42241509       3.35219372       5.22137298       0.00416448      -0.00361329       0.00025282
Si       3.35244354       2.42222773       1.74045753      -0.00417933       0.00363382       0.00026997
Si       0.72710088       3.84849662      -0.10018173       0.02589443       0.00712522      -0.05188139
Si       0.96135972       2.16016972       1.64026463       0.00761520      -0.02587324      -0.05102464
Si       1.92605686       5.04737724       3.58111168      -0.00757237      -0.02583905       0.05100597
Si       2.16032582       0.96128603       5.32155817      -0.02586720       0.00713495       0.05184408
Si       3.61453049       4.81313408       1.84064955       0.02585324      -0.00710515       0.05181492
Si       3.84879843       0.72704994       0.10019656       0.00756256       0.02579891       0.05099618
Si       4.81349843       3.61426005       5.12118212      -0.00762876       0.02580577      -0.05103418
Si       5.04775554       1.92591999       3.38072957      -0.02590073      -0.00710273      -0.05185070
12
Lattice="5.769904951645648 -1.709511174542493e-05 0.00042571672455264957 -1.7091891943675517e-05 5.772573760762862 -8.310081467341265e-05 0.000514448813075475 -0.00010053294288618118 6.970046665283668" Properties=species:S:1:pos:R:3:forces:R:3 cutoff=-1.0 nneightol=1.2 n_minim_iter=3 energy=-1955.888245671408 stress="0.025757308212247552 -1.7746314353935668e-06 2.2704498542389254e-05 -1.7746314353935668e-06 0.026288612627564652 -4.110169238199533e-06 2.2704498542389254e-05 -4.110169238199533e-06 0.02521984952177501" free_energy=-1955.888245671408 pbc="T T T"
Si       0.46516842       0.46524470       0.00000894      -0.04344431      -0.03665339       0.00253300
Si      -0.46476168      -0.46530551       3.48500417       0.03300140       0.03734152       0.00054071
Si       2.42028829       3.35146262       5.22769096       0.03417980      -0.03746779      -0.00277357
Si       3.35009524       2.42099282       1.74270910      -0.03276101       0.03761311       0.00022938
Si       0.73018639       3.84760764      -0.10729516      -0.01802364       0.00068416      -0.00148460
Si       0.96098278       2.15577559       1.63527813      -0.00130774       0.01359886      -0.00562177
Si       1.92431047       5.04202630       3.59234077       0.00299408       0.01384201       0.00726865
Si       2.15522538       0.96123851       5.33502933       0.01217961       0.00082174      -0.00252273
Si       3.61519787       4.81120185       1.85000415      -0.01254306       0.00016360       0.00116793
Si       3.84568058       0.73050956       0.10751698       0.00881162      -0.01611496       0.00748867
Si       4.80936736       3.61668264       5.12055662       0.00386823      -0.01366030      -0.00502514
Si       5.04001321       1.92489422       3.37807910       0.01304503      -0.00016856      -0.00180053
12
Lattice="5.771959986810396 1.6539314612302892e-06 0.00018799014683727088 1.6511370399153732e-06 5.7681834894550965 -3.9999208066410856e-05 0.00022733501918042854 -4.850583852255729e-05 6.972868177237253" Properties=species:S:1:pos:R:3:forces:R:3 cutoff=-1.0 nneightol=1.2 n_minim_iter=4 energy=-1955.88837853354 stress="0.026256754294259377 3.478051823394985e-06 3.583921006157308e-06 3.478051823394985e-06 0.025449695286689573 -2.7430722048185917e-06 3.583921006157308e-06 -2.7430722048185917e-06 0.025567936604127595" free_energy=-1955.88837853354 pbc="T T T"
Si       0.46501258       0.46461769       0.00001484      -0.03297633      -0.02817933      -0.00272933
Si      -0.46483067      -0.46464707       3.48643665       0.03308813       0.02775957      -0.00254033
Si       2.42119650       3.34867945       5.22970904       0.03366403      -0.02770047       0.00151467
Si       3.35098476       2.41945768       1.74329459      -0.03309581       0.02777787       0.00275864
Si       0.73037223       3.84467333      -0.10745416      -0.01399314      -0.00661358      -0.00855079
Si       0.96123524       2.15420727       1.63576486      -0.00207647       0.01265789      -0.00189664
Si       1.92490677       5.03828253       3.59391786       0.00252203       0.01284024       0.00258093
Si       2.15582180       0.96054566       5.33719024       0.00974057      -0.00773487       0.00778901
Si       3.61637647       4.80758457       1.85075162      -0.01142456       0.00792685       0.00835210
Si       3.84709764       0.72989155       0.10757361       0.00009353      -0.01371701       0.00294129
Si       4.81093031       3.61392927       5.12231111       0.00292750      -0.01280946      -0.00161718
Si       5.04172756       1.92348551       3.37913649       0.01153052       0.00779230      -0.00860237
12
Lattice="5.767483259857604 -3.598456999322875e-05 -0.00025932441396074975 -3.5983283780190696e-05 5.76849660631031 8.155395991535216e-05 -0.0003127707264545277 9.828385548006929e-05 6.977901748761676" Properties=species:S:1:pos:R:3:forces:R:3 cutoff=-1.0 nneightol=1.2 n_minim_iter=5 energy=-1955.888541484911 stress="0.02543729287662317 -4.6300136272046015e-07 -1.3664538332152772e-05 -4.6300136272046015e-07 0.025677869671792287 3.2276623508559717e-06 -1.3664538332152772e-05 3.2276623508559717e-06 0.026255257908375934" free_energy=-1955.888541484911 pbc="T T T"
Si       0.46367900       0.46381321      -0.00001548      -0.01043623      -0.01799899       0.00006717
Si      -0.46389515      -0.46376670       3.48895358       0.01636210       0.01747891       0.00115970
Si       2.41975685       3.34812563       5.23335075       0.01547225      -0.01743355       0.00031282
Si       3.34739572       2.42043667       1.74438299      -0.01647042       0.01723320      -0.00182199
Si       0.72934223       3.84473942      -0.10760696      -0.00366139      -0.01315180      -0.00965184
Si       0.96024520       2.15472403       1.63684959      -0.01481430       0.00660499      -0.01204655
Si       1.92323365       5.03899636       3.59656651       0.01388664       0.00614563       0.01096328
Si       2.15404369       0.96054620       5.34093526       0.00779634      -0.01276427       0.01212190
Si       3.61305499       4.80802581       1.85200165      -0.00722946       0.01209331       0.01011023
Si       3.84415349       0.72949036       0.10747355      -0.02111572      -0.00432557       0.01077344
Si       4.80692646       3.61382740       5.12565647       0.01318244      -0.00621725      -0.01245922
Si       5.03789280       1.92378700       3.38112111       0.00702774       0.01233540      -0.00952893
12
Lattice="5.770358171255376 -0.000105110934179076 -0.00016133918328720248 -0.00010511214074870289 5.769106762486573 0.00010879548357950901 -0.00019453566415251892 0.00013120339105265357 6.9736875748904215" Properties=species:S:1:pos:R:3:forces:R:3 cutoff=-1.0 nneightol=1.2 n_minim_iter=6 energy=-1955.889062716105 stress="0.025644993941440368 -3.4584267720325874e-06 -7.794421292278929e-06 -3.4584267720325874e-06 0.02538649561904981 3.3601345617024056e-06 -7.794421292278929e-06 3.3601345617024056e-06 0.025618993498637797" free_energy=-1955.889062716105 pbc="T T T"
Si       0.46024060       0.46007053      -0.00002792       0.00890035       0.00803236      -0.00058892
Si      -0.46031064      -0.46003896       3.48683384      -0.00603992      -0.00834146      -0.00025289
Si       2.42475873       3.34472239       5.23023887      -0.00715749       0.00827701       0.00162179
Si       3.34531725       2.42440848       1.74339016       0.00631455      -0.00843564      -0.00016307
Si       0.72927470       3.84404025      -0.11083939       0.00241041      -0.02291037      -0.00266353
Si       0.95962645       2.15533460       1.63252832      -0.02083191       0.00086982      -0.00087085
Si       1.92530252       5.03989390       3.59781560       0.02024316       0.00020583      -0.00013435
Si       2.15550036       0.95953516       5.34108954       0.00173832      -0.02171771       0.00423154
Si       3.61448156       4.80960602       1.85430686      -0.00053701       0.02124724       0.00311016
Si       3.84493734       0.72916721       0.11085067      -0.02498090       0.00149799      -0.00051068
Si       4.81046944       3.61380632       5.11930201       0.01953478      -0.00028881      -0.00116764
Si       5.04079159       1.92505277       3.37584281       0.00040566       0.02156373      -0.00261155
12
Lattice="5.769355322687359 0.00013109142767601148 0.00023365818689503274 0.0001310955062849643 5.771310157602922 -9.125018680768902e-05 0.00028252727130639155 -0.00011039104130480373 6.972236864435398" Properties=species:S:1:pos:R:3:forces:R:3 cutoff=-1.0 nneightol=1.2 n_minim_iter=7 energy=-1955.889188458566 stress="0.025423514652143035 2.628928534099438e-06 1.3659404784393537e-05 2.628928534099438e-06 0.02582130580600066 -2.503631935317582e-06 1.3659404784393537e-05 -2.503631935317582e-06 0.025217725717595688" free_energy=-1955.889188458566 pbc="T T T"
Si       0.45998862       0.46000146      -0.00001020      -0.00406534      -0.00032112       0.00218200
Si      -0.45972099      -0.46010363       3.48610415      -0.00207999       0.00145753       0.00072060
Si       2.42507239       3.34566380       5.22924722      -0.00087468      -0.00155994      -0.00197844
Si       3.34467802       2.42565714       1.74314243       0.00162235       0.00202415       0.00008330
Si       0.72940860       3.84442776      -0.11161527      -0.00278602      -0.00605601       0.00363134
Si       0.95859094       2.15616682       1.63146695      -0.00892464      -0.00152953       0.00123655
Si       1.92646811       5.04176707       3.59769490       0.00932860      -0.00033405      -0.00025600
Si       2.15559798       0.95874912       5.34086934      -0.00036030      -0.00648617      -0.00618340
Si       3.61416618       4.81256308       1.85473920       0.00037855       0.00740536      -0.00449214
Si       3.84307391       0.72968041       0.11171920      -0.00246115      -0.00196443      -0.00021489
Si       4.81114726       3.61520896       5.11771576       0.01017374       0.00049871       0.00156963
Si       5.04023245       1.92692749       3.37470424       0.00004887       0.00686550       0.00370145
12
Lattice="5.76856649087334 9.934818269312426e-05 -6.440845794215076e-05 9.934812537808072e-05 5.7678536199754475 -9.68137364890064e-05 -7.738280286450281e-05 -0.00011714266326186115 6.977369149430122" Properties=species:S:1:pos:R:3:forces:R:3 cutoff=-1.0 nneightol=1.2 n_minim_iter=8 energy=-1955.889237180904 stress="0.02547675043548772 4.7074631453814936e-08 6.206488884630402e-07 4.7074631453814936e-08 0.02533066562507627 -4.3266237542517685e-06 6.206488884630402e-07 -4.3266237542517685e-06 0.025655852947524448" free_energy=-1955.889237180904 pbc="T T T"
Si       0.45949095       0.45939275       0.00000699      -0.00159953      -0.00184832      -0.00031547
Si      -0.45950589      -0.45947321       3.48869982       0.00101476       0.00002194      -0.00010369
Si       2.42479256       3.34328080       5.23295689       0.00149688       0.00011018       0.00000867
Si       3.34377827       2.42455718       1.74426009      -0.00155559       0.00027814       0.00046581
Si       0.72909210       3.84091452      -0.11203052       0.00392364       0.00170955      -0.00027708
Si       0.95713909       2.15501351       1.63232808       0.00019544      -0.00467002       0.00193912
Si       1.92721163       5.03890122       3.60053260      -0.00037912      -0.00421435      -0.00111317
Si       2.15521666       0.95696366       5.34494078      -0.00306984      -0.00035657      -0.00002304
Si       3.61338002       4.81087105       1.85618752       0.00368380       0.00098030      -0.00030106
Si       3.84141007       0.72902413       0.11188800       0.00017324       0.00304532      -0.00119065
Si       4.81143474       3.61284812       5.12094610      -0.00021667       0.00437286       0.00114533
Si       5.03954076       1.92694395       3.37663870      -0.00366700       0.00057098      -0.00023475
