12
Lattice="5.548382712497827 4.840669997561008e-05 3.712236933217464e-05 4.839947872575437e-05 5.547990586668975 2.933646442723743e-07 4.481326571785668e-05 2.6139832825859897e-07 6.643916131685703" Properties=species:S:1:pos:R:3:forces:R:3 cutoff=-1.0 nneightol=1.2 n_minim_iter=1 energy=-1955.713234709884 stress="-0.04028901203226181 2.4910628512071082e-06 4.0401782861235685e-07 2.4910628512071082e-06 -0.040402738503936025 -4.251660802585194e-07 4.0401782861235685e-07 -4.251660802585194e-07 -0.038907855094119176" free_energy=-1955.713234709884 pbc="T T T"
Si       0.46326954       0.46326107       0.00000887       0.00693889       0.00741456      -0.00069290
Si      -0.46326325      -0.46326265       3.32195874      -0.00655545      -0.00727785      -0.00050950
Si       2.31097391       3.23727268       4.98295925      -0.00620054       0.00732596       0.00006909
Si       3.23749601       2.31076604       1.66099383       0.00652266      -0.00730226       0.00053450
Si       0.69438556       3.70799331      -0.05021688      -0.01986575       0.00344028       0.08603322
Si       0.93408092       2.07971666       1.61076996       0.00425250       0.01932261       0.08698155
Si       1.84019801       4.85371927       3.37218434      -0.00424917       0.01940842      -0.08684569
Si       2.07993164       0.93401241       5.03318195       0.01820782       0.00313490      -0.08626062
Si       3.46857152       4.61402711       1.71122634      -0.01908436      -0.00324794      -0.08612230
Si       3.70822793       0.69432317       0.05023204       0.00500076      -0.01956077      -0.08656526
Si       4.61438682       3.46832515       4.93274443      -0.00394029      -0.01942155       0.08730990
Si       4.85409860       1.84004192       3.27176682       0.01897292      -0.00323636       0.08606800
12
Lattice="5.555235473220367 8.044833624374589e-06 3.0474392094769982e-05 8.024308336667593e-06 5.55668887174107 7.179903857735152e-06 3.70322469595584e-05 8.509408279039189e-06 6.625333037954716" Properties=species:S:1:pos:R:3:forces:R:3 cutoff=-1.0 nneightol=1.2 n_minim_iter=2 energy=-1955.714116945569 stress="-0.03920582217852392 -1.8546147550524483e-07 2.0226229088031156e-06 -1.8546147550524483e-07 -0.03874861810137919 -2.518006608613576e-07 2.0226229088031156e-06 -2.518006608613576e-07 -0.04054162028209624" free_energy=-1955.714116945569 pbc="T T T"
Si       0.46393759       0.46409009      -0.00000100      -0.00843435      -0.01190190       0.00113715
Si      -0.46392973      -0.46408560       3.31265990       0.00771715       0.01187403       0.00108194
Si       2.31371002       3.24244233       4.96902414       0.00780177      -0.01185121      -0.00133972
Si       3.24156911       2.31426290       1.65635468      -0.00761137       0.01182651      -0.00105265
Si       0.69493208       3.71385090      -0.04884703      -0.02114981       0.03020869       0.09288957
Si       0.93527836       2.08324896       1.60750522       0.02710403       0.02067613       0.08849626
Si       1.84237069       4.86159753       3.36151898      -0.02696488       0.02056982      -0.08838314
Si       2.08274824       0.93551272       5.01787395       0.02040014       0.03023972      -0.09325408
Si       3.47254691       4.62119148       1.70521479      -0.02068242      -0.03023771      -0.09286265
Si       3.71287435       0.69510490       0.04885484       0.02805239      -0.02061748      -0.08825729
Si       4.61999856       3.47345749       4.92019016      -0.02682464      -0.02058112       0.08866142
Si       4.86034797       1.84284917       3.26383832       0.02059199      -0.03020548       0.09288318
12
Lattice="5.567958168019304 -0.00015012229433753317 -0.00010554305461569135 -0.0001499838684852307 5.552438821094896 4.9269866117126904e-05 -0.00012567222600336992 5.891411151646747e-05 6.615253963511742" Properties=species:S:1:pos:R:3:forces:R:3 cutoff=-1.0 nneightol=1.2 n_minim_iter=3 energy=-1955.717761400497 stress="-0.03540857165221914 -6.625649925045008e-06 -3.164799537627331e-06 -6.625649925045008e-06 -0.040265773792771964 4.5006846394341195e-06 -3.164799537627331e-06 4.5006846394341195e-06 -0.038674895281697375" free_energy=-1955.717761400497 pbc="T T T"
Si       0.46499836       0.46359667       0.00000375       0.02154476       0.06579058      -0.01142510
Si      -0.46508321      -0.46356018       3.30764904      -0.02158685      -0.06483390      -0.01190672
Si       2.31879702       3.23980616       4.96137375      -0.02288750       0.06461536       0.01325807
Si       3.24891234       2.31254149       1.65375510       0.02205066      -0.06487842       0.01176341
Si       0.69422845       3.71263021      -0.03930590       0.02359361      -0.00332917       0.00557414
Si       0.93886559       2.08377126       1.61435745       0.03273662      -0.01832365       0.04913916
Si       1.84483195       4.85998233       3.34710543      -0.03260291      -0.01868083      -0.05025865
Si       2.08942447       0.93639909       5.00071016      -0.01920139      -0.00121365      -0.00441305
Si       3.47820515       4.61594125       1.69311110       0.02112429       0.00123680      -0.00498352
Si       3.72299104       0.69232634       0.03942584       0.03006919       0.01958972      -0.05098400
Si       4.62884711       3.46857544       4.92195038      -0.03362939       0.01848925       0.04875141
Si       4.87345714       1.83969854       3.26822536      -0.02121110       0.00153790       0.00548484
12
Lattice="5.559729887138839 -0.00016912764150017666 -0.000132901029333782 -0.00016913373995858258 5.560936474672087 4.207140415663444e-05 -0.00015849621287987683 5.029424685347922e-05 6.614920685612778" Properties=species:S:1:pos:R:3:forces:R:3 cutoff=-1.0 nneightol=1.2 n_minim_iter=4 energy=-1955.718860856492 stress="-0.03784216266788182 -4.417795847679094e-06 -1.0924992075763761e-05 -4.417795847679094e-06 -0.03744959543151826 2.002009016764706e-06 -1.0924992075763761e-05 2.002009016764706e-06 -0.03781804125253018" free_energy=-1955.718860856492 pbc="T T T"
Si       0.46440027       0.46452926      -0.00004032       0.06560080       0.05849528       0.00114363
Si      -0.46450505      -0.46449115       3.30744477      -0.06149534      -0.05904224       0.00165615
Si       2.31524255       3.24496922       4.96114227      -0.06296848       0.05883080      -0.00002135
Si       3.24419188       2.31584749       1.65369365       0.06196788      -0.05907029      -0.00178694
Si       0.69261020       3.71880023      -0.03637873       0.03414972       0.00990434       0.00861582
Si       0.93806621       2.08753908       1.61732743       0.00704619      -0.03198269       0.00499484
Si       1.84147119       4.86799224       3.34386253      -0.00708669      -0.03244425      -0.00603057
Si       2.08686413       0.93831208       4.99750849      -0.02999847       0.01054800      -0.00634117
Si       3.47247254       4.62249617       1.69007042       0.03130772      -0.01067861      -0.00813090
Si       3.71810720       0.69279072       0.03634980       0.00122221       0.03354323      -0.00678308
Si       4.62137264       3.47327803       4.92474069      -0.00827806       0.03221028       0.00412796
Si       4.86679678       1.84199970       3.27096794      -0.03146749      -0.01031387       0.00855560
12
Lattice="5.55860357744282 0.00015883499465709693 0.0007163510378411577 0.00015882577441234244 5.557651155515032 -0.00013340117733883045 0.0008583990943702585 -0.00015984706760953255 6.620172240628343" Properties=species:S:1:pos:R:3:forces:R:3 cutoff=-1.0 nneightol=1.2 n_minim_iter=5 energy=-1955.720878170677 stress="-0.037044952118113705 2.1485413259751173e-05 0.00015835896204307017 2.1485413259751173e-05 -0.03736015789870982 -2.8076840213099556e-05 0.00015835896204307017 -2.8076840213099556e-05 -0.03670963978102572" free_energy=-1955.720878170677 pbc="T T T"
Si       0.46921792       0.46889316       0.00002496       0.01788470       0.02719118       0.00145088
Si      -0.46852295      -0.46898958       3.31006008      -0.02657812      -0.02748634      -0.00249012
Si       2.31103238       3.24765696       4.96539204      -0.02277373       0.02745761      -0.00192967
Si       3.24855669       2.30997358       1.65537449       0.02555549      -0.02655570       0.00327468
Si       0.69427952       3.71803133      -0.03141363       0.01459533       0.01644997      -0.00673223
Si       0.93962954       2.08487872       1.62366266       0.01846623      -0.01854660      -0.00555814
Si       1.84051853       4.86365292       3.34159676      -0.01874370      -0.01835716       0.00796128
Si       2.08593137       0.93916007       4.99691448      -0.01734147       0.01592176       0.00314238
Si       3.47370873       4.61846606       1.68682756       0.02156485      -0.01469724       0.00605596
Si       3.71838668       0.69414482       0.03182960       0.02457469       0.01587307       0.00429276
Si       4.61993846       3.47278932       4.93416931      -0.01647926       0.01892381      -0.00123818
Si       4.86499796       1.83967328       3.27925154      -0.02072499      -0.01617436      -0.00822958
12
Lattice="5.558566493616424 -0.00019277961576938813 -0.0027004388042341644 -0.00019277498132546657 5.558397326023359 0.0004616362853757344 -0.003233040029409106 0.0005527643986966259 6.6193292003379645" Properties=species:S:1:pos:R:3:forces:R:3 cutoff=-1.0 nneightol=1.2 n_minim_iter=6 energy=-1955.721281119548 stress="-0.03669324153082245 -2.0936994669822277e-05 -0.0005617566237429542 -2.0936994669822277e-05 -0.03676987945565337 9.69136122198874e-05 -0.0005617566237429542 9.69136122198874e-05 -0.0365764374297221" free_energy=-1955.721281119548 pbc="T T T"
Si       0.47203633       0.47179369      -0.00016582      -0.00359934      -0.00126116      -0.00467917
Si      -0.47342633      -0.47155660       3.30986162       0.00746860       0.00361411       0.00431112
Si       2.30488145       3.25136363       4.96366587      -0.00197251      -0.00243265       0.00623532
Si       3.25025443       2.30738393       1.65344109      -0.00761892       0.00142988      -0.00628110
Si       0.69519624       3.71960247      -0.02908755       0.01168184       0.02339573      -0.00814225
Si       0.93960926       2.08413195       1.62541524       0.02076944      -0.00497195       0.00416936
Si       1.83700690       4.86339275       3.33826072      -0.02125737      -0.00144395      -0.00262651
Si       2.08170905       0.94082567       4.99274894      -0.01475136       0.02154388       0.00107031
Si       3.47354445       4.61793420       1.68262448      -0.00495589      -0.02333790       0.00457068
Si       3.71935184       0.69514936       0.02721073       0.03424610       0.00437124       0.01578671
Si       4.61551723       3.47465378       4.93345352      -0.02517088       0.00268367      -0.01179672
Si       4.86163904       1.83883533       3.27835855       0.00516029      -0.02359089      -0.00261774
12
Lattice="5.5587220273114655 -0.0001291491006220207 0.00037420190679694065 -0.00012914792728828107 5.558858267173309 -6.716910597592939e-05 0.0004487031071791889 -8.053041715367169e-05 6.618593540987178" Properties=species:S:1:pos:R:3:forces:R:3 cutoff=-1.0 nneightol=1.2 n_minim_iter=7 energy=-1955.72135978247 stress="-0.03663441938707667 1.1939491742589687e-05 1.548625159102915e-05 1.1939491742589687e-05 -0.03660077917350421 -8.397573124482734e-06 1.548625159102915e-05 -8.397573124482734e-06 -0.036591631557572675" free_energy=-1955.72135978247 pbc="T T T"
Si       0.47262191       0.47242186       0.00003410      -0.00985664      -0.00886151      -0.00132091
Si      -0.47215864      -0.47249210       3.30930043       0.00697819       0.00818229      -0.00127682
Si       2.30714007       3.25176453       4.96411190       0.00863235      -0.00729563      -0.00245174
Si       3.25184515       2.30687059       1.65480424      -0.00653095       0.00800307       0.00189136
Si       0.69555621       3.72029892      -0.02864706      -0.00464768       0.02631281      -0.00468417
Si       0.94092313       2.08388417       1.62602549       0.02416959      -0.00098946      -0.00374840
Si       1.83860747       4.86324033       3.33798793      -0.02336713      -0.00005555       0.00639976
Si       2.08423804       0.94081862       4.99280789      -0.00692225       0.02258540       0.00044553
Si       3.47485787       4.61782072       1.68349263       0.00205955      -0.02227701       0.00314890
Si       3.71990829       0.69551838       0.02883019       0.03339552      -0.00258655       0.00827143
Si       4.61804637       3.47478820       4.93551722      -0.02179199       0.00015678      -0.00232999
Si       4.86339768       1.83834901       3.28094114      -0.00211858      -0.02317464      -0.00434494
12
Lattice="5.559791671176692 -0.0006397479212005378 0.0016244549033138096 -0.0006397102953162633 5.559863635501099 -2.84672439595128e-05 0.0019458444738364087 -3.420056713938909e-05 6.6161242325933" Properties=species:S:1:pos:R:3:forces:R:3 cutoff=-1.0 nneightol=1.2 n_minim_iter=8 energy=-1955.72150740463 stress="-0.036617633575178284 -8.246866903017835e-05 0.0003470539967431772 -8.246866903017835e-05 -0.036608849457271844 -4.252393403949757e-06 0.0003470539967431772 -4.252393403949757e-06 -0.0366508007237879" free_energy=-1955.72150740463 pbc="T T T"
Si       0.47239882       0.47226968       0.00008029      -0.00555876      -0.00098139       0.00481807
Si      -0.47131048      -0.47233548       3.30791687      -0.00121709       0.00171962      -0.00321553
Si       2.30859340       3.25203888       4.96272594       0.00333937      -0.00136321      -0.00301018
Si       3.25249971       2.30716384       1.65499215       0.00198608       0.00111222       0.00321345
Si       0.69533013       3.72207178      -0.02883812      -0.00793518       0.00709655       0.00137325
Si       0.94235606       2.08399364       1.62534905       0.01018767       0.00468962      -0.00682171
Si       1.83822238       4.86383315       3.33760141      -0.01000483       0.00268758       0.00387321
Si       2.08522676       0.94184282       4.99160302       0.01331420       0.01048759       0.00193818
Si       3.47568715       4.61734721       1.68398728       0.00042835      -0.00927817       0.00239338
Si       3.72207083       0.69534509       0.03020458       0.00462855      -0.00301056      -0.00736965
Si       4.61873677       3.47517937       4.93444716      -0.00774678      -0.00484758       0.00333914
Si       4.86470457       1.83721556       3.28046935      -0.00142158      -0.00831226      -0.00053161
12
Lattice="5.560367238145866 0.0009282406606842782 4.450635663648018e-05 0.0009281720384267109 5.560431084322035 -0.0007131800858898983 5.395456853471869e-05 -0.000854139290751698 6.61476390611556" Properties=species:S:1:pos:R:3:forces:R:3 cutoff=-1.0 nneightol=1.2 n_minim_iter=9 energy=-1955.72154363415 stress="-0.03659017882022461 0.00011234959374883251 1.0046879914725355e-05 0.00011234959374883251 -0.03657817993311406 -0.00014891227187255446 1.0046879914725355e-05 -0.00014891227187255446 -0.03661071373012742" free_energy=-1955.72154363415 pbc="T T T"
Si       0.47244982       0.47241904      -0.00008292       0.00597987       0.00425847      -0.00067876
Si      -0.47241293      -0.47287116       3.30739928      -0.00473629      -0.00628796       0.00217476
Si       2.30837161       3.25237428       4.96062611      -0.00242427       0.00272294      -0.00064598
Si       3.25300433       2.30813873       1.65346407       0.00166735      -0.00041492       0.00088614
Si       0.69637955       3.72324513      -0.02937973      -0.00441595      -0.00156234       0.00188158
Si       0.94317829       2.08429826       1.62457014       0.00145015       0.00648787      -0.00127126
Si       1.83823509       4.86446557       3.33570393      -0.00074568       0.00287740      -0.00018901
Si       2.08431598       0.94250715       4.98971893       0.00728081       0.00308019       0.00578469
Si       3.47685619       4.61799974       1.68199464      -0.00431979      -0.00170699      -0.00074491
Si       3.72334664       0.69642390       0.02894406      -0.00407713      -0.00669065      -0.00273652
Si       4.61821013       3.47616923       4.93182528      -0.00188184      -0.00112016      -0.00180892
Si       4.86478514       1.83778315       3.27831043       0.00622277      -0.00164386      -0.00265183
