12
Lattice="5.681053956953099 1.2004519080368182e-06 2.2462768353736694e-06 1.200451904609017e-06 5.680387192366118 -2.6846635068613286e-06 2.830308823955036e-06 -3.382676037189674e-06 6.851374083822752" Properties=species:S:1:pos:R:3:forces:R:3 cutoff=-1.0 nneightol=1.2 n_minim_iter=1 energy=-1956.030321909632 stress="7.813413688977276e-05 7.427123734244133e-08 1.545712154184738e-07 7.427123734244133e-08 -7.72098927217466e-05 -6.572881669994673e-08 1.545712154184738e-07 -6.572881669994673e-08 -0.00012630186998755804" free_energy=-1956.030321909632 pbc="T T T"
Si       0.46217990       0.46212591      -0.00000425      -0.00178706      -0.00047643      -0.00028317
Si      -0.46217750      -0.46212706       3.42568290       0.00172733       0.00048392      -0.00029713
Si       2.37835060       3.30231685       5.13853424       0.00173766      -0.00048419       0.00028393
Si       3.30270728       2.37806793       1.71284758      -0.00173078       0.00049549       0.00031532
Si       0.71324814       3.78861680      -0.08447931      -0.00243927      -0.00341382      -0.00083674
Si       0.94853741       2.12703313       1.62838474      -0.00238601       0.00250683       0.00009211
Si       1.89199337       4.96722569       3.51014311       0.00238637       0.00253598      -0.00007122
Si       2.12728221       0.94842178       5.22300937       0.00239970      -0.00344366       0.00079762
Si       3.55377574       4.73196280       1.79732103      -0.00240208       0.00346183       0.00080989
Si       3.78906244       0.71316176       0.08445878      -0.00231155      -0.00258301      -0.00006906
Si       4.73252031       3.55335222       5.05407284       0.00239785      -0.00253388       0.00008779
Si       4.96780862       1.89176894       3.34121017       0.00240784       0.00345094      -0.00082934
