12
Lattice="5.588395337002312 -7.09837663969317e-06 6.656014973831227e-07 -7.09735664209132e-06 5.587497301077494 6.4670057400414345e-06 9.271337972059093e-07 7.651970461990753e-06 6.7267252817262415" Properties=species:S:1:pos:R:3:forces:R:3 cutoff=-1.0 nneightol=1.2 n_minim_iter=1 energy=-1955.885287513096 stress="-0.027446368695202235 -3.617881905123438e-08 -2.4703491219685145e-07 -3.617881905123438e-08 -0.02770295797340564 3.436714038351962e-07 -2.4703491219685145e-07 3.436714038351962e-07 -0.026576903519510763" free_energy=-1955.885287513096 pbc="T T T"
Si       0.45974306       0.45967335       0.00000187      -0.00118745       0.00108638      -0.00073715
Si      -0.45975431      -0.45966658       3.36336397       0.00134069      -0.00095498      -0.00071342
Si       2.33444702       3.25342225       5.04504584       0.00127025       0.00095924       0.00071350
Si       3.25394315       2.33407557       1.68168103      -0.00124467      -0.00099228       0.00070600
Si       0.70036612       3.72905839      -0.06906160      -0.02507045       0.00285953       0.07834938
Si       0.93544624       2.09348913       1.61261805       0.00501098       0.02543049       0.08039444
Si       1.85873856       4.88724104       3.43243544      -0.00497161       0.02538532      -0.08046856
Si       2.09383919       0.93531152       5.11411237       0.02495170       0.00299616      -0.07831341
Si       3.49455607       4.65218569       1.75075318      -0.02507572      -0.00304904      -0.07830905
Si       3.72964715       0.70025121       0.06906842       0.00495868      -0.02530695      -0.08044428
Si       4.65294340       3.49400757       4.97598208      -0.00498755      -0.02541754       0.08047362
Si       4.88802972       1.85843630       3.29429877       0.02500516      -0.00299631       0.07834892
12
Lattice="5.591822080734604 -6.500928309728801e-06 4.8038527539679654e-06 -6.494529119794936e-06 5.595229745254822 6.93901194782948e-07 5.910485481348777e-06 7.279144767225511e-07 6.713312612871398" Properties=species:S:1:pos:R:3:forces:R:3 cutoff=-1.0 nneightol=1.2 n_minim_iter=2 energy=-1955.88603757453 stress="-0.027133395756481625 -1.664918786221173e-07 1.4949878860477219e-07 -1.664918786221173e-07 -0.026162523111435913 -1.4254956349959003e-07 1.4949878860477219e-07 -1.4254956349959003e-07 -0.027713486416948405" free_energy=-1955.88603757453 pbc="T T T"
Si       0.46000804       0.46032508      -0.00000877      -0.00397341      -0.01229044       0.00264932
Si      -0.46001462      -0.46031988       3.35664759       0.00396843       0.01222334       0.00267124
Si       2.33590072       3.25793338       5.03499489       0.00391970      -0.01221725      -0.00269719
Si       3.25592214       2.33729009       1.67833794      -0.00388859       0.01220928      -0.00264281
Si       0.70043757       3.73426003      -0.06781018      -0.02414441       0.02273833       0.08387879
Si       0.93609290       2.09674851       1.61054733       0.01578716       0.02334644       0.07502582
Si       1.85981033       4.89436423       3.42444046      -0.01573240       0.02330915      -0.07500088
Si       2.09548367       0.93664370       5.10279921       0.02399250       0.02269904      -0.08392543
Si       3.49634226       4.65857873       1.74614361      -0.02407441      -0.02269717      -0.08388504
Si       3.73200514       0.70085858       0.06778583       0.01584842      -0.02331715      -0.07498578
Si       4.65572931       3.49847463       4.96720745      -0.01573675      -0.02332680       0.07502954
Si       4.89138708       1.86096243       3.28884889       0.02403375      -0.02267677       0.08388242
12
Lattice="5.601696635922616 -1.6656179481259255e-06 1.0135086643442096e-05 -1.675203276731132e-06 5.59312466785652 -8.122913283585457e-06 1.2330407186428613e-05 -9.878645811680293e-06 6.704000751175841" Properties=species:S:1:pos:R:3:forces:R:3 cutoff=-1.0 nneightol=1.2 n_minim_iter=3 energy=-1955.887728309611 stress="-0.024663246468387523 2.0136091790217253e-07 8.13716475175442e-08 2.0136091790217253e-07 -0.02709503969900344 -7.431506803751512e-07 8.13716475175442e-08 -7.431506803751512e-07 -0.027613763167137803" free_energy=-1955.887728309611 pbc="T T T"
Si       0.46071284       0.45995908       0.00001749      -0.00192837       0.01837589      -0.00669944
Si      -0.46071179      -0.45995655       3.35201959       0.00204384      -0.01867643      -0.00663790
Si       2.34014268       3.25650611       5.02797997       0.00205189       0.01868108       0.00658770
Si       3.26156730       2.33660539       1.67598205      -0.00203135      -0.01864486       0.00670581
Si       0.70049456       3.73335684      -0.06389569      -0.00561002       0.01382008       0.04506312
Si       0.93818677       2.09713569       1.61203568       0.03080314       0.00730151       0.06731611
Si       1.86266674       4.89369481       3.41595814      -0.03076795       0.00733031      -0.06717840
Si       2.10036652       0.93678942       5.09189633       0.00535390       0.01348861      -0.04513704
Si       3.50134016       4.65632044       1.73989300      -0.00544244      -0.01342463      -0.04515494
Si       3.73903317       0.69942442       0.06396883       0.03082392      -0.00746245      -0.06716993
Si       4.66352274       3.49597753       4.96404360      -0.03076346      -0.00732755       0.06721705
Si       4.90120861       1.85975736       3.28811446       0.00546690      -0.01346156       0.04508786
12
Lattice="5.5951507643357665 2.1492389221714095e-06 1.726636512808816e-05 2.1569562211661855e-06 5.6006774039162694 -1.2830633560351147e-05 2.0913349624839365e-05 -1.5534464345301407e-05 6.702792698955193" Properties=species:S:1:pos:R:3:forces:R:3 cutoff=-1.0 nneightol=1.2 n_minim_iter=4 energy=-1955.889366683492 stress="-0.02633348881495486 2.646181533897659e-07 1.1782206537626848e-06 2.646181533897659e-07 -0.024740462403931865 -4.3018601559311996e-07 1.1782206537626848e-06 -4.3018601559311996e-07 -0.026185367857949976" free_energy=-1955.889366683492 pbc="T T T"
Si       0.46002053       0.46052710      -0.00001693       0.05006153       0.03687205       0.00421265
Si      -0.46000792      -0.46052628       3.35138277      -0.05051197      -0.03693537       0.00409046
Si       2.33757442       3.26084678       5.02710574      -0.05044817       0.03692512      -0.00415628
Si       3.25760404       2.33981442       1.67571577       0.05044905      -0.03685979      -0.00400566
Si       0.69806542       3.73914709      -0.05843465       0.02021750       0.01687583       0.02241239
Si       0.93793641       2.10159522       1.61729373       0.00536860      -0.02173891       0.00896716
Si       1.85965854       4.90192745       3.40979051      -0.00534549      -0.02159163      -0.00881399
Si       2.09952173       0.93880160       5.08552864      -0.02035165       0.01668122      -0.02264111
Si       3.49564389       4.66185756       1.73412888       0.02044782      -0.01654372      -0.02254974
Si       3.73550629       0.69874726       0.05841257       0.00578288       0.02134603      -0.00884461
Si       4.65724195       3.49906969       4.96870360      -0.00534682       0.02161355       0.00887236
Si       4.89709341       1.86151999       3.29297870      -0.02032326      -0.01664438       0.02245637
12
Lattice="5.598998007535337 -9.181763790343408e-06 -1.6021043438948532e-05 -9.187082037113312e-06 5.592859441095271 -7.220285780798479e-07 -1.915447346218504e-05 -9.73316245293711e-07 6.707550046395135" Properties=species:S:1:pos:R:3:forces:R:3 cutoff=-1.0 nneightol=1.2 n_minim_iter=5 energy=-1955.890068980507 stress="-0.02470614072395138 -6.601793557315236e-07 -4.4950376395779504e-07 -6.601793557315236e-07 -0.026446243951184164 -5.998642420112602e-08 -4.4950376395779504e-07 -5.998642420112602e-08 -0.02506230033223356" free_energy=-1955.890068980507 pbc="T T T"
Si       0.46180294       0.46127519       0.00000226       0.03975313       0.05462653      -0.00439448
Si      -0.46181799      -0.46126816       3.35378181      -0.03973992      -0.05478055      -0.00441964
Si       2.33767044       3.25769392       5.03064583      -0.03980949       0.05475661       0.00456888
Si       3.26130478       2.33515395       1.67687514       0.03968291      -0.05475891       0.00438327
Si       0.69839857       3.73460450      -0.05519023       0.02752169       0.00057039      -0.01063533
Si       0.93917675       2.09878833       1.62165724       0.01276487      -0.02615855       0.00474633
Si       1.86029970       4.89521713       3.40899729      -0.01278355      -0.02620171      -0.00478289
Si       2.10106262       0.93817104       5.08583927      -0.02692933       0.00059343       0.01079595
Si       3.49789653       4.65467691       1.73206313       0.02725131      -0.00055894       0.01069200
Si       3.73869338       0.69762934       0.05522029       0.01235703       0.02627187      -0.00489139
Si       4.65979979       3.49405783       4.97542514      -0.01290750       0.02622039       0.00459967
Si       4.90057038       1.85824694       3.29857432      -0.02716113      -0.00058055      -0.01066236
12
Lattice="5.594955077932649 2.692042365295983e-05 -5.7726323025281656e-05 2.691777428280733e-05 5.59552614231688 2.610479471921307e-05 -6.935569963404231e-05 3.1324882095464557e-05 6.70919796447469" Properties=species:S:1:pos:R:3:forces:R:3 cutoff=-1.0 nneightol=1.2 n_minim_iter=6 energy=-1955.89136597344 stress="-0.025135304986986188 -6.392332313917606e-07 -1.5638813422051487e-06 -6.392332313917606e-07 -0.02496139479707155 2.0501067227025627e-06 -1.5638813422051487e-06 2.0501067227025627e-06 -0.02476930164272388" free_energy=-1955.89136597344 pbc="T T T"
Si       0.46671609       0.46681751      -0.00000081      -0.00340352      -0.00456678       0.00060450
Si      -0.46677767      -0.46680589       3.35459772       0.00350112       0.00522663       0.00053283
Si       2.33069756       3.26461551       5.03189456       0.00349427      -0.00525494      -0.00027492
Si       3.26421382       2.33097012       1.67728612      -0.00363117       0.00513863      -0.00080302
Si       0.69979552       3.73787053      -0.05132546       0.00389292       0.02227257      -0.00183863
Si       0.94000543       2.09791811       1.62600042       0.02170912      -0.00321075      -0.00415839
Si       1.85745905       4.89569867       3.40590783      -0.02190178      -0.00337082       0.00373220
Si       2.09766124       0.94013032       5.08320918      -0.00282732       0.02314910       0.00228021
Si       3.49726170       4.65546206       1.72861593       0.00319104      -0.02338148       0.00215322
Si       3.73750104       0.69985941       0.05126501       0.02110138       0.00389135       0.00366582
Si       4.65490850       3.49766012       4.98055863      -0.02192704       0.00339115      -0.00395268
Si       4.89515561       1.85770981       3.30322361      -0.00319902      -0.02328468      -0.00194114
12
Lattice="5.600207084302124 8.642465912827126e-05 6.810414071843578e-05 8.640997926454447e-05 5.59870403640282 -0.00013842835129626056 8.210774375428302e-05 -0.00016673848522188555 6.699101273169905" Properties=species:S:1:pos:R:3:forces:R:3 cutoff=-1.0 nneightol=1.2 n_minim_iter=7 energy=-1955.891479762902 stress="-0.02430871821142562 2.8267677596879015e-06 1.9610358724898214e-06 2.8267677596879015e-06 -0.024704253863029654 -1.0992244269587624e-05 1.9610358724898214e-06 -1.0992244269587624e-05 -0.025397032263584696" free_energy=-1955.891479762902 pbc="T T T"
Si       0.46765449       0.46759218       0.00001212      -0.00499718      -0.00617052      -0.00195809
Si      -0.46763568      -0.46763535       3.34956296       0.00563075       0.00224173      -0.00102669
Si       2.33254194       3.26680386       5.02428709       0.00624842      -0.00204498       0.00017877
Si       3.26782164       2.33181322       1.67473793      -0.00572300       0.00260252       0.00190469
Si       0.70096811       3.74192054      -0.05054875      -0.00688143       0.01282043      -0.00170178
Si       0.94289702       2.09864944       1.62424100       0.01109308       0.00461747       0.00426793
Si       1.85736811       4.89796507       3.39992292      -0.01102110       0.00510148      -0.00229335
Si       2.09935734       0.94251533       5.07481611       0.00379204       0.00814012       0.00048924
Si       3.50105975       4.65609818       1.72518431      -0.00495587      -0.00743522       0.00036511
Si       3.74292383       0.70076431       0.05048827       0.01219514      -0.00701668      -0.00191538
Si       4.65746116       3.49998378       4.97380558      -0.01033558      -0.00497112       0.00314764
Si       4.89941925       1.85673141       3.29909458       0.00495472      -0.00788523      -0.00145810
12
Lattice="5.597924465237018 4.8838925524094676e-05 3.7453836597113825e-05 4.883163979538209e-05 5.59752883809943 2.959841100558403e-07 4.5213405334150415e-05 2.637323654034871e-07 6.703239950403988" Properties=species:S:1:pos:R:3:forces:R:3 cutoff=-1.0 nneightol=1.2 n_minim_iter=8 energy=-1955.891559698112 stress="-0.02473155200352687 2.271979693872422e-06 4.199289597134748e-07 2.271979693872422e-06 -0.024835219611039534 -3.882107823687344e-07 4.199289597134748e-07 -3.882107823687344e-07 -0.02499049631278761" free_energy=-1955.891559698112 pbc="T T T"
Si       0.46740609       0.46739754       0.00000895       0.00013801       0.00050661      -0.00063409
Si      -0.46739975      -0.46739914       3.35162065       0.00023610      -0.00037561      -0.00046892
Si       2.33160870       3.26617843       5.02745231       0.00056719       0.00041543       0.00006512
Si       3.26640375       2.33139897       1.67582492      -0.00026912      -0.00040264       0.00049082
Si       0.70058576       3.74110214      -0.05066527      -0.00433262       0.00479445      -0.00147250
Si       0.94242137       2.09828654       1.62515260       0.00551769       0.00378995      -0.00065055
Si       1.85662922       4.89705834       3.40229472      -0.00551739       0.00386540       0.00077403
Si       2.09850345       0.94235225       5.07812345       0.00274178       0.00452484       0.00125570
Si       3.49954255       4.65522596       1.72650596      -0.00358004      -0.00462011       0.00138806
Si       3.74133886       0.70052281       0.05068056       0.00623895      -0.00400725       0.00103963
Si       4.65558888       3.49929398       4.97678912      -0.00521426      -0.00388148      -0.00034856
Si       4.89744106       1.85647174       3.30098056       0.00347371      -0.00460960      -0.00143874
