12
Lattice="5.560367238145866 0.0009282406606842782 4.450635663648018e-05 0.0009281720384267109 5.560431084322035 -0.0007131800858898983 5.395456853471869e-05 -0.000854139290751698 6.61476390611556" Properties=species:S:1:pos:R:3:forces:R:3 cutoff=-1.0 nneightol=1.2 n_minim_iter=9 energy=-1955.72154363415 stress="-0.03659017882022461 0.00011234959374883251 1.0046879914725355e-05 0.00011234959374883251 -0.03657817993311406 -0.00014891227187255446 1.0046879914725355e-05 -0.00014891227187255446 -0.03661071373012742" free_energy=-1955.72154363415 pbc="T T T"
Si       0.47244982       0.47241904      -0.00008292       0.00597987       0.00425847      -0.00067876
Si      -0.47241293      -0.47287116       3.30739928      -0.00473629      -0.00628796       0.00217476
Si       2.30837161       3.25237428       4.96062611      -0.00242427       0.00272294      -0.00064598
Si       3.25300433       2.30813873       1.65346407       0.00166735      -0.00041492       0.00088614
Si       0.69637955       3.72324513      -0.02937973      -0.00441595      -0.00156234       0.00188158
Si       0.94317829       2.08429826       1.62457014       0.00145015       0.00648787      -0.00127126
Si       1.83823509       4.86446557       3.33570393      -0.00074568       0.00287740      -0.00018901
Si       2.08431598       0.94250715       4.98971893       0.00728081       0.00308019       0.00578469
Si       3.47685619       4.61799974       1.68199464      -0.00431979      -0.00170699      -0.00074491
Si       3.72334664       0.69642390       0.02894406      -0.00407713      -0.00669065      -0.00273652
Si       4.61821013       3.47616923       4.93182528      -0.00188184      -0.00112016      -0.00180892
Si       4.86478514       1.83778315       3.27831043       0.00622277      -0.00164386      -0.00265183
