12
Lattice="5.475450434137923 1.6635292868845778e-05 4.9262190790965705e-05 1.6577938267534912e-05 5.475349427015795 6.432947396717267e-05 6.0070048546081935e-05 6.310684815926636e-05 6.45298855897243" Properties=species:S:1:pos:R:3:forces:R:3 cutoff=-1.0 nneightol=1.2 n_minim_iter=12 energy=-1955.488139735394 stress="-0.04779840863488589 -3.0808905587235235e-06 2.7390699719617904e-06 -3.0808905587235235e-06 -0.04784061850631187 2.1206432192575275e-06 2.7390699719617904e-06 2.1206432192575275e-06 -0.047807345929166425" free_energy=-1955.488139735394 pbc="T T T"
Si       0.47559173       0.47556733       0.00000843      -0.00062906      -0.00013703      -0.00046174
Si      -0.47548710      -0.47543731       3.22648368      -0.00269436      -0.00287376      -0.00044954
Si       2.26228255       3.21319317       4.83982688      -0.00266939       0.00372468      -0.00040326
Si       3.21323635       2.26223522       1.61329666       0.00302010      -0.00399012       0.00012165
Si       0.68545626       3.67524307      -0.00273609      -0.00728594       0.00121701      -0.00180142
Si       0.93775075       2.05230033       1.61034554      -0.00164556       0.00660577       0.00236553
Si       1.80004038       4.78996478       3.22935629       0.00099052       0.00707939       0.00210364
Si       2.05239381       0.93780126       4.84269710       0.00540965      -0.00321981      -0.00249858
Si       3.42314192       4.53761792       1.61620165      -0.00547139       0.00314261      -0.00018260
Si       3.67537699       0.68542924       0.00282407       0.00239609      -0.00661639       0.00223394
Si       4.53777357       3.42315887       4.83696285       0.00194521      -0.00633723       0.00050032
Si       4.79004814       1.80004042       3.22374942       0.00663413       0.00140486      -0.00152793
