12
Lattice="5.448471647577531 1.0049473929038525e-05 0.00013978671962047574 9.993045739390222e-06 5.448663263299015 2.5670587302952198e-05 0.00016756201742760185 1.867631021164502e-05 6.33051141672308" Properties=species:S:1:pos:R:3:forces:R:3 cutoff=-1.0 nneightol=1.2 n_minim_iter=11 energy=-1955.194845539994 stress="-0.05814591027815975 -3.2038989901690177e-06 -1.7825097726979212e-06 -3.2038989901690177e-06 -0.05807148647917286 -1.809268027737254e-06 -1.7825097726979212e-06 -1.809268027737254e-06 -0.05833456864284562" free_energy=-1955.194845539994 pbc="T T T"
Si       0.48454948       0.48449598       0.00001152      -0.00090804      -0.00124519       0.00014722
Si      -0.48448687      -0.48449582       3.16519908       0.00032825       0.00028731       0.00043161
Si       2.23983263       3.20885889       4.74802870      -0.00128333       0.00069697      -0.00055206
Si       3.20877623       2.23984388       1.58277452       0.00138738      -0.00052505      -0.00071800
Si       0.68166602       3.66935905       0.02658218      -0.00675380       0.00230326      -0.00062977
Si       0.94514070       2.04272968       1.60914976       0.00018599       0.00697590       0.00053116
Si       1.77926893       4.76706333       3.13876664      -0.00125729       0.00738125       0.00207388
Si       2.04285389       0.94512357       4.72145335       0.00680968      -0.00006936      -0.00131128
Si       3.40586544       4.50359567       1.55622408      -0.00637435      -0.00019979      -0.00115327
Si       3.66927208       0.68163834      -0.02646316       0.00070499      -0.00734052       0.00187911
Si       4.50348479       3.40594786       4.77447258      -0.00030269      -0.00668928       0.00005351
Si       4.76693891       1.77929017       3.19192943       0.00746320      -0.00157551      -0.00075210
