2
Lattice="2.939424701865376 5.641918226339803e-17 2.939424701865376 2.939424701865376 2.939424701865376 8.854186117656901e-17 7.185815693667248e-17 2.939424701865376 2.939424701865376" Properties=species:S:1:pos:R:3:forces:R:3 n_minim_iter=1 energy=-325.9014353740833 stress="0.07508859642221033 -4.07226650168996e-17 4.07488654587576e-17 -4.07226650168996e-17 0.07508859642221033 -3.0261192545234306e-17 4.07488654587576e-17 -3.0261192545234306e-17 0.07508859642221039" free_energy=-325.9014353740833 pbc="T T T"
Si       0.00000000      -0.00000000      -0.00000000       0.00000000      -0.00000000       0.00000000
Si       1.46971235       1.46971235       1.46971235      -0.00000000       0.00000000      -0.00000000
