2
Lattice="2.70058703505992 5.183494309363445e-17 2.70058703505992 2.70058703505992 2.70058703505992 8.134755151297928e-17 6.601945165097361e-17 2.70058703505992 2.70058703505992" Properties=species:S:1:pos:R:3:forces:R:3 n_minim_iter=1 energy=-326.3543916465114 stress="-0.0037799540332553827 -5.0838989742760514e-17 1.3097204275921571e-16 -5.0838989742760514e-17 -0.003779954033255384 -1.8181235155823471e-16 1.3097204275921571e-16 -1.8181235155823471e-16 -0.0037799540332552942" free_energy=-326.3543916465114 pbc="T T T"
Si       0.00000000      -0.00000000      -0.00000000      -0.00000000       0.00000000      -0.00000000
Si       1.35029352       1.35029352       1.35029352       0.00000000      -0.00000000       0.00000000
