2
Lattice="2.724071579354815 5.228570435453891e-17 2.724071579354815 2.724071579354815 2.724071579354815 8.205495703332959e-17 6.659356265591206e-17 2.724071579354815 2.724071579354815" Properties=species:S:1:pos:R:3:forces:R:3 n_minim_iter=1 energy=-326.3543916465114 stress="-0.0037799540332553827 -5.0838989742760514e-17 1.3097204275921571e-16 -5.0838989742760514e-17 -0.003779954033255384 -1.8181235155823471e-16 1.3097204275921571e-16 -1.8181235155823471e-16 -0.0037799540332552942" free_energy=-326.3543916465114 pbc="T T T"
Si       0.00000000      -0.00000000      -0.00000000      -0.00000000       0.00000000      -0.00000000
Si       1.36203579       1.36203579       1.36203579       0.00000000      -0.00000000       0.00000000
