2
Lattice="2.8571594913429674 5.484018760384603e-17 2.8571594913429674 2.8571594913429674 2.8571594913429674 8.606385422333291e-17 6.98470741542504e-17 2.8571594913429674 2.8571594913429674" Properties=species:S:1:pos:R:3:forces:R:3 n_minim_iter=1 energy=-326.171922589426 stress="0.054310981408739877 -3.776686288079992e-17 6.435474403093048e-18 -3.776686288079992e-17 0.054310981408739877 3.6192538040313725e-17 6.435474403093048e-18 3.6192538040313725e-17 0.05431098140873994" free_energy=-326.171922589426 pbc="T T T"
Si       0.00000000      -0.00000000      -0.00000000      -0.00000000       0.00000000      -0.00000000
Si       1.42857975       1.42857975       1.42857975       0.00000000      -0.00000000       0.00000000
