2
Lattice="2.627562132147635 5.043330647250904e-17 2.627562132147635 2.627562132147635 2.627562132147635 7.914788270976459e-17 6.423426051121549e-17 2.627562132147635 2.627562132147635" Properties=species:S:1:pos:R:3:forces:R:3 n_minim_iter=1 energy=-326.2639214604993 stress="-0.05803440244358642 -1.7217626364240645e-16 4.695956990427218e-16 -1.7217626364240645e-16 -0.058034402443586486 -2.865135738224277e-16 4.695956990427218e-16 -2.865135738224277e-16 -0.05803440244358636" free_energy=-326.2639214604993 pbc="T T T"
Si      -0.00000000      -0.00000000      -0.00000000      -0.00000000       0.00000000      -0.00000000
Si       1.31378107       1.31378107       1.31378107       0.00000000      -0.00000000       0.00000000
