16
Lattice="2.7470454896515397 -2.7470454896515397 0.0 2.7470454896515397 2.7470454896515397 0.0 0.0 0.0 31.68666964238566" Properties=species:S:1:pos:R:3:travel:I:3:map_shift:I:3:n_neighb:I:1:orig_index:I:1:forces:R:3 cutoff=2.0 nneightol=1.2 supercell_a1_in_bulk_lattice_coords="1 0 -1" bulk_struct_test=bulk_Si_diamond n_minim_iter=0 energy=-2606.828469983335 stress="0.008632989488712448 0.001970067257782676 7.428061465022783e-18 0.001970067257782676 0.008632989488712434 -1.4650927861951013e-17 7.428061465022783e-18 -1.4650927861951013e-17 -4.127754341345773e-05" free_energy=-2606.828469983335 pbc="T T T"
Si       0.00000000      -0.00000000       0.00714873        0        0        0        0        0        0       29        1       0.00000000       0.00000000      -0.00281947
Si       1.37352274       1.37352274       1.36637401        0        0        0       -1        0        0       29        2      -0.00000000      -0.00000000       0.00281947
Si      -0.00000000       2.74704549       2.72594084        0        0        0       -1        0        0       29        3       0.00000000       0.00000000      -0.00344347
Si      -1.37352274       1.37352274       4.08526435        1        0        0        0        0        0       29        4      -0.00000000       0.00000000      -0.00267743
Si      -0.00000000      -0.00000000       5.44320022        1       -1        0        0        0        0       29        5       0.00000000      -0.00000000      -0.00189229
Si       1.37352274       1.37352274       6.81239746        1       -1        0        0        0        0       29        6      -0.00000000      -0.00000000       0.00043618
Si      -0.00000000       2.74704549       8.17715437        1       -1        0        0        0        0       29        7      -0.00000000       0.00000000      -0.00010942
Si      -1.37352274       1.37352274       9.55171937        2       -1        0        0        0        0       29        8       0.00000000      -0.00000000      -0.00125131
Si       0.00000000      -0.00000000      10.90053828        2       -2        0        0        0        0       29        9      -0.00000000       0.00000000       0.00414305
Si       1.37352274       1.37352274      -9.52701553        2       -2        1        0        0        0       29       10       0.00000000       0.00000000      -0.00414305
Si      -0.00000000       2.74704549      -8.17819662        2       -2        1        0        0        0       35       11      -0.00000000      -0.00000000       0.00125131
Si      -1.37352274       1.37352274      -6.80363162        3       -2        1        0        0        0       35       12       0.00000000       0.00000000       0.00010942
Si       0.00000000       0.00000000      -5.43887472        3       -3        1        0        0        0       35       13      -0.00000000      -0.00000000      -0.00043618
Si       1.37352274       1.37352274      -4.06967748        3       -3        1        0        0        0       35       14       0.00000000       0.00000000       0.00189229
Si       0.00000000       2.74704549      -2.71174161        3       -2        1        0        0        0       29       97       0.00000000       0.00000000       0.00267743
Si      -1.37352274       1.37352274      -1.35241810        4       -2        1        0        0        0       29       98       0.00000000      -0.00000000       0.00344347
