2
Lattice="2.9372777379801716 -1.8989118202079562e-16 2.9372777379801716 2.9372777379801716 2.9372777379801716 -2.0755961510942594e-16 -7.476250869622858e-17 2.9372777379801716 2.9372777379801716" Properties=species:S:1:pos:R:3:forces:R:3 n_minim_iter=1 energy=-325.9124897869385 stress="0.07686004411008769 -1.181524204730093e-16 1.6930434137177922e-17 -1.181524204730093e-16 0.07686004411008783 -1.101900188032105e-16 1.6930434137177922e-17 -1.101900188032105e-16 0.07686004411008769" free_energy=-325.9124897869385 pbc="T T T"
Si       0.00000000      -0.00000000      -0.00000000      -0.00000000      -0.00000000       0.00000000
Si       1.46863887       1.46863887       1.46863887       0.00000000       0.00000000      -0.00000000
