2
Lattice="2.749263066733699 -1.7773627828166372e-16 2.749263066733699 2.749263066733699 2.749263066733699 -1.9427375783612687e-16 -6.997697264959346e-17 2.749263066733699 2.749263066733699" Properties=species:S:1:pos:R:3:forces:R:3 n_minim_iter=1 energy=-326.3459265626901 stress="0.010528473199403818 -1.6717461052371442e-16 1.7274769630287638e-16 -1.6717461052371442e-16 0.010528473199403853 -1.119418914787826e-16 1.7274769630287638e-16 -1.119418914787826e-16 0.010528473199403993" free_energy=-326.3459265626901 pbc="T T T"
Si       0.00000000      -0.00000000      -0.00000000      -0.00000000       0.00000000      -0.00000000
Si       1.37463153       1.37463153       1.37463153       0.00000000      -0.00000000       0.00000000
