2
Lattice="2.7038123534028586 -1.747979488324314e-16 2.7038123534028586 2.7038123534028586 2.7038123534028586 -1.9106203139861084e-16 -6.882011597693049e-17 2.7038123534028586 2.7038123534028586" Properties=species:S:1:pos:R:3:forces:R:3 n_minim_iter=1 energy=-326.3413711966388 stress="-0.016491779095540924 1.7223850760293317e-16 1.7337383149914483e-16 1.7223850760293317e-16 -0.016491779095541118 -1.6656526697225805e-16 1.7337383149914483e-16 -1.6656526697225805e-16 -0.01649177909554106" free_energy=-326.3413711966388 pbc="T T T"
Si       0.00000000      -0.00000000      -0.00000000      -0.00000000       0.00000000       0.00000000
Si       1.35190618       1.35190618       1.35190618       0.00000000      -0.00000000      -0.00000000
