2
Lattice="2.4773959912761088 -1.6016042576909927e-16 2.4773959912761088 2.4773959912761088 2.4773959912761088 -1.7506255938074842e-16 -6.305714197430527e-17 2.4773959912761088 2.4773959912761088" Properties=species:S:1:pos:R:3:forces:R:3 n_minim_iter=1 energy=-325.4386621452785 stress="-0.24476603168331226 6.97242375605948e-17 -3.679087233037602e-17 6.97242375605948e-17 -0.2447660316833124 1.0523635645643055e-16 -3.679087233037602e-17 1.0523635645643055e-16 -0.24476603168331243" free_energy=-325.4386621452785 pbc="T T T"
Si      -0.00000000      -0.00000000      -0.00000000      -0.00000000       0.00000000       0.00000000
Si       1.23869800       1.23869800       1.23869800       0.00000000      -0.00000000      -0.00000000
