2
Lattice="2.7714355005973643 -1.7916969726693971e-16 2.7714355005973643 2.7714355005973643 2.7714355005973643 -1.9584054935171107e-16 -7.054132744591203e-17 2.7714355005973643 2.7714355005973643" Properties=species:S:1:pos:R:3:forces:R:3 n_minim_iter=1 energy=-326.3297715780402 stress="0.02109631033985949 -1.6178633310744842e-16 1.624259524052689e-17 -1.6178633310744842e-16 0.0210963103398596 2.9208190731840945e-17 1.624259524052689e-17 2.9208190731840945e-17 0.021096310339859432" free_energy=-326.3297715780402 pbc="T T T"
Si       0.00000000      -0.00000000      -0.00000000      -0.00000000      -0.00000000      -0.00000000
Si       1.38571775       1.38571775       1.38571775       0.00000000       0.00000000       0.00000000
