2
Lattice="2.5312692211851457 -1.6364325995070434e-16 2.5312692211851457 2.5312692211851457 2.5312692211851457 -1.7886945401656535e-16 -6.442837689958609e-17 2.5312692211851457 2.5312692211851457" Properties=species:S:1:pos:R:3:forces:R:3 n_minim_iter=1 energy=-325.6644532602407 stress="-0.20190753220687757 -3.2547908547952614e-16 1.3909679431499514e-16 -3.2547908547952614e-16 -0.2019075322068774 -1.167163667441184e-16 1.3909679431499514e-16 -1.167163667441184e-16 -0.20190753220687752" free_energy=-325.6644532602407 pbc="T T T"
Si       0.00000000      -0.00000000      -0.00000000      -0.00000000       0.00000000      -0.00000000
Si       1.26563461       1.26563461       1.26563461       0.00000000      -0.00000000       0.00000000
