2
Lattice="2.9372777379801716 -1.8989118202079562e-16 2.9372777379801716 2.9372777379801716 2.9372777379801716 -2.0755961510942594e-16 -7.476250869622858e-17 2.9372777379801716 2.9372777379801716" Properties=species:S:1:pos:R:3:forces:R:3 n_minim_iter=1 energy=-325.9874580893988 stress="0.07103754957607955 4.230014982540231e-17 4.685356839763309e-17 4.230014982540231e-17 0.0710375495760795 4.153867033019685e-17 4.685356839763309e-17 4.153867033019685e-17 0.0710375495760795" free_energy=-325.9874580893988 pbc="T T T"
Si      -0.00000000      -0.00000000      -0.00000000       0.00000000       0.00000000       0.00000000
Si       1.46863887       1.46863887       1.46863887      -0.00000000      -0.00000000      -0.00000000
