4
Lattice="1.9300453912080515 -3.3429366784864962 4.1371751185214134e-18 1.930045391208051 3.3429366784864962 -4.1371751185214134e-18 0.0 7.827161754334069e-18 6.324534342254634" Properties=species:S:1:pos:R:3 cutoff=-1.0 nneightol=1.2 n_minim_iter=1 energy=-652.6580528891946 free_energy=-652.6580528891946 pbc="T T T"
Si       1.93004539       1.11431223       0.39496208
Si       1.93004539      -1.11431223       3.55722925
Si       1.93004539       1.11431223       2.76730509
Si       1.93004539      -1.11431223      -0.39496208
