4
Lattice="1.7769921707192995 -3.0778407243379347 -2.5743653178302477e-18 1.7769921707192995 3.0778407243379347 2.57436531783021e-18 6.30915910761457e-32 -4.9923680319909774e-18 5.968738598722056" Properties=species:S:1:pos:R:3 cutoff=-1.0 nneightol=1.2 n_minim_iter=1 energy=-651.4486541141664 free_energy=-651.4486541141664 pbc="T T T"
Si       1.77699217       1.02594691       0.37936082
Si       1.77699217      -1.02594691       3.36373012
Si       1.77699217       1.02594691       2.60500848
Si       1.77699217      -1.02594691      -0.37936082
4
Lattice="1.7732217133079378 -3.071310100533683 9.896919717012442e-18 1.7732217133079378 3.071310100533683 -9.896919717012349e-18 8.727983306535526e-32 -2.919871023159744e-17 5.994148620413485" Properties=species:S:1:pos:R:3 cutoff=-1.0 nneightol=1.2 n_minim_iter=2 stress="-0.17444643738735674 -3.067978184765284e-17 3.4746476688093624e-17 -3.067978184765284e-17 -0.17444643738735666 5.85192261867455e-17 3.4746476688093624e-17 5.85192261867455e-17 -0.1741597504551315" pbc="T T T"
Si       1.77322171       1.02377003       0.37978446
Si       1.77322171      -1.02377003       3.37685877
Si       1.77322171       1.02377003       2.61728985
Si       1.77322171      -1.02377003      -0.37978446
4
Lattice="1.7738867830133689 -3.0724620350540652 9.004798281684267e-18 1.7738867830133689 3.0724620350540652 -9.004798281684165e-18 4.975306333307479e-32 -2.7487802182611773e-17 5.98965478306536" Properties=species:S:1:pos:R:3 cutoff=-1.0 nneightol=1.2 n_minim_iter=3 stress="-0.17416862709534722 3.8640454462670533e-17 2.366028483329946e-17 3.8640454462670533e-17 -0.17416862709534747 -4.2903001173152858e-16 2.366028483329946e-17 -4.2903001173152858e-16 -0.17422086311123833" pbc="T T T"
Si       1.77388678       1.02415401       0.37841777
Si       1.77388678      -1.02415401       3.37324516
Si       1.77388678       1.02415401       2.61640963
Si       1.77388678      -1.02415401      -0.37841777
