4
Lattice="1.9768063600797965 -3.423929052383504 4.231174113563246e-18 1.9768063600797965 3.423929052383504 -4.231174113563246e-18 0.0 8.009030469878945e-18 6.481026630253637" Properties=species:S:1:pos:R:3 cutoff=-1.0 nneightol=1.2 n_minim_iter=1 energy=-652.5470804522671 free_energy=-652.5470804522671 pbc="T T T"
Si       1.97680636       1.14130968       0.40364893
Si       1.97680636      -1.14130968       3.64416224
Si       1.97680636       1.14130968       2.83686439
Si       1.97680636      -1.14130968      -0.40364893
4
Lattice="1.9766710711080777 -3.4236947250107836 4.231029787436497e-18 1.9766710711080777 3.4236947250107836 -4.231029787436497e-18 2.033160275895176e-34 8.009851895163151e-18 6.481913820284427" Properties=species:S:1:pos:R:3 cutoff=-1.0 nneightol=1.2 n_minim_iter=2 stress="0.032953871776070016 2.319494811837485e-17 -6.979788660066871e-17 2.319494811837485e-17 0.03295387177607036 8.758750829548938e-17 -6.979788660066871e-17 8.758750829548938e-17 0.033093477890621344" pbc="T T T"
Si       1.97667107       1.14123158       0.40349928
Si       1.97667107      -1.14123158       3.64445619
Si       1.97667107       1.14123158       2.83745763
Si       1.97667107      -1.14123158      -0.40349928
