4
Lattice="1.7738867830133689 -3.0724620350540652 9.004798281684267e-18 1.7738867830133689 3.0724620350540652 -9.004798281684165e-18 4.975306333307479e-32 -2.7487802182611773e-17 5.98965478306536" Properties=species:S:1:pos:R:3 cutoff=-1.0 nneightol=1.2 n_minim_iter=3 stress="-0.17416862709534722 3.8640454462670533e-17 2.366028483329946e-17 3.8640454462670533e-17 -0.17416862709534747 -4.2903001173152858e-16 2.366028483329946e-17 -4.2903001173152858e-16 -0.17422086311123833" pbc="T T T"
Si       1.77388678       1.02415401       0.37841777
Si       1.77388678      -1.02415401       3.37324516
Si       1.77388678       1.02415401       2.61640963
Si       1.77388678      -1.02415401      -0.37841777
