4
Lattice="2.0862883658075924 -3.6135574488185935 3.0837501071095815e-18 2.0862883658075924 3.6135574488185935 -3.0837501071095972e-18 -2.612007523816822e-32 -4.4342805820754065e-18 6.7658901383020895" Properties=species:S:1:pos:R:3 cutoff=-1.0 nneightol=1.2 n_minim_iter=4 stress="0.06323044762922014 1.116055979907876e-16 8.387771465912116e-17 1.116055979907876e-16 0.06323044762922012 1.2426890636221819e-17 8.387771465912116e-17 1.2426890636221819e-17 0.06293302600561176" pbc="T T T"
Si       2.08628837       1.20451915       0.42456192
Si       2.08628837      -1.20451915       3.80750699
Si       2.08628837       1.20451915       2.95838315
Si       2.08628837      -1.20451915      -0.42456192
