4
Lattice="1.7995047468025165 -3.1168336499233256 -4.273741056551418e-18 1.7995047468025165 3.1168336499233256 4.2737410565515014e-18 -1.4178121225040753e-32 2.1932738787566687e-17 6.00221511856086" Properties=species:S:1:pos:R:3 cutoff=-1.0 nneightol=1.2 n_minim_iter=3 stress="-0.11291520411004712 -4.382611914502896e-17 1.1041726742431148e-16 -4.382611914502896e-17 -0.1129152041100496 6.921182100921452e-17 1.1041726742431148e-16 6.921182100921452e-17 -0.11290897626467002" pbc="T T T"
Si       1.79950475       1.03894455       0.38095622
Si       1.79950475      -1.03894455       3.38206378
Si       1.79950475       1.03894455       2.62015134
Si       1.79950475      -1.03894455      -0.38095622
