4
Lattice="4.250634276730445 0.0 0.0 0.0 4.250634276730445 0.0 0.0 0.0 4.250634276730445" Properties=species:S:1:pos:R:3 n_minim_iter=1 stress="0.06266933560426705 -1.4196007041704244e-18 1.536353477884958e-17 -1.4196007041704244e-18 0.06266933560426706 7.338948622622968e-18 1.536353477884958e-17 7.338948622622968e-18 0.06266933560426723" pbc="T T T"
Al       0.00000000       0.00000000       0.00000000
Al       2.12531714       2.12531714       0.00000000
Al       2.12531714       0.00000000       2.12531714
Al       0.00000000       2.12531714       2.12531714
