4
Lattice="4.190758212686589 0.0 0.0 0.0 4.190758212686589 0.0 0.0 0.0 4.190758212686589" Properties=species:S:1:pos:R:3 n_minim_iter=1 stress="0.04843704734080961 -1.41808204749688e-17 7.713742652049155e-18 -1.41808204749688e-17 0.048437047340809655 -2.209412574417161e-18 7.713742652049155e-18 -2.209412574417161e-18 0.048437047340809655" pbc="T T T"
Al       0.00000000       0.00000000       0.00000000
Al       2.09537911       2.09537911       0.00000000
Al       2.09537911       0.00000000       2.09537911
Al       0.00000000       2.09537911       2.09537911
