4
Lattice="4.250634276730445 0.0 0.0 0.0 4.250634276730445 0.0 0.0 0.0 4.250634276730445" Properties=species:S:1:pos:R:3 n_minim_iter=1 stress="0.05885084781996122 3.0947690559777112e-18 -4.334034365378885e-18 3.0947690559777112e-18 0.0588508478199612 -3.876557703295459e-18 -4.334034365378885e-18 -3.876557703295459e-18 0.05885084781996153" pbc="T T T"
Al       0.00000000       0.00000000       0.00000000
Al       2.12531714       2.12531714       0.00000000
Al       2.12531714       0.00000000       2.12531714
Al       0.00000000       2.12531714       2.12531714
