4
Lattice="4.129120461825467 0.0 0.0 0.0 4.129120461825467 0.0 0.0 0.0 4.129120461825467" Properties=species:S:1:pos:R:3 n_minim_iter=1 stress="0.04185099617321772 2.959226022017522e-17 -5.869348296644602e-18 2.959226022017522e-17 0.04185099617321772 -1.0567047033968524e-17 -5.869348296644602e-18 -1.0567047033968524e-17 0.04185099617321772" pbc="T T T"
Al       0.00000000       0.00000000       0.00000000
Al       2.06456023       2.06456023       0.00000000
Al       2.06456023       0.00000000       2.06456023
Al       0.00000000       2.06456023       2.06456023
