4
Lattice="3.7132710668902233 0.0 0.0 0.0 3.7132710668902233 0.0 0.0 0.0 3.7132710668902233" Properties=species:S:1:pos:R:3 n_minim_iter=1 stress="-0.17781060074108399 1.760497782265927e-17 1.2371314276557427e-18 1.760497782265927e-17 -0.17781060074108412 2.1006417091906645e-18 1.2371314276557427e-18 2.1006417091906645e-18 -0.17781060074108346" pbc="T T T"
Al       0.00000000       0.00000000       0.00000000
Al       1.85663553       1.85663553       0.00000000
Al       1.85663553       0.00000000       1.85663553
Al       0.00000000       1.85663553       1.85663553
