4
Lattice="4.065585427259415 0.0 0.0 0.0 4.065585427259415 0.0 0.0 0.0 4.065585427259415" Properties=species:S:1:pos:R:3 n_minim_iter=1 stress="0.03232770354311713 -3.716217502573581e-18 7.448603194722238e-19 -3.716217502573581e-18 0.03232770354311714 -4.444755495068886e-18 7.448603194722238e-19 -4.444755495068886e-18 0.03232770354311729" pbc="T T T"
Al       0.00000000       0.00000000       0.00000000
Al       2.03279271       2.03279271       0.00000000
Al       2.03279271       0.00000000       2.03279271
Al       0.00000000       2.03279271       2.03279271
