12
Lattice="5.166611030245811 -0.0002331801617050299 -0.0001005271186756391 -0.00023379580159906295 5.166585839966324 -2.6519066277028145e-05 -0.00010597850666814214 -3.9365243148215815e-05 6.1929508248590075" Properties=species:S:1:pos:R:3:forces:R:3 cutoff=-1.0 nneightol=1.2 n_minim_iter=1 energy=-1950.4915170410698 stress="-0.24065858956598102 -1.8008120601031133e-05 -2.8729211948277572e-05 -1.8008120601031133e-05 -0.2406754258602523 -1.0790442829083115e-05 -2.8729211948277572e-05 -1.0790442829083115e-05 -0.24235000641995935" free_energy=-1950.4915170410698 pbc="T T T"
Si       0.44155971       0.44161534       0.00002229       0.02147963       0.01908519      -0.00152343
Si      -0.44166214      -0.44154920       3.09645554      -0.01931889      -0.02236606       0.00149238
Si       2.14153076       3.02472738       4.64465926      -0.02325271       0.02323160       0.00017923
Si       3.02480870       2.14150074       1.54814735       0.02087627      -0.02009038       0.00034321
Si       0.77099612       3.42002275       0.17367978       0.05903420      -0.01603702       0.23216463
Si       0.83667252       1.81210459       1.72183548      -0.01742847      -0.05810711       0.23582539
Si       1.74626006       4.39534908       2.92270822       0.01693809      -0.05880745      -0.23288686
Si       1.81205169       0.83674976       4.47101055      -0.05895165      -0.01977930      -0.23374809
Si       3.35424891       4.32967530       1.37448756       0.05743915       0.01611186      -0.23415899
Si       3.42009718       0.77098101      -0.17367508      -0.01803582       0.05875625      -0.23533822
Si       4.32951318       3.35419876       4.81829316       0.01957047       0.05870285       0.23309325
Si       4.39533256       1.74621066       3.27001938      -0.05835027       0.01929957       0.23455750
12
Lattice="5.143708902838162 0.0004905982425524766 0.0010591786401827406 0.0004900148249831744 5.144359434827066 0.00040920635806800077 0.0012856484144484028 0.0004834159075076215 6.247401017419615" Properties=species:S:1:pos:R:3:forces:R:3 cutoff=-1.0 nneightol=1.2 n_minim_iter=2 energy=-1950.5038273572331 stress="-0.24056304495424477 4.7521569661656905e-05 0.0003093197218540081 4.7521569661656905e-05 -0.24030580922189634 0.00011696549809852005 0.0003093197218540081 0.00011696549809852005 -0.2288185322825068" free_energy=-1950.5038273572331 pbc="T T T"
Si       0.44067355       0.44067430       0.00008672       0.17680956       0.17927094       0.00797242
Si      -0.43997843      -0.44050131       3.12361476      -0.18352475      -0.17492483      -0.00594193
Si       2.13241209       3.01349827       4.68624115      -0.17307331       0.17162626      -0.00398333
Si       3.01302873       2.13189797       1.56263580       0.17907357      -0.17514478       0.00170032
Si       0.77087212       3.40468022       0.18672261       0.10236270      -0.15198079       0.13497159
Si       0.83278731       1.80184161       1.74854252      -0.15037297      -0.11195431       0.12531757
Si       1.74058384       4.37416716       2.93808086       0.15255388      -0.10653277      -0.12846053
Si       1.80236829       0.83285012       4.49966913      -0.10284414      -0.14934497      -0.13656961
Si       3.34299143       4.31239109       1.37654363       0.11546824       0.15073211      -0.13169514
Si       3.40415620       0.77088812      -0.18557321      -0.15573010       0.10988686      -0.13629535
Si       4.31279572       3.34354112       4.87301069       0.15321864       0.10634033       0.13679199
Si       4.37408916       1.74049688       3.31107186      -0.11394130       0.15202595       0.13619201
12
Lattice="5.164108740468286 0.0024641163727623797 -0.0035411238307075364 0.002463275410610478 5.1595529290908555 -0.0013449471567003996 -0.004229862517837871 -0.0016198344418287098 6.204401975131212" Properties=species:S:1:pos:R:3:forces:R:3 cutoff=-1.0 nneightol=1.2 n_minim_iter=3 energy=-1950.5630240024757 stress="-0.2123866118748084 0.0001780057568138382 -0.0009407628041599882 0.0001780057568138382 -0.21401605674109975 -0.0003671571893847477 -0.0009407628041599882 -0.0003671571893847477 -0.210642740041285" free_energy=-1950.5630240024757 pbc="T T T"
Si       0.45438223       0.45347085      -0.00050528       0.04291278       0.06602658      -0.02154557
Si      -0.45620612      -0.45493781       3.10277965      -0.03840884      -0.05186771       0.00753220
Si       2.12584083       3.03360903       4.65094755      -0.02564477       0.03867199       0.01651736
Si       3.03614142       2.12743898       1.54860716       0.02092593      -0.05323657      -0.00557897
Si       0.79259560       3.40540053       0.24254734       0.21331519       0.13981805      -0.01705746
Si       0.82535800       1.78916084       1.79459396       0.16633559      -0.18578524      -0.01421457
Si       1.75639608       4.36911995       2.85593827      -0.15609919      -0.19877310      -0.00909222
Si       1.78832206       0.82416619       4.40742573      -0.21714031       0.17770275       0.04533305
Si       3.37443909       4.33550200       1.30330584       0.17791994      -0.14887254       0.03291512
Si       3.40798893       0.79232297      -0.24734814       0.18512675       0.18509457       0.04524395
Si       4.33728097       3.37105173       4.89372545      -0.19594794       0.20524919      -0.03239481
Si       4.37128660       1.75649070       3.34336102      -0.17329514      -0.17402797      -0.04765809
12
Lattice="5.161124428196916 0.0005116473480107708 0.008488496478882546 0.0005117840893384265 5.177354759836614 0.0033551894093919 0.010189409581447212 0.004014470725599029 6.186658670513954" Properties=species:S:1:pos:R:3:forces:R:3 cutoff=-1.0 nneightol=1.2 n_minim_iter=4 energy=-1950.5707373560515 stress="-0.21263882203575382 2.9174381967600055e-05 0.0023208056577479316 2.9174381967600055e-05 -0.2068708900876841 0.0009063408543123692 0.0023208056577479316 0.0009063408543123692 -0.2091136687558499" free_energy=-1950.5707373560515 pbc="T T T"
Si       0.45590570       0.45710879       0.00062275       0.01622795      -0.00867201       0.07697857
Si      -0.45040613      -0.45563591       3.09257357      -0.06366394       0.03916566      -0.02875750
Si       2.13253992       3.04943343       4.64560074      -0.01314499      -0.03725504      -0.04520087
Si       3.03879961       2.13296795       1.55311444       0.05959185       0.01124067      -0.00521607
Si       0.79690679       3.41815116       0.25444055       0.12214859       0.21209872       0.00475523
Si       0.82982141       1.79158336       1.80077492       0.17952998      -0.18882423      -0.10306376
Si       1.75906930       4.38084296       2.84779646      -0.18216905      -0.15265943       0.09111413
Si       1.79167847       0.83186620       4.39246729      -0.11813987       0.21207422      -0.02701190
Si       3.37880749       4.34915320       1.30393098       0.21507756      -0.20281559       0.00473006
Si       3.40682090       0.79861581      -0.24530415       0.14757673       0.17730492       0.03437855
Si       4.34309297       3.39086094       4.90034133      -0.15453454       0.14329043      -0.02068772
Si       4.37099698       1.76244927       3.35282356      -0.20850027      -0.20494832       0.01798131
12
Lattice="5.20596969549726 -0.006444153127064811 0.00680200336500424 -0.006445546460861112 5.187767745038432 0.0026716708320891585 0.008165716768635596 0.003194803255712439 6.121057069968146" Properties=species:S:1:pos:R:3:forces:R:3 cutoff=-1.0 nneightol=1.2 n_minim_iter=5 energy=-1950.5947983972092 stress="-0.19575719598461913 -0.0005335392348351504 0.0018335783714275749 -0.0005335392348351504 -0.2018916371221237 0.0007349949803248557 0.0018335783714275749 0.0007349949803248557 -0.20119469259648567" free_energy=-1950.5947983972092 pbc="T T T"
Si       0.46637077       0.46490290       0.00087916      -0.17055856      -0.10032789       0.00952658
Si      -0.46248692      -0.46280236       3.05983717       0.14880994       0.09741820      -0.06487168
Si       2.13904259       3.05797860       4.59515303       0.13002574      -0.05598632       0.00941309
Si       3.06869924       2.12609120       1.53512230      -0.10423567       0.05905441       0.04739524
Si       0.82044171       3.43171819       0.27770088      -0.00387541       0.21905907      -0.03947625
Si       0.84240037       1.77262045       1.80600446       0.22929808      -0.04274810       0.05634071
Si       1.75957635       4.36578018       2.79056612      -0.26059708      -0.01896916      -0.02191454
Si       1.78322388       0.83986979       4.31936191       0.01568595       0.16268824      -0.01297564
Si       3.42325790       4.34507161       1.26274168       0.06103062      -0.18486472       0.01683687
Si       3.44386214       0.81663322      -0.26859934       0.21542404       0.04059406      -0.09527912
Si       4.36559039       3.41243883       4.87205586      -0.19590709       0.00132578       0.10462393
Si       4.38438804       1.75069197       3.34130197      -0.06510057      -0.17724356      -0.00961918
12
Lattice="5.20360819710534 -0.005631336449194297 -0.01277733084918687 -0.005631124459600876 5.2222027352916705 -0.005150437733296179 -0.015304135863612664 -0.006182735530359638 6.083483811860547" Properties=species:S:1:pos:R:3:forces:R:3 cutoff=-1.0 nneightol=1.2 n_minim_iter=6 energy=-1950.604372189917 stress="-0.19664355770448963 -0.00046556237669258553 -0.0031926121485239285 -0.00046556237669258553 -0.1907150048078271 -0.0012791315334097048 -0.0031926121485239285 -0.0012791315334097048 -0.1944829522461086" free_energy=-1950.604372189917 pbc="T T T"
Si       0.46858075       0.47148429      -0.00117881      -0.09308301      -0.22349821      -0.05720974
Si      -0.47708145      -0.47343834       3.04271070       0.17298940       0.16892565       0.11361543
Si       2.11862332       3.07448855       4.55432889       0.05674638      -0.13784674       0.00440213
Si       3.06475956       2.13486403       1.51129482      -0.12960537       0.18634569      -0.05677457
Si       0.83189548       3.46140757       0.28157850      -0.00152385       0.20807930       0.09584162
Si       0.84298074       1.76871409       1.80287423       0.12785547       0.09439134       0.11562335
Si       1.74110820       4.37812716       2.74618135      -0.14635161       0.04009164      -0.06186166
Si       1.75371049       0.84665060       4.27093370       0.00034452       0.17406669      -0.08870586
Si       3.43088067       4.36556021       1.22193402      -0.13541696      -0.20659845      -0.15354200
Si       3.45104118       0.83589109      -0.29536628       0.17857540      -0.06780151      -0.00739714
Si       4.33778744       3.44086311       4.83538733      -0.14872754      -0.02715983      -0.01010895
Si       4.35673036       1.75042235       3.31535988       0.11819716      -0.20899558       0.10611737
12
Lattice="5.2728597271624205 0.010466435432277297 0.005957362341805047 0.010465808891815087 5.273667788545327 0.002410336659281008 0.007148347970341292 0.002879602718524905 5.944980800022395" Properties=species:S:1:pos:R:3:forces:R:3 cutoff=-1.0 nneightol=1.2 n_minim_iter=7 energy=-1950.6427309229548 stress="-0.17758116730104548 0.000732408232180917 0.0012742306033698123 0.000732408232180917 -0.17748444903908042 0.00041309432175841253 0.0012742306033698123 0.00041309432175841253 -0.16713470368541047" free_energy=-1950.6427309229548 pbc="T T T"
Si       0.48240026       0.48324624       0.00076575      -0.16846363      -0.17640207       0.03306958
Si      -0.47928833      -0.48037431       2.97169862       0.15629830       0.14899875      -0.03005091
Si       2.16613559       3.12502994       4.46279725       0.22538047      -0.21551912      -0.02033461
Si       3.12491209       2.16060926       1.49032120      -0.21122424       0.24012275       0.02482994
Si       0.89781943       3.52832830       0.33481928      -0.33376612       0.05480860       0.20441014
Si       0.89497777       1.74959572       1.81969973       0.07486179       0.27687869       0.16933521
Si       1.75840384       4.38824423       2.64437715      -0.04109612       0.30963715      -0.18675438
Si       1.75287040       0.89620590       4.12917543       0.32934310       0.05090681      -0.20165737
Si       3.53623300       4.39238254       1.15995822      -0.26705268      -0.08590948      -0.16056065
Si       3.52846709       0.89669157      -0.32573781       0.00528311      -0.29595803      -0.26101884
Si       4.39508883       3.53800771       4.79737793      -0.04243243      -0.31418915       0.19707989
Si       4.39077528       1.75566224       3.30899936       0.27286844       0.00662508       0.23165199
12
Lattice="5.2974190693823395 0.013533983057804228 0.008262932094598413 0.013533204786962757 5.295034759338895 0.0035443539436550717 0.009910449607376092 0.004238532884493672 5.893565060659931" Properties=species:S:1:pos:R:3:forces:R:3 cutoff=-1.0 nneightol=1.2 n_minim_iter=8 energy=-1950.652132059752 stress="-0.17195547586406423 0.0009263724974334068 0.0016474919853501904 0.0009263724974334068 -0.172709611551066 0.000580825329685161 0.0016474919853501904 0.000580825329685161 -0.160580170507464" free_energy=-1950.652132059752 pbc="T T T"
Si       0.48681193       0.48726298       0.00103881      -0.19312323      -0.18321435       0.04340206
Si      -0.48225726      -0.48367247       2.94575446       0.17000349       0.15994210      -0.04948623
Si       2.17800870       3.14191232       4.42586530       0.26457898      -0.24238555      -0.02145549
Si       3.14344025       2.16946369       1.47922389      -0.23952690       0.26201975       0.03582372
Si       0.91738032       3.55216943       0.35154462      -0.41617602       0.02272766       0.20098040
Si       0.90967167       1.74461947       1.82327525       0.05640291       0.34388761       0.15249431
Si       1.76137225       4.39449980       2.60482022      -0.01449563       0.38656435      -0.18654908
Si       1.75032210       0.91058545       4.07593613       0.41258297       0.02958487      -0.19319874
Si       3.56866622       4.40374293       1.13390504      -0.32966714      -0.05813146      -0.13296628
Si       3.55416055       0.91532659      -0.33937067      -0.02412348      -0.37073054      -0.26675651
Si       4.41101686       3.56899653       4.77706104      -0.02530807      -0.39571050       0.19616675
Si       4.40076479       1.75701038       3.30102511       0.33885212       0.04544607       0.22154508
12
Lattice="5.3880264005652085 0.01721638467246079 0.02033162190755975 0.01721445568165154 5.35959433487511 0.00948394528112759 0.02437171765727895 0.011357270766483175 5.724774046478406" Properties=species:S:1:pos:R:3:forces:R:3 cutoff=-1.0 nneightol=1.2 n_minim_iter=9 energy=-1950.7083611160808 stress="-0.16396163288408444 0.001148196349054561 0.0039579844187938515 0.001148196349054561 -0.17104995173141158 0.0017713434854077512 0.0039579844187938515 0.0017713434854077512 -0.15635842524625485" free_energy=-1950.7083611160808 pbc="T T T"
Si       0.48862738       0.48513634       0.00241420      -0.26846161      -0.11601591       0.08922532
Si      -0.47593215      -0.47940674       2.86027076       0.16919389       0.15449123      -0.17032701
Si       2.23468350       3.17998601       4.30761804       0.34826773      -0.24480945      -0.00893060
Si       3.19498772       2.20793197       1.44659296      -0.25908504       0.20938683       0.09347085
Si       0.94763630       3.62059035       0.37549796      -0.61071230      -0.10682744       0.05239448
Si       0.95384257       1.75771312       1.80366724      -0.02922251       0.46754619      -0.02456577
Si       1.77729969       4.44109102       2.51155877       0.06594655       0.55942539      -0.07445625
Si       1.77962260       0.95048351       3.93612292       0.61828725      -0.06155777      -0.04764221
Si       3.64585318       4.43718845       1.08666723      -0.42604111       0.09822773       0.10313917
Si       3.63724416       0.93948946      -0.34861716      -0.10513894      -0.53609133      -0.13936794
Si       4.47774526       3.63203206       4.68184675       0.03544331      -0.59823600       0.12116574
Si       4.47426682       1.76292577       3.24692137       0.46152278       0.17446054       0.00589420
12
Lattice="5.520169654349539 0.016757460006488964 0.03801984490407929 0.016753418088942713 5.443888519584826 0.01723956848022483 0.04556704829522713 0.02065276278635189 5.50147730354006" Properties=species:S:1:pos:R:3:forces:R:3 cutoff=-1.0 nneightol=1.2 n_minim_iter=10 energy=-1950.8461387717625 stress="-0.1603989114066274 0.0011482531156574202 0.008710919623137392 0.0011482531156574202 -0.17995882735539304 0.004285520297874515 0.008710919623137392 0.004285520297874515 -0.16683359606378387" free_energy=-1950.8461387717625 pbc="T T T"
Si       0.47521325       0.46448202       0.00408219      -0.25739234       0.15501463       0.14525963
Si      -0.45005324      -0.45756851       2.74738328       0.02665686       0.01568440      -0.35760333
Si       2.32967733       3.21115158       4.15180945       0.33132221      -0.08584041       0.01695012
Si       3.25157735       2.27291517       1.40458766      -0.12452438      -0.07004877       0.18529334
Si       0.94905671       3.70516162       0.37069036      -0.67563890      -0.32515034      -0.13481327
Si       1.00883843       1.81005861       1.74190584      -0.17397896       0.45635550      -0.23945477
Si       1.80374633       4.53672682       2.42534472       0.17893292       0.60697327       0.05929957
Si       1.86019516       0.99603928       3.78831476       0.70667246      -0.21012781       0.13377530
Si       3.71531313       4.48066215       1.06185101      -0.35992816       0.37926827       0.39086127
Si       3.74891880       0.93101257      -0.32396533      -0.20965470      -0.58816126       0.05088035
Si       4.57921894       3.67320877       4.52005238       0.11815655      -0.69322275       0.06031872
Si       4.61796489       1.77231725       3.14088860       0.43937643       0.35925526      -0.31076693
12
Lattice="5.5798528636400375 0.011447326763100087 0.0408904221075623 0.011442286981480037 5.481766538441307 0.016325058499275128 0.049004751890462696 0.01955606230196851 5.405042481471163" Properties=species:S:1:pos:R:3:forces:R:3 cutoff=-1.0 nneightol=1.2 n_minim_iter=11 energy=-1950.981979963772 stress="-0.162070301760639 0.0006048338693683417 0.009480774565042033 0.0006048338693683417 -0.18871189049868914 0.00444188153184536 0.009480774565042033 0.00444188153184536 -0.16820117539883417" free_energy=-1950.981979963772 pbc="T T T"
Si       0.45839390       0.44415320       0.00377541      -0.09415987       0.43981882       0.12277986
Si      -0.43038609      -0.44026258       2.69970532      -0.17086767      -0.19213664      -0.37753919
Si       2.37562347       3.20879872       4.08003792       0.13753087       0.17250315       0.03273332
Si       3.26260621       2.30892169       1.38200299       0.08919738      -0.38702218       0.20519436
Si       0.91930815       3.73646165       0.34713506      -0.45084801      -0.36001747      -0.13123397
Si       1.02400148       1.85644792       1.69554168      -0.11744839       0.22874526      -0.16634173
Si       1.81501967       4.60159090       2.40097082       0.12138470       0.36455085       0.00279245
Si       1.91802337       1.00529932       3.73982811       0.47750834      -0.21181080       0.12136925
Si       3.71538722       4.50107355       1.06197844      -0.09489990       0.42534476       0.32360316
Si       3.79262224       0.89819763      -0.30006529      -0.14054121      -0.33973391      -0.01851030
Si       4.62249943       3.65717888       4.42514560       0.07099427      -0.44431756       0.17750261
Si       4.70389808       1.77621074       3.07271253       0.17214950       0.30407572      -0.29234983
12
Lattice="5.587105530785656 0.006804558619731809 0.010176939864344163 0.006802421991153964 5.55741403567339 -0.002334936034292153 0.012187383925014464 -0.0028133846237062814 5.3241462195626275" Properties=species:S:1:pos:R:3:forces:R:3 cutoff=-1.0 nneightol=1.2 n_minim_iter=12 energy=-1951.0762340332933 stress="-0.17387494150663302 0.00022850145272400608 0.0023276826641381657 0.00022850145272400608 -0.18317317226598073 -0.00018950307419281776 0.0023276826641381657 -0.00018950307419281776 -0.17379071679513405" free_energy=-1951.0762340332933 pbc="T T T"
Si       0.44402216       0.43784408      -0.00011748       0.18681703       0.37277740      -0.00976658
Si      -0.43591237      -0.44370211       2.66307098      -0.28152325      -0.25442341      -0.08333908
Si       2.36331763       3.22016674       3.99552260      -0.17645458       0.26837779       0.00740590
Si       3.24166329       2.34514011       1.33642284       0.21722365      -0.34175062       0.06943627
Si       0.87918259       3.78225128       0.31040080      -0.12869422      -0.11106436      -0.04002649
Si       1.00949123       1.90871341       1.64317876       0.03957679       0.09163170      -0.06307352
Si       1.80038709       4.68864822       2.35523769       0.00398597       0.07225411      -0.01027503
Si       1.93038633       0.99971178       3.68470753       0.10373707      -0.00812961       0.08347888
Si       3.67575226       4.55955958       1.02557735      -0.01814831       0.09967259       0.08421980
Si       3.79648799       0.87307831      -0.30360497       0.03184356      -0.10325673      -0.00418232
Si       4.59733448       3.64948907       4.30647257      -0.01552950      -0.05026515       0.09387166
Si       4.72227030       1.78753226       2.98099934       0.03716579      -0.03582371      -0.12774950
12
Lattice="5.571876102352333 0.0031618735930436033 -0.0056515375855509045 0.0031616498179133324 5.578445972963666 0.006683984129304919 -0.006784678373654207 0.007996210902893949 5.318557382160078" Properties=species:S:1:pos:R:3:forces:R:3 cutoff=-1.0 nneightol=1.2 n_minim_iter=13 energy=-1951.0897941674934 stress="-0.17882618944189274 -2.5074633763753467e-05 -0.0015116406585901577 -2.5074633763753467e-05 -0.17831451450718522 0.0019974567201063343 -0.0015116406585901577 0.0019974567201063343 -0.17707525631590834" free_energy=-1951.0897941674934 pbc="T T T"
Si       0.44633342       0.44504384      -0.00076430       0.20418374       0.23423485       0.00395817
Si      -0.44916828      -0.44330654       2.66066209      -0.17689230      -0.12246730      -0.01824018
Si       2.33697464       3.24281922       3.98972391      -0.19988619       0.14645609       0.07359110
Si       3.23053163       2.34938088       1.32988025       0.16706972      -0.22555215      -0.07082084
Si       0.86848153       3.79335579       0.31128571      -0.04561626       0.04263286       0.00155888
Si       0.99848660       1.92321903       1.63795597       0.06559029       0.05496316      -0.01069553
Si       1.78614493       4.71387352       2.35821688      -0.07518870       0.12782662      -0.06153377
Si       1.91554952       1.00865998       3.68022593       0.04589713       0.07171687      -0.02520217
Si       3.65573528       4.57936168       1.02431927      -0.09352348      -0.07521568      -0.01553207
Si       3.78566598       0.86859088      -0.30918796       0.08333381      -0.02846495       0.02700045
Si       4.56854761       3.66574710       4.29250834      -0.08936428      -0.08954148       0.06065995
Si       4.70137484       1.79727679       2.96384436       0.11439652      -0.13658889       0.03525601
12
Lattice="5.5672966500683705 0.000417342511714847 -0.0030787649316079825 0.0004178757901150493 5.602137318143679 -0.020020404855960173 -0.0037025094781894196 -0.024013199807634725 5.300491410197469" Properties=species:S:1:pos:R:3:forces:R:3 cutoff=-1.0 nneightol=1.2 n_minim_iter=14 energy=-1951.0975446931673 stress="-0.18246771710525192 -0.00023631017554384085 -0.0008299569098274238 -0.00023631017554384085 -0.17436589826765123 -0.0046937014879792835 -0.0008299569098274238 -0.0046937014879792835 -0.18168724237269018" free_energy=-1951.0975446931673 pbc="T T T"
Si       0.45201263       0.45556801      -0.00259378       0.14078553      -0.00797758      -0.06762743
Si      -0.45410755      -0.46558531       2.65298020      -0.11392503      -0.11592097       0.12006219
Si       2.32978510       3.23668574       3.96257427      -0.15995991       0.12608210      -0.08831986
Si       3.23330941       2.34160340       1.31498932       0.13527855      -0.01426422       0.03365428
Si       0.86116924       3.80717397       0.29137892      -0.11175551       0.17379133       0.13859891
Si       0.99977529       1.92578660       1.62122148       0.14496713       0.19884224       0.06049727
Si       1.78209611       4.72472177       2.32920363      -0.10780542       0.01472453      -0.00342396
Si       1.92014944       0.99218717       3.66513522       0.06697390       0.18004407      -0.05298153
Si       3.64658789       4.58995526       1.00198807      -0.14590720      -0.17495863      -0.15441048
Si       3.78451580       0.86785893      -0.30828721       0.15537096      -0.17745810      -0.04664687
Si       4.56301384       3.64844165       4.26237359      -0.09418340      -0.00410722      -0.00188543
Si       4.70360414       1.78031669       2.94575178       0.09016040      -0.19879756       0.06248290
12
Lattice="5.607248229711409 0.0022432689829337766 -0.017678130677894432 0.0022451996792371043 5.64713341092074 0.03694993569506762 -0.021201315021260034 0.04427296943221054 5.221063218462956" Properties=species:S:1:pos:R:3:forces:R:3 cutoff=-1.0 nneightol=1.2 n_minim_iter=15 energy=-1951.1395483186384 stress="-0.1844303912924814 -0.00015751664537106745 -0.004331578231490309 -0.00015751664537106745 -0.1750617998466563 0.009284510675392363 -0.004331578231490309 0.009284510675392363 -0.19342848285629954" free_energy=-1951.1395483186384 pbc="T T T"
Si       0.48155554       0.49084124      -0.00059488       0.08565790      -0.09392115       0.14423210
Si      -0.49490526      -0.45759366       2.60903187       0.11741591       0.03948844      -0.04299362
Si       2.30833572       3.34036256       3.93085689      -0.03873715      -0.13145183       0.19647032
Si       3.27845959       2.34844902       1.31075218       0.00075793       0.05421528      -0.26512330
Si       0.83577975       3.85866620       0.32840143      -0.03511365       0.47552749      -0.03321955
Si       1.02663341       1.99668597       1.61353350       0.12679642      -0.04622443       0.08771771
Si       1.76767087       4.82295576       2.33374885      -0.30100519       0.36942913      -0.12876593
Si       1.95035281       1.07327956       3.61333726       0.16090223       0.19356939      -0.19413155
Si       3.64166698       4.62168565       1.01997805      -0.24053577      -0.44933250      -0.04563838
Si       3.83869301       0.84000832      -0.30661726       0.13988430       0.06485169       0.02200725
Si       4.56045660       3.70925773       4.23097804      -0.29757063      -0.39217400      -0.04575920
Si       4.75736220       1.80151341       2.90773757       0.28154769      -0.08397750       0.30520416
12
Lattice="5.677138170696504 0.006895019279004566 0.00577747763505589 0.0068944844872892 5.665382117639981 0.03780264572117597 0.006910718530117834 0.04529569640541173 5.140142259527189" Properties=species:S:1:pos:R:3:forces:R:3 cutoff=-1.0 nneightol=1.2 n_minim_iter=16 energy=-1951.3107096208628 stress="-0.18057627234349147 -9.248123150061997e-05 0.0017408587489181246 -9.248123150061997e-05 -0.18414635919472938 0.008748960622580645 0.0017408587489181246 0.008748960622580645 -0.19749632686820312" free_energy=-1951.3107096208628 pbc="T T T"
Si       0.56430721       0.57610717      -0.00013232      -0.12671782      -0.27104456       0.22086612
Si      -0.56355335      -0.52734950       2.56319083       0.19547104      -0.18264780      -0.17089413
Si       2.28743416       3.42436211       3.88516277       0.11682288      -0.06247645       0.07742635
Si       3.40058503       2.27786651       1.30272767      -0.02758050       0.15679204      -0.05470253
Si       0.74984792       3.92942692       0.33887221      -0.05454637       0.77274635      -0.18148985
Si       1.11595031       2.10725443       1.59566265       0.25060970      -0.25844528       0.20864236
Si       1.74400344       4.94224500       2.29437004      -0.44804608       0.19924611      -0.02178576
Si       2.09094163       1.14599073       3.55923216       0.23492750       0.19551698      -0.14668447
Si       3.59690613       4.57663639       1.01038286      -0.05763309      -0.52793141       0.19253688
Si       3.95388407       0.74809247      -0.29199617       0.19769104       0.12422022      -0.07992820
Si       4.57819797       3.63274055       4.20235947      -0.35728730      -0.41595257      -0.20224372
Si       4.93275697       1.73184355       2.88870861       0.07628899       0.26997637       0.15825695
12
Lattice="5.707493368791001 0.009166237200967877 0.01363421191705143 0.00916446942238196 5.677014637398881 0.0206893263580154 0.016325876846148998 0.024782836816778668 5.102156014779846" Properties=species:S:1:pos:R:3:forces:R:3 cutoff=-1.0 nneightol=1.2 n_minim_iter=17 energy=-1951.3986281278528 stress="-0.1771297345088502 7.879263866945454e-05 0.003366001015415427 7.879263866945454e-05 -0.18415531231264676 0.0032552911678990475 0.003366001015415427 0.0032552911678990475 -0.19115928293810242" free_energy=-1951.3986281278528 pbc="T T T"
Si       0.61839255       0.62924942      -0.00154058      -0.15594480      -0.28876371       0.15277749
Si      -0.61219575      -0.59024898       2.54288143       0.14209075      -0.29184663      -0.13138775
Si       2.25870342       3.46538938       3.85213304       0.08724201       0.06110782      -0.02886427