12
Lattice="5.530002178732497 -0.00026889922115779695 -0.0004075928813200788 -0.0002687723319526517 5.530140555982927 5.140007838968421e-05 -0.00047750531685435794 5.500930701436639e-05 6.666932333855865" Properties=species:S:1:pos:R:3:forces:R:3 cutoff=-1.0 nneightol=1.2 n_minim_iter=1 energy=-1955.6972472030682 stress="-0.05311665264681271 -4.097865520258472e-05 -0.00010709052414576303 -4.097865520258472e-05 -0.05306935053561453 1.3053410120998333e-05 -0.00010709052414576303 1.3053410120998333e-05 -0.053052609107960516" free_energy=-1955.6972472030682 pbc="T T T"
Si       0.44357987       0.44359443      -0.00002563       0.00991806       0.00893809      -0.00075242
Si      -0.44382135      -0.44356615       3.33349216      -0.00860547      -0.00879176       0.00094619
Si       2.32089227       3.20860813       5.00005405      -0.01096608       0.00983267       0.00099173
Si       3.20836728       2.32131910       1.66652183       0.00963478      -0.00998199      -0.00118806
Si       0.72347966       3.67338811      -0.03343455       0.01164766      -0.00266059       0.09872136
Si       0.90811936       2.04136096       1.63326490      -0.00365263      -0.00987985       0.09999662
Si       1.85619232       4.80639999       3.36679437       0.00338766      -0.01000293      -0.09997352
Si       2.04093842       0.90829860       5.03347423      -0.01115073      -0.00304703      -0.09910122
Si       3.48832076       4.62162936       1.69993572       0.00817144       0.00288285      -0.09930711
Si       3.67329468       0.72349793       0.03314891      -0.00258848       0.01042172      -0.09756893
Si       4.62114356       3.48856633       4.96647783       0.00285939       0.00956210       0.09770615
Si       4.80601143       1.85650904       3.29971072      -0.00865560       0.00272672       0.09952919
12
Lattice="5.53299897699291 0.003031263826907957 0.008217485600781336 0.0030312906586636417 5.529321108835573 -0.00099746503977746 0.009920350044528849 -0.0012092270973598459 6.664325781544711" Properties=species:S:1:pos:R:3:forces:R:3 cutoff=-1.0 nneightol=1.2 n_minim_iter=2 energy=-1955.701091503761 stress="-0.05141783752178624 0.0004620569464189009 0.0021885202211365763 0.0004620569464189009 -0.05266083936545248 -0.00026511153356263727 0.0021885202211365763 -0.00026511153356263727 -0.051893197106995574" free_energy=-1955.701091503761 pbc="T T T"
Si       0.44479411       0.44443220       0.00052938       0.00969775       0.03160500       0.01464471
Si      -0.43974283      -0.44502554       3.33164786      -0.03687675      -0.03522233      -0.01970695
Si       2.33108023       3.20927160       5.00118069       0.00191698       0.02329026      -0.01946509
Si       3.21477887       2.32186140       1.67035068       0.02528224      -0.02021605       0.02455682
Si       0.72685510       3.67309113      -0.02593942      -0.00754840      -0.00197857       0.06149549
Si       0.91212680       2.04058371       1.64079543       0.01669542      -0.02395385       0.03875495
Si       1.86554829       4.80544444       3.36032458      -0.01371719      -0.02576456      -0.03840514
Si       2.04962913       0.90821097       5.02744074       0.00180220       0.00294620      -0.05463224
Si       3.49619397       4.62291164       1.69674594       0.05900296       0.00018433      -0.05063988
Si       3.67557386       0.72632202       0.03176093      -0.00221741       0.01746598      -0.08776360
Si       4.63369192       3.49054732       4.97805912      -0.00053731       0.03056339       0.08559760
Si       4.81426346       1.85866946       3.31267019      -0.05350049       0.00108020       0.04556332
12
Lattice="5.531007983984561 0.00261487016574679 -0.0030873127119140737 0.0026152646773851774 5.535209446766615 0.0003604197278623121 -0.0037087360608131135 0.0004272642593808134 6.65961933644816" Properties=species:S:1:pos:R:3:forces:R:3 cutoff=-1.0 nneightol=1.2 n_minim_iter=3 energy=-1955.7046552908785 stress="-0.05114651564411662 0.00039988717952480954 -0.0008176640413217705 0.00039988717952480954 -0.04972167419686249 9.421517919299844e-05 -0.0008176640413217705 9.421517919299844e-05 -0.05043197535288" free_energy=-1955.7046552908785 pbc="T T T"
Si       0.44563465       0.44601510      -0.00020657       0.05135912       0.03566439      -0.00326257
Si      -0.44752440      -0.44580989       3.33000179      -0.04133454      -0.03430083       0.00936073
Si       2.31875662       3.21489207       4.99361014      -0.04143652       0.02459521       0.00493712
Si       3.21119127       2.32336376       1.66329671       0.03145161      -0.02566389      -0.01106071
Si       0.72740571       3.67667070      -0.01655668       0.05115656       0.01714134       0.00597561
Si       0.90809474       2.04192966       1.64813771       0.00846259      -0.04725035       0.00527214
Si       1.85784882       4.81005575       3.34548661      -0.00597982      -0.03983270      -0.00644780
Si       2.03751057       0.90999435       5.01002773      -0.05593433       0.01898587      -0.00732727
Si       3.49245556       4.62826249       1.67965350       0.03340797      -0.02000274      -0.00862068
Si       3.67388050       0.72797601       0.01433475       0.01193110       0.04266557       0.01197803
Si       4.62186172       3.49632872       4.97602597      -0.01452709       0.04484187      -0.01226711
Si       4.80431119       1.86136556       3.31084089      -0.02855667      -0.01684375       0.01146251
12
Lattice="5.535564665027475 -0.0016001271233063283 -0.0020799400883361385 -0.001600238291462079 5.531466441872696 0.0002776685895101225 -0.0024947671535403004 0.00032789743737829884 6.65863798693461" Properties=species:S:1:pos:R:3:forces:R:3 cutoff=-1.0 nneightol=1.2 n_minim_iter=4 energy=-1955.7050445045743 stress="-0.049404637316803925 -0.0002446262311086717 -0.0005491543477850283 -0.0002446262311086717 -0.05079245678945156 7.321269052726875e-05 -0.0005491543477850283 7.321269052726875e-05 -0.05024816042577324" free_energy=-1955.7050445045743 pbc="T T T"
Si       0.44622169       0.44587068      -0.00012271       0.02760509       0.03581952      -0.00713106
Si      -0.44749467      -0.44571403       3.32945915      -0.02086994      -0.03479685       0.00119445
Si       2.31866442       3.21127954       4.99324034      -0.03350892       0.04085003       0.00840600
Si       3.21282890       2.31891824       1.66357775       0.02685131      -0.04169876      -0.00248009
Si       0.72573167       3.67371134      -0.01473742       0.05107896       0.01346926      -0.01205073
Si       0.90764615       2.03926031       1.64971395       0.01772925      -0.04012217       0.00724620
Si       1.85629237       4.80481299       3.34356839      -0.01923481      -0.04106925      -0.00717121
Si       2.03883642       0.90785261       5.00791306      -0.04810424       0.01151339       0.01008468
Si       3.49266803       4.62234592       1.67823753       0.03302870      -0.01224522       0.00935380
Si       3.67639823       0.72521219       0.01331882       0.02316746       0.04324209       0.00521033
Si       4.62385228       3.49093905       4.97774722      -0.02177531       0.03825801      -0.00449013
Si       4.80695019       1.85631826       3.31294352      -0.03596756      -0.01322005      -0.00817224
12
Lattice="5.5326746122848505 -0.0036957473387139775 0.001748913911880489 -0.0036956287252623453 5.534390553456279 -0.00021101018647914606 0.0021214698763215227 -0.0002608008306039533 6.658598390064214" Properties=species:S:1:pos:R:3:forces:R:3 cutoff=-1.0 nneightol=1.2 n_minim_iter=5 energy=-1955.7054041715066 stress="-0.05007840958668174 -0.0005654782565723664 0.0004649651568345889 -0.0005654782565723664 -0.04949864688493351 -5.6870861936566184e-05 0.0004649651568345889 -5.6870861936566184e-05 -0.04991551913958083" free_energy=-1955.7054041715066 pbc="T T T"
Si       0.44658420       0.44672656       0.00011129       0.01961708       0.01752200       0.00481527
Si      -0.44550871      -0.44685819       3.32918399      -0.02529144      -0.01818883      -0.00234400
Si       2.31898013       3.21239448       4.99457512      -0.03342092       0.03192661      -0.00576473
Si       3.21210429       2.31803831       1.66556472       0.03909704      -0.03130591       0.00331886
Si       0.72486312       3.67555093      -0.01277625       0.03282144       0.02062964      -0.00707564
Si       0.90774482       2.03895956       1.65201790       0.01570484      -0.03227587      -0.01724865
Si       1.85563071       4.80549944       3.34253887      -0.01916230      -0.04063316       0.01844171
Si       2.03996377       0.90729909       5.00742674      -0.02599939       0.01761965       0.00728948
Si       3.49109800       4.62313343       1.67844593       0.03877454      -0.01702224       0.00798157
Si       3.67442527       0.72506954       0.01400275       0.01583413       0.03894276       0.00804502
Si       4.62334095       3.49147056       4.98240195      -0.01235503       0.03366128      -0.00724879
Si       4.80521498       1.85501672       3.31788929      -0.04561998      -0.02087594      -0.01021012
12
Lattice="5.533544436160271 0.0031766796808860498 0.0026471308016717396 0.003176807241864924 5.531933349285796 -0.00034141301600255404 0.003204480345045547 -0.0004185926169436088 6.660509008414265" Properties=species:S:1:pos:R:3:forces:R:3 cutoff=-1.0 nneightol=1.2 n_minim_iter=6 energy=-1955.7058693660267 stress="-0.04927603073556365 0.00048580934416775774 0.0007018755078645148 0.00048580934416775774 -0.049820456249852235 -9.064547299678507e-05 0.0007018755078645148 -9.064547299678507e-05 -0.04930688629083793" free_energy=-1955.7058693660267 pbc="T T T"
Si       0.44847994       0.44832766       0.00017556       0.01420475       0.02223160       0.00415872
Si      -0.44685406      -0.44853459       3.33008804      -0.02275556      -0.02339567      -0.00650917
Si       2.32273288       3.21511744       4.99630877      -0.00244677       0.01157313      -0.00576710
Si       3.21716886       2.31957107       1.66649657       0.01102210      -0.01049283       0.00813760
Si       0.73121882       3.67536366      -0.01086360       0.00956224       0.01127660      -0.01258057
Si       0.91117438       2.03754622       1.65447140       0.02001192      -0.02339560      -0.01904152
Si       1.86191164       4.80392627       3.34181503      -0.01701478      -0.02003105       0.01855803
Si       2.04062279       0.90981307       5.00727562      -0.01546128       0.01493345       0.01548599
Si       3.49924528       4.62487614       1.67749078       0.03465075      -0.01397765       0.01643746
Si       3.67643591       0.73098159       0.01273387       0.01204751       0.01727299       0.00282609
Si       4.62872784       3.49713736       4.98636248      -0.01498590       0.02564581      -0.00412198
Si       4.80716209       1.85954058       3.32146463      -0.02883498      -0.01164078      -0.01758353
12
Lattice="5.533438258075288 0.0012303242114704135 0.0009917019087793333 0.0012304603806292055 5.532904132186923 -6.554156057330464e-05 0.0012086357655154637 -8.592180373908219e-05 6.6594649552299305" Properties=species:S:1:pos:R:3:forces:R:3 cutoff=-1.0 nneightol=1.2 n_minim_iter=7 energy=-1955.706226899227 stress="-0.04933672844422687 0.00018829080940333323 0.00026452156189077434 0.00018829080940333323 -0.04951773097421053 -1.8131305035035825e-05 0.00026452156189077434 -1.8131305035035825e-05 -0.049664579910752835" free_energy=-1955.706226899227 pbc="T T T"
Si       0.44900812       0.44895781       0.00007128       0.00082931       0.00373554       0.00175822
Si      -0.44839642      -0.44899942       3.32966526      -0.00405035      -0.00400509      -0.00256316
Si       2.31940774       3.21578533       4.99498119       0.00370458      -0.00057200      -0.00208532
Si       3.21646280       2.31826335       1.66540580      -0.00049085       0.00077314       0.00289356
Si       0.73081053       3.67622132      -0.01138448       0.00314023       0.01241126      -0.00343839
Si       0.91043445       2.03673529       1.65353909       0.01554046      -0.00868296      -0.00589474
Si       1.85870509       4.80336538       3.34147458      -0.01437962      -0.00690911       0.00565237
Si       2.03784805       0.90998837       5.00642311      -0.00542621       0.01368561       0.00416789
Si       3.49800334       4.62406086       1.67690918       0.01270422      -0.01343799       0.00489627
Si       3.67657768       0.73072715       0.01213756       0.01246526       0.00631070      -0.00022326
Si       4.62543306       3.49730966       4.98389916      -0.01360238       0.00909581      -0.00019586
Si       4.80448801       1.85787054       3.31910137      -0.01043465      -0.01240491      -0.00496760
12
Lattice="5.532085749694326 0.00015414853530697857 0.0002439548652599609 0.00015426235326718523 5.531908467712482 -0.00014413254539506103 0.00030746691279233873 -0.00018065522784049216 6.662291468037212" Properties=species:S:1:pos:R:3:forces:R:3 cutoff=-1.0 nneightol=1.2 n_minim_iter=8 energy=-1955.706283694114 stress="-0.049630261232116585 2.3534113232271055e-05 6.657881556565686e-05 2.3534113232271055e-05 -0.04969086058334839 -3.9086338944118816e-05 6.657881556565686e-05 -3.9086338944118816e-05 -0.049239318754854065" free_energy=-1955.706283694114 pbc="T T T"
Si       0.44904935       0.44903464       0.00000940       0.00071193       0.00133220       0.00009060
Si      -0.44889562      -0.44912225       3.33113842      -0.00150541      -0.00185237      -0.00036688
Si       2.31732423       3.21490611       4.99673844      -0.00016668       0.00127395      -0.00079063
Si       3.21522401       2.31697505       1.66565075       0.00094142      -0.00080026       0.00106741
Si       0.73028287       3.67570277      -0.01172559       0.00223602       0.00643047      -0.00175027
Si       0.90988620       2.03578290       1.65389768       0.00730245      -0.00287502      -0.00244824
Si       1.85657673       4.80172038       3.34276260      -0.00714539      -0.00366263       0.00262644
Si       2.03612029       0.90964760       5.00844516      -0.00254459       0.00682701       0.00260643
Si       3.49641588       4.62223429       1.67727193       0.00439012      -0.00653309       0.00200924
Si       3.67581949       0.73025434       0.01181097       0.00663681       0.00257599       0.00095686
Si       4.62265844       3.49609335       4.98516270      -0.00674285       0.00394880      -0.00114922
Si       4.80212178       1.85627095       3.31964826      -0.00411381      -0.00666504      -0.00285174
