12
Lattice="5.481791277226814 0.0001527471074160005 0.00024173697099561214 0.00015285989061020297 5.481615606988562 -0.0001428221769980338 0.0003046716043174187 -0.0001790128166788001 6.601721829392647" Properties=species:S:1:pos:R:3:forces:R:3 cutoff=-1.0 nneightol=1.2 n_minim_iter=1 energy=-1955.3657635505097 stress="-0.0746874021619098 2.345253420794127e-05 6.977179984489772e-05 2.345253420794127e-05 -0.07475165629383769 -4.095080769239195e-05 6.977179984489772e-05 -4.095080769239195e-05 -0.07439852151082439" free_energy=-1955.3657635505097 pbc="T T T"
Si       0.44496686       0.44495228       0.00000931       0.02218962       0.02290067       0.00009645
Si      -0.44481452      -0.44503909       3.30085366      -0.02309019      -0.02348286      -0.00041556
Si       2.29625648       3.18567807       4.95131104      -0.02159096       0.02285856      -0.00087574
Si       3.18599308       2.29591047       1.65050763       0.02247870      -0.02231363       0.00119538
Si       0.72364357       3.64228544      -0.01161898       0.02048781      -0.00132470       0.10963265
Si       0.90161405       2.01727476       1.63886142      -0.00031340      -0.02120680       0.10886587
Si       1.83969783       4.75806596       3.31237217       0.00047645      -0.02207591      -0.10868584
Si       2.01760908       0.90137761       4.96291132      -0.02083709      -0.00086292      -0.10868432
Si       3.46462853       4.58021165       1.66202316       0.02287003       0.00122835      -0.10934900
Si       3.64240110       0.72361529       0.01170359      -0.00109440       0.02086259      -0.11051012
Si       4.58063195       3.46430892       4.93984054       0.00099186       0.02238293       0.11029719
Si       4.75846371       1.83939483       3.28946797      -0.02256843       0.00103371       0.10843303
12
Lattice="5.487613030479517 -0.0016728300284010805 -0.00517364345723767 -0.0016727970016357989 5.492433944469168 0.003037439798570436 -0.006215913862547082 0.003650306136010988 6.581737109519185" Properties=species:S:1:pos:R:3:forces:R:3 cutoff=-1.0 nneightol=1.2 n_minim_iter=2 energy=-1955.3704823172286 stress="-0.07267143633516233 -0.00026132658423271574 -0.0014490428300870412 -0.00026132658423271574 -0.07094466084506612 0.0008494788971663577 -0.0014490428300870412 0.0008494788971663577 -0.07601604402313861" free_energy=-1955.3704823172286 pbc="T T T"
Si       0.44687732       0.44732069      -0.00016587       0.00959483      -0.00889036      -0.00145316
Si      -0.45004964      -0.44553449       3.29101379       0.00978767       0.02025748       0.00987182
Si       2.29119902       3.19570920       4.93584275      -0.01634250      -0.01357817       0.01745345
Si       3.18858950       2.29874042       1.64377881      -0.00310082       0.00220751      -0.02585047
Si       0.72466760       3.64913528      -0.00237995       0.04537817       0.04595417       0.07637132
Si       0.90025126       2.02039319       1.64193177       0.02460477      -0.03408682       0.08979258
Si       1.83683718       4.76718071       3.29554748      -0.02680698      -0.01289012      -0.09299731
Si       2.01306721       0.90529779       4.93867966      -0.04136481       0.03731756      -0.09640285
Si       3.46678381       4.58914404       1.64843824      -0.00029426      -0.04519848      -0.08339839
Si       3.64594603       0.72532547       0.00062135       0.03840936       0.03843881      -0.05597970
Si       4.57952610       3.47409239       4.93022745      -0.03724138       0.01033867       0.06038126
Si       4.75803417       1.84342726       3.28360051      -0.00262405      -0.03987026       0.10221145
12
Lattice="5.491310620836942 -0.0016446764821836674 0.0035025204317203408 -0.001644283125755012 5.483097728882452 -0.002042681658438902 0.004232868066224493 -0.0024676894320016986 6.588500342273648" Properties=species:S:1:pos:R:3:forces:R:3 cutoff=-1.0 nneightol=1.2 n_minim_iter=3 energy=-1955.377007010802 stress="-0.06858517177701699 -0.0002557990586841081 0.0009722347343242921 -0.0002557990586841081 -0.07150776002902073 -0.0005692313487236948 0.0009722347343242921 -0.0005692313487236948 -0.0711931347702136" free_energy=-1955.377007010802 pbc="T T T"
Si       0.45018723       0.44943870       0.00012314      -0.00322837       0.02435804      -0.00320470
Si      -0.44802389      -0.45065312       3.29416340      -0.00967945      -0.03161002      -0.01074066
Si       2.29758981       3.18852152       4.94168066      -0.00312952       0.03829637      -0.00727008
Si       3.19625994       2.29043878       1.64824349       0.01615445      -0.03064894       0.02117259
Si       0.72838546       3.64330314       0.01052962       0.02695376       0.01920301      -0.00507723
Si       0.90373493       2.01226965       1.65837546       0.04125808      -0.02684988       0.00147949
Si       1.84307164       4.75300417       3.28222574      -0.04249508      -0.04664140       0.00126042
Si       2.01905991       0.89951487       4.93085860      -0.02379907       0.02231235       0.01756698
Si       3.47473512       4.57945801       1.63619028       0.05116823      -0.01719517       0.00883325
Si       3.64871385       0.72728117      -0.00929793       0.03525058       0.02970115      -0.02303092
Si       4.59016119       3.46666009       4.95437149      -0.03349672       0.04249702       0.02122117
Si       4.76350441       1.83692369       3.30808679      -0.05495689      -0.02342252      -0.02221031
12
Lattice="5.4841035060168 -0.0005225929654415854 0.0010072237970560915 -0.000522507387328493 5.485663930558767 -0.0005833068684433328 0.0012270503132321307 -0.0007099004404072348 6.59406882299136" Properties=species:S:1:pos:R:3:forces:R:3 cutoff=-1.0 nneightol=1.2 n_minim_iter=4 energy=-1955.37760603623 stress="-0.07054528969308489 -8.117057239521194e-05 0.000280925534173303 -8.117057239521194e-05 -0.06998717831040994 -0.0001623260606450103 0.000280925534173303 -0.0001623260606450103 -0.0698504937840422" free_energy=-1955.37760603623 pbc="T T T"
Si       0.44998292       0.45011888       0.00002544       0.02702713       0.02315174       0.00246830
Si      -0.44935258      -0.45047140       3.29700270      -0.03087210      -0.02513755       0.00017196
Si       2.29265491       3.19222389       4.94565144      -0.02903701       0.02726727      -0.00543084
Si       3.19213394       2.29220043       1.64884779       0.03296299      -0.02512951       0.00278741
Si       0.72860650       3.64528365       0.01271558       0.03509856       0.02075307      -0.00730601
Si       0.90239031       2.01340865       1.66147497       0.01855877      -0.03630776      -0.01726409
Si       1.83993744       4.75599975       3.28386397      -0.01892746      -0.04208645       0.01793520
Si       2.01392404       0.90179209       4.93283913      -0.03402449       0.02169762       0.01095617
Si       3.47085462       4.58263242       1.63568201       0.04191965      -0.02018181       0.00857538
Si       3.64425272       0.72880741      -0.01239354       0.01697389       0.03725508       0.01102296
Si       4.58242286       3.47101001       4.95901503      -0.01649818       0.04069747      -0.01159871
Si       4.75561904       1.83950636       3.31070476      -0.04318176      -0.02197917      -0.01231775
12
Lattice="5.485980391420371 0.0007915775419795179 -0.0016942694083591566 0.000791732411062171 5.483603374752413 0.0009753223390556416 -0.0020263589310336237 0.0011674538734066557 6.594290428296134" Properties=species:S:1:pos:R:3:forces:R:3 cutoff=-1.0 nneightol=1.2 n_minim_iter=5 energy=-1955.3777883113594 stress="-0.06972689602906389 0.00012219667652743795 -0.0004676493337419993 0.00012219667652743795 -0.07057292539121796 0.00026970390375475613 -0.0004676493337419993 0.00026970390375475613 -0.06967053191686577" free_energy=-1955.3777883113594 pbc="T T T"
Si       0.45063587       0.45042568      -0.00004981       0.02492467       0.03090651      -0.00379132
Si      -0.45166605      -0.44985674       3.29720586      -0.01891495      -0.02733256      -0.00024400
Si       2.29134296       3.19339852       4.94555149      -0.02182136       0.02415313       0.00877453
Si       3.19341818       2.29217564       1.64800932       0.01576085      -0.02782143      -0.00473808
Si       0.73025399       3.64435452       0.01403875       0.03998792       0.01522183      -0.02006221
Si       0.90260840       2.01280773       1.66222876       0.01821209      -0.03774995      -0.00468993
Si       1.83983332       4.75499742       3.28385583      -0.01752685      -0.02845287       0.00311726
Si       2.01188066       0.90360642       4.93165468      -0.04142677       0.01395997       0.01437143
Si       3.47291854       4.58195439       1.63469279       0.02827219      -0.01623160       0.01865267
Si       3.64591782       0.72995194      -0.01460623       0.02126227       0.03638299       0.01493866
Si       4.58214667       3.47278823       4.95853184      -0.02221756       0.03028881      -0.01420239
Si       4.75545164       1.84062455       3.30959891      -0.02651250      -0.01332485      -0.01212661
12
Lattice="5.486471644296077 0.0021293420433096425 -0.0008057463620054944 0.0021293643242476508 5.487294365277774 0.0004632743164879137 -0.0009560881105762362 0.0005505676498732766 6.589264985043529" Properties=species:S:1:pos:R:3:forces:R:3 cutoff=-1.0 nneightol=1.2 n_minim_iter=6 energy=-1955.3782784181801 stress="-0.06951177041169371 0.00033034883564394326 -0.00022142471626519826 0.00033034883564394326 -0.06921884307340115 0.00012725871583028927 -0.00022142471626519826 0.00012725871583028927 -0.07023797204055537" free_energy=-1955.3782784181801 pbc="T T T"
Si       0.45210459       0.45218374      -0.00002770       0.00777528       0.00460868      -0.00016715
Si      -0.45259347      -0.45191260       3.29465677      -0.00482970      -0.00298668       0.00156787
Si       2.29178191       3.19700917       4.94187482       0.00051729      -0.00536700       0.00250980
Si       3.19587331       2.29296887       1.64705119      -0.00351042       0.00365288      -0.00391605
Si       0.73309040       3.64784767       0.01512949       0.01316431       0.01912749      -0.00695784
Si       0.90431491       2.01237391       1.66227891       0.01807556      -0.01645735      -0.00608146
Si       1.84081857       4.75648080       3.27984216      -0.01607550      -0.00838227       0.00472824
Si       2.01122149       0.90509881       4.92680658      -0.01753929       0.02016767       0.00489267
Si       3.47644863       4.58487432       1.63226028       0.01132711      -0.02127055       0.00683033
Si       3.64730696       0.73320447      -0.01541310       0.01769935       0.01214218       0.01026563
Si       4.58332681       3.47761609       4.95651276      -0.01981600       0.01297496      -0.01055639
Si       4.75500853       1.84185085       3.30900792      -0.00678798      -0.01821001      -0.00311566
12
Lattice="5.485577934842033 -0.0031059233205411527 -0.0006324235506583137 -0.003105720594174686 5.4858788034620245 0.0004027640798076736 -0.0007473544817014905 0.0004775145731867322 6.592040115059322" Properties=species:S:1:pos:R:3:forces:R:3 cutoff=-1.0 nneightol=1.2 n_minim_iter=7 energy=-1955.378419308856 stress="-0.0696157357661459 -0.0004824910518638554 -0.00017379656783988572 -0.0004824910518638554 -0.0695085135215471 0.00011079482537121233 -0.00017379656783988572 0.00011079482537121233 -0.06981341531470658" free_energy=-1955.378419308856 pbc="T T T"
Si       0.45227569       0.45230810      -0.00001721      -0.00874608      -0.01016500      -0.00034807
Si      -0.45266092      -0.45207119       3.29603573       0.01114829       0.01153195       0.00087371
Si       2.28796143       3.19449316       4.94399336      -0.00353465       0.00068190       0.00237701
Si       3.19377464       2.28875922       1.64781851       0.00110093      -0.00213023      -0.00289610
Si       0.73048120       3.64688676       0.01487888       0.00468186       0.00974048      -0.00289000
Si       0.90300680       2.00992090       1.66272787       0.00488812       0.00267389       0.00098720
Si       1.83541267       4.75247490       3.28147037      -0.00811389      -0.00064807      -0.00001993
Si       2.00913403       0.90360407       4.92918929       0.00185097       0.00566002      -0.00102024
Si       3.47261128       4.57964768       1.63326361      -0.00671633      -0.00666563       0.00065281
Si       3.64669088       0.73052388      -0.01506535       0.00927212       0.00391976       0.00430106
Si       4.57871188       3.47334251       4.95844631      -0.00614850      -0.00568390      -0.00245394
Si       4.75159838       1.83612321       3.31029086       0.00031717      -0.00891517       0.00043650
12
Lattice="5.485161285258697 0.0005055704951947651 0.00018105241905819118 0.0005056704453382798 5.485135672775335 -0.00016559967527379277 0.00023213131754993243 -0.00020675395537808305 6.593431840625126" Properties=species:S:1:pos:R:3:forces:R:3 cutoff=-1.0 nneightol=1.2 n_minim_iter=8 energy=-1955.3784886065446 stress="-0.06977475532098443 7.841394490424607e-05 5.157942903401333e-05 7.841394490424607e-05 -0.06978371183445292 -4.673782653890581e-05 5.157942903401333e-05 -4.673782653890581e-05 -0.06968565810935419" free_energy=-1955.3784886065446 pbc="T T T"
Si       0.45243450       0.45243474       0.00000164      -0.00172410      -0.00166890       0.00000943
Si      -0.45231952      -0.45253421       3.29671412       0.00112669       0.00100198      -0.00004323
Si       2.29064554       3.19502343       4.94505624       0.00369130      -0.00296155      -0.00090235
Si       3.19525397       2.29040634       1.64839108      -0.00307559       0.00363748       0.00094018
Si       0.73286915       3.64704577       0.01403037      -0.00389898       0.00218321       0.00223393
Si       0.90465298       2.01007876       1.66244477       0.00311232       0.00272052       0.00106653
Si       1.83872288       4.75267787       3.28251162      -0.00262080       0.00248085      -0.00096091
Si       2.01031368       0.90443946       4.93099512       0.00276818       0.00295179      -0.00105636
Si       3.47558152       4.58099548       1.63421801      -0.00135362      -0.00261291      -0.00187736
Si       3.64706401       0.73286503      -0.01401736       0.00217027      -0.00384276      -0.00237985
Si       4.58124081       3.47535195       4.95923815      -0.00258867      -0.00142998       0.00196810
Si       4.75291984       1.83849121       3.31093679       0.00239301      -0.00245972       0.00100189
