12
Lattice="5.433895096315922 0.0005008452608429141 0.00017936024137347502 0.0005009442768182839 5.433869723215568 -0.00016405192420505677 0.00022996173905147832 -0.000204821562365399 6.53180737692317" Properties=species:S:1:pos:R:3:forces:R:3 cutoff=-1.0 nneightol=1.2 n_minim_iter=1 energy=-1954.9183742045993 stress="-0.09781534888178844 7.645680520112081e-05 5.3802279999651304e-05 7.645680520112081e-05 -0.09782480054438121 -4.87526749959182e-05 5.3802279999651304e-05 -4.87526749959182e-05 -0.09778570254334587" free_energy=-1954.9183742045993 pbc="T T T"
Si       0.44820589       0.44820613       0.00000162       0.02302426       0.02308989       0.00001130
Si      -0.44809198      -0.44830467       3.26590190      -0.02369471      -0.02382926      -0.00005041
Si       2.26923639       3.16516165       4.89883806      -0.02085398       0.02167206      -0.00100581
Si       3.16539003       2.26899942       1.63298466       0.02154887      -0.02091828       0.00104919
Si       0.72601950       3.61295923       0.01389924       0.01958674      -0.00545800       0.12679371
Si       0.89619778       1.99129188       1.64690700      -0.00442818      -0.02089084       0.12550488
Si       1.82153754       4.70825772       3.25183215       0.00493056      -0.02116184      -0.12541181
Si       1.99152461       0.89598626       4.88490836      -0.02083718      -0.00460584      -0.12549218
Si       3.44309755       4.53817994       1.61894405       0.02240200       0.00502629      -0.12639430
Si       3.61297731       0.72601542      -0.01388635      -0.00547030       0.01964934      -0.12695399
Si       4.53842297       3.44287012       4.91288742       0.00505030       0.02231744       0.12649579
Si       4.70849743       1.82130804       3.27999164      -0.02125839       0.00510903       0.12545362
12
Lattice="5.435074164103858 -0.012648289460897463 -0.009072751781533762 -0.01264827615114667 5.436672116570728 0.008222765279564071 -0.01089175699273608 0.009876810376840985 6.527092536805291" Properties=species:S:1:pos:R:3:forces:R:3 cutoff=-1.0 nneightol=1.2 n_minim_iter=2 energy=-1954.9294879543502 stress="-0.0940746080758181 -0.0019439124785492255 -0.002629396155631998 -0.0019439124785492255 -0.09347394163085178 0.002384333056740804 -0.002629396155631998 0.002384333056740804 -0.0934727317031459" free_energy=-1954.9294879543502 pbc="T T T"
Si       0.45098537       0.45113144      -0.00006847       0.02385574       0.01691117      -0.00076676
Si      -0.45654198      -0.44631019       3.26360818       0.01192645       0.01579522       0.00394083
Si       2.25029996       3.17242837       4.89617061      -0.07828692       0.03727158       0.04693121
Si       3.16134825       2.26159097       1.63007907       0.04124435      -0.07131212      -0.05006441
Si       0.72058937       3.61221700       0.03899715       0.10400185       0.04551190      -0.01477715
Si       0.88801641       1.98929923       1.66782503       0.00647311      -0.06948647       0.04396534
Si       1.80585445       4.70779339       3.23309655      -0.02058460      -0.02800538      -0.04813700
Si       1.97809076       0.89839036       4.85881841      -0.07269330       0.01184016      -0.04592459
Si       3.43381394       4.53547217       1.59820403      -0.00388338      -0.03396026      -0.00140497
Si       3.61115955       0.72081886      -0.03970175       0.04302250       0.10090096       0.02268178
Si       4.52349596       3.44493841       4.92765766      -0.03130629       0.00052128      -0.00720985
Si       4.69600450       1.81679477       3.29298002      -0.02376951      -0.02598804       0.05076556
12
Lattice="5.437418482228949 -0.0064797412149198135 0.001674311017039787 -0.006479520487943943 5.4364255237419385 -0.001527429912928621 0.0020277696214734946 -0.0018444537731362926 6.524516401181796" Properties=species:S:1:pos:R:3:forces:R:3 cutoff=-1.0 nneightol=1.2 n_minim_iter=3 energy=-1954.9326213721827 stress="-0.09231530090399791 -0.0009932158817432082 0.0004828802079525348 -0.0009932158817432082 -0.09268543776081035 -0.0004394296511905292 0.0004828802079525348 -0.0004394296511905292 -0.09241011500541293" free_energy=-1954.9326213721827 pbc="T T T"
Si       0.45287351       0.45277310       0.00001119       0.00952376       0.01336547      -0.00048501
Si      -0.45182867      -0.45368881       3.26225394      -0.01633028      -0.01892626      -0.00150815
Si       2.26321635       3.16725253       4.89321399      -0.03676176       0.04660892      -0.00781288
Si       3.16971783       2.26083806       1.63144333       0.04387801      -0.04059699       0.00976283
Si       0.72648549       3.61278154       0.03973288       0.05422807       0.03675064      -0.00766507
Si       0.89378769       1.98592784       1.67138437       0.03668760      -0.03961889      -0.01243422
Si       1.81850184       4.70273511       3.22095421      -0.04291175      -0.06792422       0.01667975
Si       1.98826743       0.89172532       4.85320309      -0.03924038       0.03450097       0.01511974
Si       3.44463171       4.53637861       1.59039683       0.05322749      -0.03014350       0.00691651
Si       3.61342706       0.72634868      -0.03961040       0.03915205       0.05452046       0.00413593
Si       4.53920715       3.44211560       4.93431673      -0.03264459       0.05221729      -0.00280046
Si       4.70553239       1.81624130       3.30375806      -0.06880822      -0.04075388      -0.01990895
12
Lattice="5.436609612533406 0.0025556813755584214 -0.00021574646076405156 0.0025556317004483725 5.438093446717219 0.00019857963605291964 -0.00024470357220450717 0.0002308013243874732 6.5234767458777885" Properties=species:S:1:pos:R:3:forces:R:3 cutoff=-1.0 nneightol=1.2 n_minim_iter=4 energy=-1954.9331987219957 stress="-0.09248827308444756 0.00038999323572234734 -6.16358525278639e-05 0.00038999323572234734 -0.09193582673358966 5.8082639803777636e-05 -6.16358525278639e-05 5.8082639803777636e-05 -0.09231237983362454" free_energy=-1954.9331987219957 pbc="T T T"
Si       0.45384563       0.45397554      -0.00000677       0.03193071       0.02712163       0.00145251
Si      -0.45396291      -0.45387323       3.26173940      -0.03130443      -0.02604119       0.00137702
Si       2.26592207       3.17411579       4.89262733      -0.02130322       0.01544302      -0.00016757
Si       3.17299324       2.26677538       1.63083869       0.02062722      -0.01650110      -0.00269066
Si       0.73303607       3.61539095       0.04160834       0.04653310       0.03662389      -0.01046635
Si       0.89662311       1.98801992       1.67243109       0.03502205      -0.05276914      -0.01523600
Si       1.82462686       4.70751475       3.22033704      -0.03242418      -0.04517135       0.01346389
Si       1.98723268       0.89708123       4.85104848      -0.05225741       0.03895973       0.01043855
Si       3.45170075       4.54379240       1.58938080       0.05043808      -0.03928815       0.01161704
Si       3.61440721       0.73323368      -0.04163810       0.03321239       0.04700535       0.01548738
Si       4.54231113       3.45287509       4.93407648      -0.03593607       0.05100644      -0.01632567
Si       4.70598920       1.82538276       3.30311673      -0.04453824      -0.03638912      -0.00895014
12
Lattice="5.43970529327893 0.0026629279425560977 -0.0005809316303071433 0.0026634898234546007 5.43455931761316 0.0005045131885307102 -0.0006835983501999036 0.0005987442871899127 6.524004381283654" Properties=species:S:1:pos:R:3:forces:R:3 cutoff=-1.0 nneightol=1.2 n_minim_iter=5 energy=-1954.9337187489264 stress="-0.09117117739510382 0.00040703060687250007 -0.00016591303860393118 0.00040703060687250007 -0.09308636921042883 0.00014556823657782553 -0.00016591303860393118 0.00014556823657782553 -0.09203394518244272" free_energy=-1954.9337187489264 pbc="T T T"
Si       0.45475324       0.45427646       0.00000615       0.01599544       0.03316408      -0.00517474
Si      -0.45509863      -0.45398814       3.26202221      -0.01382978      -0.03106120      -0.00484691
Si       2.26630116       3.17296488       4.89302916      -0.00498787       0.01988436       0.00813665
Si       3.17538772       2.26486722       1.63087275       0.00271200      -0.02210573       0.00191864
Si       0.73462220       3.61376358       0.04223955       0.03642410       0.01969434      -0.01970046
Si       0.89772535       1.98573749       1.67302576       0.03346238      -0.04028888      -0.00048241
Si       1.82487607       4.70355875       3.22032594      -0.03086549      -0.02975578      -0.00156238
Si       1.98695967       0.89752393       4.85089411      -0.04238089       0.02124044       0.01759726
Si       3.45475363       4.54029289       1.58906488       0.03754861      -0.02252592       0.02032563
Si       3.61714996       0.73393391      -0.04225923       0.03237631       0.03430392       0.00309052
Si       4.54396439       3.45211016       4.93478216      -0.03516305       0.03603172      -0.00369126
Si       4.70737296       1.82376445       3.30363417      -0.03129178      -0.01858136      -0.01561055
12
Lattice="5.435930431322376 -3.2528971957671436e-05 0.00011703623397704346 -3.264167933184486e-05 5.4382360307487 -0.0001251068437315514 0.00015540096587292925 -0.00015841985143490986 6.5241192970093635" Properties=species:S:1:pos:R:3:forces:R:3 cutoff=-1.0 nneightol=1.2 n_minim_iter=6 energy=-1954.934576612405 stress="-0.09225770155416546 -5.275519304716154e-06 3.536929053938227e-05 -5.275519304716154e-06 -0.09140127137193675 -3.6960606964107926e-05 3.536929053938227e-05 -3.6960606964107926e-05 -0.09157728175016092" free_energy=-1954.934576612405 pbc="T T T"
Si       0.45580520       0.45602395      -0.00000508       0.00405481      -0.00379916       0.00220759
Si      -0.45573161      -0.45609131       3.26205139      -0.00433908       0.00303474       0.00236999
Si       2.26225786       3.17500006       4.89307558      -0.00424789      -0.00285593      -0.00300966
Si       3.17379921       2.26303652       1.63104816       0.00460264       0.00358591      -0.00154548
Si       0.73519273       3.61761437       0.04288408       0.00128202       0.00753669       0.00353388
Si       0.89816378       1.98354893       1.67397074       0.00213775      -0.00211888      -0.00459720
Si       1.81988193       4.70262466       3.21901220      -0.00227244      -0.00322129       0.00509998
Si       1.98286281       0.89838390       4.85016412      -0.00131275       0.00744872      -0.00291144
Si       3.45318667       4.53967124       1.58805742       0.00231470      -0.00738219      -0.00366046
Si       3.61610005       0.73550167      -0.04290483       0.00177611       0.00212993       0.00386609
Si       4.53788188       3.45449154       4.93607591      -0.00159197       0.00318781      -0.00406832
Si       4.70078773       1.82049909       3.30506678      -0.00240392      -0.00754636       0.00271503
