12
Lattice="5.433895096315922 0.0005008452608429141 0.00017936024137347502 0.0005009442768182839 5.433869723215568 -0.00016405192420505677 0.00022996173905147832 -0.000204821562365399 6.53180737692317" Properties=species:S:1:pos:R:3:forces:R:3 cutoff=-1.0 nneightol=1.2 n_minim_iter=8 energy=-1955.3784886065446 stress="-0.06977475532098443 7.841394490424607e-05 5.157942903401333e-05 7.841394490424607e-05 -0.06978371183445292 -4.673782653890581e-05 5.157942903401333e-05 -4.673782653890581e-05 -0.06968565810935419" free_energy=-1955.3784886065446 pbc="T T T"
Si       0.44820589       0.44820613       0.00000162      -0.00172410      -0.00166890       0.00000943
Si      -0.44809198      -0.44830467       3.26590190       0.00112669       0.00100198      -0.00004323
Si       2.26923639       3.16516165       4.89883806       0.00369130      -0.00296155      -0.00090235
Si       3.16539003       2.26899942       1.63298466      -0.00307559       0.00363748       0.00094018
Si       0.72601950       3.61295923       0.01389924      -0.00389898       0.00218321       0.00223393
Si       0.89619778       1.99129188       1.64690700       0.00311232       0.00272052       0.00106653
Si       1.82153754       4.70825772       3.25183215      -0.00262080       0.00248085      -0.00096091
Si       1.99152461       0.89598626       4.88490836       0.00276818       0.00295179      -0.00105636
Si       3.44309755       4.53817994       1.61894405      -0.00135362      -0.00261291      -0.00187736
Si       3.61297731       0.72601542      -0.01388635       0.00217027      -0.00384276      -0.00237985
Si       4.53842297       3.44287012       4.91288742      -0.00258867      -0.00142998       0.00196810
Si       4.70849743       1.82130804       3.27999164       0.00239301      -0.00245972       0.00100189
