12
Lattice="5.896840062253004 0.000981661630617212 -0.0013205626883124727 0.0009804080510222445 5.89783265722716 0.0005303675145408445 -0.001604654081313962 0.0006435380103422535 7.288394401009321" Properties=species:S:1:pos:R:3:forces:R:3 cutoff=-1.0 nneightol=1.2 n_minim_iter=7 energy=-1955.4475190135215 stress="0.0411428123746419 9.146461329832048e-05 -0.00017388353589865054 9.146461329832048e-05 0.04131608163666207 6.970647508645294e-05 -0.00017388353589865054 6.970647508645294e-05 0.041439683068302285" free_energy=-1955.4475190135215 pbc="T T T"
Si       0.46508650       0.46516923      -0.00006120       0.00506719       0.00368556      -0.00021402
Si      -0.46589798      -0.46485334       3.64425380      -0.00343095      -0.00256220       0.00103708
Si       2.48276692       3.41491306       5.46604156      -0.00337483       0.00167272       0.00104443
Si       3.41345511       2.48454436       1.82156742       0.00219548      -0.00166650      -0.00187253
Si       0.73369902       3.92297253      -0.16145306       0.00207950      -0.00602660      -0.00336030
Si       0.97379040       2.21608955       1.66042269      -0.00639574      -0.00155165      -0.00171917
Si       1.97465640       5.16534560       3.80586939       0.00666744       0.00123052       0.00160865
Si       2.21433719       0.97481652       5.62754421      -0.00279525      -0.00554937       0.00183492
Si       3.68183873       4.92466884       1.98337505      -0.00318212       0.00577890       0.00172359
Si       3.92229415       0.73381002       0.16082045      -0.00721441       0.00049382       0.00494382
Si       4.92249330       3.68335483       5.30387929       0.00695182      -0.00132700      -0.00405626
Si       5.16336166       1.97613633       3.48156423       0.00343186       0.00582179      -0.00097022
