12
Lattice="5.5775036255693475 0.0002424070447623393 -0.00010206591254912552 0.00024252883947935205 5.577240473439745 2.0275257913390333e-05 -0.00010850545178814088 1.7328791830130203e-05 6.731473770072406" Properties=species:S:1:pos:R:3:forces:R:3 cutoff=-1.0 nneightol=1.2 n_minim_iter=9 energy=-1956.0503197379016 stress="-0.01411330702482126 3.399465061941824e-05 -2.274087529490539e-05 3.399465061941824e-05 -0.014191267298704853 4.149158370847001e-06 -2.274087529490539e-05 4.149158370847001e-06 -0.014207107017593487" free_energy=-1956.0503197379016 pbc="T T T"
Si       0.44429393       0.44427306      -0.00000509      -0.00443225      -0.00402895      -0.00028661
Si      -0.44434571      -0.44426162       3.36574347       0.00461976       0.00402747       0.00003072
Si       2.34453259       3.23299127       5.04857270       0.00524789      -0.00486948       0.00034986
Si       3.23310378       2.34450840       1.68281803      -0.00546233       0.00483178      -0.00009917
Si       0.72421996       3.70466206      -0.05174640       0.00012562       0.00619449       0.00112363
Si       0.91611506       2.06464576       1.63110947       0.00667724      -0.00016802       0.00203041
Si       1.87285387       4.85330791       3.41746812      -0.00645219       0.00029378      -0.00203870
Si       2.06465402       0.91611221       5.10031868      -0.00047453       0.00635410      -0.00120998
Si       3.51298686       4.66138688       1.73456601      -0.00013138      -0.00638289      -0.00119460
Si       3.70483566       0.72418243       0.05168152       0.00661320      -0.00017760      -0.00155986
Si       4.66152324       3.51285646       4.99678714      -0.00681198       0.00005619       0.00154750
Si       4.85346925       1.87282758       3.31390937       0.00048096      -0.00613086       0.00130679
