12
Lattice="5.338567904914577 -0.00024361451503821435 5.934199425636207e-05 -0.0002442521025454976 5.3386096093505175 3.0049841594328972e-05 8.581124316259333e-05 2.7765277724538018e-05 6.380383712461485" Properties=species:S:1:pos:R:3:forces:R:3 cutoff=-1.0 nneightol=1.2 n_minim_iter=9 energy=-1953.638597109916 stress="-0.14631330033264206 -3.508241886640618e-05 1.96531339748005e-05 -3.508241886640618e-05 -0.1462944102662565 7.996254066074185e-06 1.96531339748005e-05 7.996254066074185e-06 -0.14631720062416176" free_energy=-1953.638597109916 pbc="T T T"
Si       0.45949651       0.45950816       0.00000876      -0.00636178      -0.00654291       0.00033520
Si      -0.45946226      -0.45948180       3.19018135       0.00636331       0.00629146      -0.00011769
Si       2.20970102       3.12873128       4.78533162       0.00506810      -0.00504995      -0.00024502
Si       3.12871466       2.20965273       1.59514158      -0.00497416       0.00525922       0.00007936
Si       0.74312484       3.55204565       0.10047635       0.00222234       0.00108953       0.00035771
Si       0.88271178       1.92597740       1.69555648       0.00051104      -0.00217642       0.00044313
Si       1.78634794       4.59524824       3.08977977      -0.00109212      -0.00237102       0.00020683
Si       1.92601709       0.88272850       4.68487848      -0.00172806       0.00009436      -0.00106745
Si       3.41238909       4.45567920       1.49472526       0.00237079      -0.00060341      -0.00084521
Si       3.55202688       0.74312680      -0.10039939       0.00053713       0.00266667      -0.00062723
Si       4.45569063       3.41241846       4.88580247      -0.00003230       0.00188013       0.00073511
Si       4.59524623       1.78632029       3.29069094      -0.00288428      -0.00053766       0.00074527
