12
Lattice="5.978127312049462 0.00012029922755800832 0.0003483758076128925 0.00011893124967795622 5.978194125196497 -1.704316589939303e-05 0.0004611808209375939 -3.304998041277997e-05 7.4010247731732" Properties=species:S:1:pos:R:3:forces:R:3 cutoff=-1.0 nneightol=1.2 n_minim_iter=10 energy=-1954.6112685650999 stress="0.06036021577308381 9.901418187556197e-06 4.374574829902061e-05 9.901418187556197e-06 0.06037053800310094 -2.6757583187330973e-06 4.374574829902061e-05 -2.6757583187330973e-06 0.060405826288385145" free_energy=-1954.6112685650999 pbc="T T T"
Si       0.47833057       0.47833327       0.00002539      -0.00457645      -0.00465092       0.00025515
Si      -0.47809853      -0.47834780       3.70048721       0.00436471       0.00438708      -0.00019406
Si       2.51115937       3.46744420       5.55090676       0.00472289      -0.00479261      -0.00029083
Si       3.46754674       2.51083853       1.85044916      -0.00453962       0.00456472       0.00022919
Si       0.73450332       3.99838808      -0.20143588      -0.00484315      -0.00121498      -0.00088168
Si       1.00941605       2.25466796       1.64884051      -0.00139793       0.00420680      -0.00124071
Si       1.98014510       5.24377466       3.90207692       0.00140566       0.00420837       0.00131367
Si       2.25500670       1.00929816       5.75236793       0.00476184      -0.00123044       0.00085477
Si       3.72371843       4.96898092       2.05192862      -0.00344208       0.00134289       0.00110793
Si       3.99835460       0.73452154       0.20169699      -0.00125886      -0.00417102       0.00090370
Si       4.96926804       3.72361379       5.34957799       0.00127141      -0.00400373      -0.00087100
Si       5.24395615       1.97991008       3.49934656       0.00353158       0.00135385      -0.00118614
