4
Lattice="1.840399695282967 -3.187665778464379 1.481605192249663e-17 1.8403996952829675 3.187665778464379 -1.4816051922496657e-17 -6.732892383236849e-32 -2.3921104525601498e-17 6.079047788595803" Properties=species:S:1:pos:R:3 cutoff=-1.0 nneightol=1.2 n_minim_iter=4 stress="-0.09804488134763224 1.675034431593341e-17 4.792434756375569e-17 1.675034431593341e-17 -0.09804488134763205 -8.395103602489186e-17 4.792434756375569e-17 -8.395103602489186e-17 -0.0980362923691608" pbc="T T T"
Si       1.84039970       1.06255526       0.38735555
Si       1.84039970      -1.06255526       3.42687945
Si       1.84039970       1.06255526       2.65216834
Si       1.84039970      -1.06255526      -0.38735555
