4
Lattice="1.7660044885448882 -3.0588095005544362 1.5726171176341236e-17 1.7660044885448882 3.0588095005544362 -1.5726171176341282e-17 2.7737189233740937e-32 4.0063012252747706e-17 5.847495633813051" Properties=species:S:1:pos:R:3 cutoff=-1.0 nneightol=1.2 n_minim_iter=2 stress="-0.18199234279314394 -7.691515003803185e-17 -1.3300496104505872e-17 -7.691515003803185e-17 -0.18199234279314372 -3.827132559724418e-17 -1.3300496104505872e-17 -3.827132559724418e-17 -0.1820765181443485" pbc="T T T"
Si       1.76600449       1.01960317       0.37801306
Si       1.76600449      -1.01960317       3.30176088
Si       1.76600449       1.01960317       2.54573476
Si       1.76600449      -1.01960317      -0.37801306
