4
Lattice="2.0435380276162665 -3.5395116910304663 -6.311281327660875e-19 2.043538027616267 3.5395116910304663 6.311281327660886e-19 -1.2127702736699568e-35 1.222876725963733e-18 6.761882320340798" Properties=species:S:1:pos:R:3 cutoff=-1.0 nneightol=1.2 n_minim_iter=3 stress="0.061631039077990724 6.711081362003727e-17 -1.992244522887687e-19 6.711081362003727e-17 0.06163103907799057 3.1837541981800946e-17 -1.992244522887687e-19 3.1837541981800946e-17 0.061925749767766346" pbc="T T T"
Si       2.04353803       1.17983723       0.42893212
Si       2.04353803      -1.17983723       3.80987328
Si       2.04353803       1.17983723       2.95200904
Si       2.04353803      -1.17983723      -0.42893212
