4
Lattice="2.066042415976534 -3.578490435063711 2.9078404698778778e-18 2.066042415976534 3.578490435063711 -2.9078404698778778e-18 1.601220861741568e-33 -9.55159876859896e-18 6.891017551928468" Properties=species:S:1:pos:R:3 cutoff=-1.0 nneightol=1.2 n_minim_iter=4 stress="0.07338378957762778 -2.3010657242641962e-18 4.216257265128366e-18 -2.3010657242641962e-18 0.07338378957762785 -4.189425336626045e-17 4.216257265128366e-18 -4.189425336626045e-17 0.07367038148811898" pbc="T T T"
Si       2.06604242       1.19283015       0.44457217
Si       2.06604242      -1.19283015       3.89008094
Si       2.06604242       1.19283015       3.00093661
Si       2.06604242      -1.19283015      -0.44457217
