6
Lattice="2.4394691959397865 -0.5527288766561625 0.024259947811225306 -0.9525682819580286 7.00869498269942 -2.086886897906282 -1.097969249892483 -4.429467653324026 8.682620214822007" Properties=species:S:1:pos:R:3 unique_starting_index=56 config_type=initial n_minim_iter=16 energy=-976.7931120889857 free_energy=-976.7931120889857 pbc="T T T"
Si      -0.43825310       2.89753770       5.44765998
Si      -0.05958502       5.75747500      -1.35435965
Si       0.11228085       5.11353180       1.10745123
Si      -0.64876654       0.42513133       4.86181028
Si       0.58193667      -2.39266615       5.65139195
Si       0.03717998       3.19679172      -0.57786121
