24
Lattice="8.694738460668152 -3.2111939727907584 -1.6219111454530208 0.044939157917671176 9.53774742858705 2.9272055906919925 0.5142506222147358 6.327151896313321 11.716636107331366" Properties=species:S:1:pos:R:3 unique_starting_index=94 config_type=initial n_minim_iter=1 energy=-3927.4948010344656 free_energy=-3927.4948010344656 pbc="T T T"
Si       9.39332079       8.74174179       8.95175920
Si      -2.08841709       4.49994995       6.61693485
Si       1.45234873       8.60785674       1.75164685
Si       5.54689813      12.06858501       9.43111642
Si       4.50798679       1.12748652       2.07209754
Si       3.75167398       8.00801978      12.38964202
Si       5.82572448       1.81248471       3.24843540
Si       3.04339664      -0.06254890       1.57106155
Si       7.43292645       2.69457062       6.14061799
Si       8.61579905      10.79933434       8.35670607
Si       3.18385447      10.09941159      12.00061548
Si       6.02935843       3.14878731       4.66015154
Si       1.42885316       8.09464494       3.79577026
Si       2.24018098       8.57958404      11.30782704
Si       6.39269810       4.37279066       6.15669679
Si       5.02735646       6.54717981      12.01174064
Si       3.53712863       5.26166569      11.60300077
Si       2.40743069       6.89574442       1.87416348
Si       8.89537627       3.88715009       3.22290188
Si       3.55582373       7.01722309      10.67984192
Si       7.88221324       4.15735829       4.83396148
Si       1.62008184       0.40269130       0.27691686
Si       2.68490637      12.11360620      11.65496459
Si       7.79511371       2.42844289       3.87680782
24
Lattice="8.694220296296198 -3.2114900106691597 -1.6238837271297264 0.04365270598879911 9.536833940787098 2.9274330975753924 0.5111846282945434 6.326858062645648 11.716350707182057" Properties=species:S:1:pos:R:3 unique_starting_index=94 config_type=initial n_minim_iter=2 stress="-0.00046485979907813166 -0.0001055470655997194 -0.00013955851446169072 -0.0001055470655997194 -0.00029181451032463644 -0.00026772418728607483 -0.00013955851446169072 -0.00026772418728607483 -0.0005505739803677225" pbc="T T T"
Si       9.38960373       8.74052384       8.94968012
Si      -2.08995819       4.49978915       6.61729025
Si       1.45117988       8.60694255       1.75161978
Si       5.54336123      12.06733081       9.42994940
Si       4.50694534       1.12718548       2.07115534
Si       3.74788563       8.00737684      12.38868829
Si       5.82411018       1.81196935       3.24712206
Si       3.04263373      -0.06266848       1.57031068
Si       7.43046619       2.69394813       6.13888813
Si       8.61208378      10.79791577       8.35481995
Si       3.18013682      10.09849244      11.99984745
Si       6.02726547       3.14809101       4.65878303
Si       1.42728040       8.09378666       3.79566668
Si       2.23688221       8.57895996      11.30729245
Si       6.39023407       4.37209826       6.15528190
Si       5.02363779       6.54652840      12.01040494
Si       3.53380275       5.26131777      11.60208193
Si       2.40630018       6.89491782       1.87375757
Si       8.89331393       3.88628578       3.22095557
Si       3.55256542       7.01661500      10.67901003
Si       7.88000421       4.15652617       4.83219785
Si       1.61982150       0.40262889       0.27656654
Si       2.68118222      12.11255708      11.65438804
Si       7.79317326       2.42785950       3.87500319
24
Lattice="8.696823240366763 -3.212676713368989 -1.629064764216687 0.04223126110789092 9.538621166685791 2.932531549947014 0.5068337708642477 6.331692057492641 11.724687628918488" Properties=species:S:1:pos:R:3 unique_starting_index=94 config_type=initial n_minim_iter=3 stress="0.0009279775977811381 0.00015226415761398623 -0.0007507776855110209 0.00015226415761398623 0.0006593736114552391 0.0003464446533302269 -0.0007507776855110209 0.0003464446533302269 0.001062355907143817" pbc="T T T"
Si       9.38815454       8.74426472       8.95418351
Si      -2.09322988       4.50234381       6.62299354
Si       1.45032808       8.60836140       1.75547933
Si       5.54090078      12.07187722       9.43714890
Si       4.50714121       1.12796281       2.07121837
Si       3.74368290       8.01258594      12.39692202
Si       5.82417157       1.81297966       3.24774143
Si       3.04254828      -0.06212018       1.56992135
Si       7.42981661       2.69585198       6.14056528
Si       8.61013641      10.80154299       8.35968943
Si       3.17613039      10.10334277      12.00870999
Si       6.02621924       3.14918049       4.66026544
Si       1.42585101       8.09555906       3.80044556
Si       2.23312025       8.58393977      11.31577939
Si       6.38917069       4.37438368       6.15809554
Si       5.02013770       6.55107526      12.01708667
Si       3.53033137       5.26607874      11.60926216
Si       2.40611692       6.89602217       1.87615544
Si       8.89400713       3.88756551       3.22087489
Si       3.54922072       7.02099492      10.68628336
Si       7.88048476       4.15814942       4.83338803
Si       1.62018740       0.40313371       0.27624385
Si       2.67702773      12.11773859      11.66398231
Si       7.79365120       2.42948364       3.87490653
24
Lattice="8.695264095001265 -3.2130430663893224 -1.6282207553934671 0.04199164378808293 9.537269617478438 2.934597223312162 0.5083386100276184 6.332777828694533 11.726431484892505" Properties=species:S:1:pos:R:3 unique_starting_index=94 config_type=initial n_minim_iter=4 stress="3.552122772469931e-05 -0.0003320824345540315 0.0002687559766585248 -0.0003320824345540315 -0.00032195501588881686 0.001083184831970123 0.0002687559766585248 0.001083184831970123 0.00033577724950677136" pbc="T T T"
Si       9.38750771       8.74373564       8.95780623
Si      -2.09232971       4.50254623       6.62348289
Si       1.44946239       8.60710932       1.75791062
Si       5.54092178      12.07136901       9.44055209
Si       4.50658760       1.12788931       2.07247795
Si       3.74437247       8.01331832      12.39970172
Si       5.82366399       1.81271067       3.24969614
Si       3.04214222      -0.06193944       1.57033192
Si       7.42944959       2.69559872       6.14273519
Si       8.60875620      10.80046470       8.36311045
Si       3.17695852      10.10320372      12.01162969
Si       6.02508853       3.14824156       4.66219629
Si       1.42561507       8.09436821       3.80279363
Si       2.23421717       8.58461899      11.31841393
Si       6.38878175       4.37407059       6.16052266
Si       5.02080438       6.55156088      12.01943331
Si       3.53147253       5.26730659      11.61189577
Si       2.40579341       6.89482061       1.87768106
Si       8.89276511       3.88693653       3.22339174
Si       3.54990035       7.02153132      10.68912874
Si       7.88047195       4.15739397       4.83567638
Si       1.62009030       0.40348368       0.27650465
Si       2.67759979      12.11750848      11.66718386
Si       7.79307430       2.42955291       3.87665569
24
Lattice="8.694154287473516 -3.2107339714697605 -1.6262365447919074 0.04426315154288162 9.537146820172795 2.9298883396622135 0.5103001080059946 6.327873450649008 11.723666889837217" Properties=species:S:1:pos:R:3 unique_starting_index=94 config_type=initial n_minim_iter=5 stress="0.0004930516943261756 0.00018942868909117475 -0.0001611702439430196 0.00018942868909117475 0.00029138085184747173 -0.0003765814786461667 -0.0001611702439430196 -0.0003765814786461667 3.503462848609463e-05" pbc="T T T"
Si       9.38972125       8.74283585       8.95391456
Si      -2.09143622       4.49860096       6.62089145
Si       1.45101849       8.60826169       1.75440377
Si       5.54430530      12.07036698       9.43442807
Si       4.50678245       1.12820764       2.07255304
Si       3.74631762       8.00919611      12.39643388
Si       5.82401857       1.81235908       3.24984315
Si       3.04185051      -0.06194863       1.57026857
Si       7.43017655       2.69383058       6.14207936
Si       8.61033013      10.79985841       8.35724152
Si       3.17980360      10.09881341      12.00696719
Si       6.02465539       3.14636176       4.66123360
Si       1.42785017       8.09381462       3.79919436
Si       2.23676972       8.58115620      11.31472315
Si       6.38985271       4.37258425       6.15905455
Si       5.02249887       6.54714013      12.01639345
Si       3.53318322       5.26322751      11.61087966
Si       2.40792264       6.89546469       1.87368327
Si       8.89325376       3.88800731       3.22228538
Si       3.55178352       7.01810328      10.68690661
Si       7.88281437       4.15675510       4.83397098
Si       1.62036319       0.40458905       0.27616745
Si       2.68062147      12.11404827      11.66137567
Si       7.79397184       2.43034524       3.87549985
24
Lattice="8.685801951040883 -3.2105729885288223 -1.6262644778985045 0.04658496368207856 9.5404351492938 2.9351597658781396 0.5140860113566406 6.332597835702846 11.73683064141144" Properties=species:S:1:pos:R:3 unique_starting_index=94 config_type=initial n_minim_iter=6 stress="-0.0008203411392585404 0.00016695028857586055 5.946482914044096e-05 0.00016695028857586055 0.0008422171410155873 8.896673364643055e-05 5.946482914044096e-05 8.896673364643055e-05 0.00039174645490817255" pbc="T T T"
Si       9.38596576       8.74962739       8.96678942
Si      -2.08766976       4.49965949       6.62683396
Si       1.45135867       8.61205242       1.76080394
Si       5.54449446      12.07843417       9.44723388
Si       4.50387427       1.13029257       2.07694163
Si       3.74800578       8.01506216      12.41251223
Si       5.81940031       1.81331927       3.25516834
Si       3.03962353      -0.06031522       1.57252802
Si       7.42614765       2.69643010       6.15044640
Si       8.60544366      10.80630510       8.36764523
Si       3.18278682      10.10482614      12.02211807
Si       6.01970992       3.14761561       4.66923997
Si       1.43005693       8.09795965       3.80546724
Si       2.23889394       8.58750528      11.32820319
Si       6.38757704       4.37483423       6.16725471
Si       5.02217142       6.55229350      12.03090377
Si       3.53360603       5.26783242      11.62592608
Si       2.40882544       6.89893906       1.87649784
Si       8.88724097       3.89169598       3.22874860
Si       3.55296794       7.02374313      10.70106799
Si       7.87997854       4.15908466       4.84349937
Si       1.61875643       0.40583621       0.27710236
Si       2.68318971      12.12095971      11.67601201
Si       7.78871528       2.43367506       3.88160580
24
Lattice="8.69240972175319 -3.2075739514393486 -1.6269694015411191 0.04604800620342074 9.530614445223431 2.9351782202588623 0.5135282109217872 6.325130105794995 11.73992348702537" Properties=species:S:1:pos:R:3 unique_starting_index=94 config_type=initial n_minim_iter=7 stress="0.00015180186469738237 0.000196340115749474 -5.969238280039373e-05 0.000196340115749474 -0.0012670150302782656 -3.0697279609319416e-05 -5.969238280039373e-05 -3.0697279609319416e-05 0.00034564303500490856" pbc="T T T"
Si       9.39233225       8.74032851       8.96759697
Si      -2.09031054       4.49335623       6.62745887
Si       1.45168653       8.60400565       1.76272378
Si       5.54744567      12.06663313       9.44809918
Si       4.50649053       1.12893329       2.07743609
Si       3.74991826       8.00569948      12.41632180
Si       5.82306437       1.80995809       3.25632653
Si       3.04174934      -0.05974447       1.57279920
Si       7.43142054       2.69191825       6.15110742
Si       8.60954711      10.79418437       8.36578647
Si       3.18484848      10.09329043      12.02484576
Si       6.02235551       3.14217624       4.67106596
Si       1.43102912       8.09017607       3.80635639
Si       2.23914563       8.57851426      11.33058435
Si       6.39255482       4.36804679       6.16746141
Si       5.02458596       6.54407590      12.03374891
Si       3.53505726       5.26103776      11.63002713
Si       2.41156715       6.89274654       1.87493197
Si       8.89370083       3.88771476       3.22857295
Si       3.55498406       7.01610795      10.70461565
Si       7.88705256       4.15262456       4.84603109
Si       1.61932161       0.40597945       0.27744592
Si       2.68368255      12.10794858      11.67789029
Si       7.79371673       2.43085167       3.88195500
24
Lattice="8.695881236681018 -3.213606068626756 -1.6271058443386748 0.041885012572937835 9.538288197461613 2.933290417453196 0.5097316566071182 6.3292707462582145 11.734789480182881" Properties=species:S:1:pos:R:3 unique_starting_index=94 config_type=initial n_minim_iter=8 stress="0.000164122192113263 -0.0007361112660286429 -6.0782849341211045e-05 -0.0007361112660286429 0.00017647484524455442 -0.00013263575355484407 -6.0782849341211045e-05 -0.00013263575355484407 -0.000569706284764894" pbc="T T T"
Si       9.39028899       8.74382810       8.96162743
Si      -2.09380868       4.49622808       6.62358564
Si       1.44811343       8.61113418       1.76340348
Si       5.54239136      12.07484422       9.44249338
Si       4.50608886       1.12794925       2.07596567
Si       3.74606914       8.01016208      12.41092331
Si       5.82304029       1.80794627       3.25485729
Si       3.04220324      -0.06049212       1.57183022
Si       7.43157366       2.68957474       6.14690190
Si       8.60528507      10.79866318       8.35753331
Si       3.18106860      10.09949768      12.01910447
Si       6.02083920       3.14069314       4.66900919
Si       1.42751100       8.09637138       3.80512467
Si       2.23475476       8.58438137      11.32511587
Si       6.39238016       4.36740364       6.16287156
Si       5.02147511       6.54631613      12.02805821
Si       3.53238442       5.26286492      11.62548771
Si       2.41052072       6.89844107       1.87205599
Si       8.89415543       3.88794794       3.22565687
Si       3.55199588       7.02025319      10.70058149
Si       7.88845390       4.15100407       4.84460545
Si       1.61899806       0.40645813       0.27773095
Si       2.67776562      12.11640187      11.67155554
Si       7.79331134       2.42951132       3.87925930
24
Lattice="8.688152780565591 -3.2084297464924263 -1.6298104266649722 0.0479851723920996 9.540651858262807 2.9359680281097886 0.5115359614214208 6.333496979964573 11.737889709298486" Properties=species:S:1:pos:R:3 unique_starting_index=94 config_type=initial n_minim_iter=9 stress="-0.0008099124945450455 0.0006681760766267519 -0.00042960078338079684 0.0006681760766267519 -0.00012529715970885214 0.0005195216977213883 -0.00042960078338079684 0.0005195216977213883 -0.0012560737656886376" pbc="T T T"
Si       9.38892145       8.75503160       8.96216511
Si      -2.09103044       4.49582775       6.62450095
Si       1.45258218       8.61467144       1.76816629
Si       5.54450852      12.08420191       9.44570504
Si       4.50223724       1.13174711       2.07529907
Si       3.74634368       8.01782786      12.41411672
Si       5.81959575       1.81201497       3.25536252
Si       3.03953869      -0.05722527       1.57150164
Si       7.42748812       2.69485799       6.14585189
Si       8.60468398      10.80782544       8.35526708
Si       3.18502462      10.10649669      12.02277027
Si       6.01719838       3.14487602       4.66972109
Si       1.43130383       8.10051743       3.80869802
Si       2.23744287       8.59038265      11.32859562
Si       6.39122772       4.37283622       6.16203841
Si       5.02008040       6.55372844      12.03074602
Si       3.53168126       5.26901157      11.62838040
Si       2.41522529       6.90346867       1.87171201
Si       8.88997096       3.89629717       3.22572539
Si       3.55265654       7.02701616      10.70475060
Si       7.88787450       4.15623371       4.84667206
Si       1.61773107       0.40896301       0.27873047
Si       2.68181958      12.12366290      11.67486421
Si       7.78760829       2.43640142       3.87887430
24
Lattice="8.676955037226591 -3.2141541485123533 -1.6273621793568818 0.03993342311314385 9.53083039478601 2.9418039611143385 0.5137468087248217 6.318348964036059 11.78792841920148" Properties=species:S:1:pos:R:3 unique_starting_index=94 config_type=initial n_minim_iter=10 stress="-0.0015913340940087175 -0.0008082027042311213 5.680878311716968e-05 -0.0008082027042311213 -0.0010469841790228384 0.00015413047300909404 5.680878311716968e-05 0.00015413047300909404 3.550173140731391e-05" pbc="T T T"
Si       9.37477439       8.73505931       9.00008858
Si      -2.08934226       4.48360282       6.64374102
Si       1.44035752       8.60756190       1.78214270
Si       5.52629585      12.06530254       9.48606486
Si       4.49234506       1.12495052       2.08813393
Si       3.74008153       8.00143166      12.46941536
Si       5.80835220       1.79588913       3.27474804
Si       3.03476171      -0.05895361       1.58212232
Si       7.41860868       2.66990991       6.17350838
Si       8.58473781      10.77897325       8.37258690
Si       3.18508372      10.08577777      12.07373878
Si       6.00510574       3.12485927       4.69499295
Si       1.42212049       8.09412351       3.82765296
Si       2.23647916       8.57341380      11.37796740
Si       6.38728601       4.35280539       6.18588636
Si       5.01469146       6.53294515      12.08816961
Si       3.53254845       5.25200704      11.68414711
Si       2.41392990       6.90193171       1.86871587
Si       8.87190434       3.88308232       3.24812331
Si       3.54864882       7.01062101      10.75943762
Si       7.88835141       4.13007113       4.88045881
Si       1.61314661       0.41230894       0.28687088
Si       2.67264577      12.10419640      11.71830455
Si       7.76914859       2.42372374       3.90145840
24
Lattice="8.684431895266627 -3.2105230340502096 -1.6220812763159478 0.04694268207671806 9.529969720723836 2.949992152962186 0.5284550618155837 6.324416379257969 11.800078749261168" Properties=species:S:1:pos:R:3 unique_starting_index=94 config_type=initial n_minim_iter=11 stress="-0.0002875516536601999 -0.00039700791956559365 0.00030213729787055993 -0.00039700791956559365 -0.0009877570900450293 0.0011540970026150702 0.00030213729787055993 0.0011540970026150702 -0.0017398592089147892" pbc="T T T"
Si       9.40059658       8.74621211       9.01638814
Si      -2.08759685       4.48010579       6.64387281
Si       1.44512180       8.60896799       1.80039851
Si       5.54360911      12.07331999       9.50701114
Si       4.49906889       1.12999466       2.09563414
Si       3.75961729       8.01176967      12.48784403
Si       5.81506303       1.79484454       3.28294906
Si       3.03687989      -0.05523841       1.58468498
Si       7.43307725       2.66721127       6.18182464
Si       8.60883945      10.78031519       8.37547659
Si       3.21006506      10.09325197      12.09141937
Si       6.01530331       3.12393079       4.70666957
Si       1.43009689       8.09986684       3.84245889
Si       2.25556896       8.58078447      11.39430654
Si       6.40720284       4.35526543       6.19320202
Si       5.03507620       6.54248918      12.10806621
Si       3.55142429       5.26191097      11.70239856
Si       2.42888939       6.90866265       1.86975140
Si       8.88520956       3.88937079       3.26318024
Si       3.56588954       7.01765385      10.78098474
Si       7.91644749       4.12715781       4.90107835
Si       1.61467466       0.41655529       0.29521119
Si       2.69111684      12.11190612      11.73362069
Si       7.77769592       2.42951987       3.91110744
24
Lattice="8.661006766493571 -3.2036369860068334 -1.6154545272120282 0.053473061595433934 9.519037122221148 2.9548408143227154 0.5457277352767989 6.302022091178499 11.869705182726781" Properties=species:S:1:pos:R:3 unique_starting_index=94 config_type=initial n_minim_iter=12 stress="-0.0005845442752877176 4.928319626067082e-05 0.0003150586774294943 4.928319626067082e-05 -0.0002579476628216404 0.0007427301449159561 0.0003150586774294943 0.0007427301449159561 0.00033301745074269226" pbc="T T T"
Si       9.39859213       8.73637564       9.06694141
Si      -2.08216831       4.45276925       6.66890692
Si       1.44203510       8.60553079       1.82336532
Si       5.54128305      12.05719871       9.56308632
Si       4.48609723       1.13034132       2.11266464
Si       3.77203907       7.99319534      12.56912563
Si       5.80020606       1.78191085       3.31156742
Si       3.02518390      -0.05406353       1.59665781
Si       7.41749801       2.63530371       6.21969080
Si       8.60724273      10.75217425       8.38786336
Si       3.23246052      10.07068598      12.16049828
Si       6.00277909       3.10514571       4.74316561
Si       1.43271564       8.09919162       3.86998592
Si       2.27333041       8.56338483      11.46370023
Si       6.41083478       4.33840925       6.22492181
Si       5.04247760       6.52610424      12.19396963
Si       3.56028933       5.24598769      11.78681982
Si       2.44314888       6.91532296       1.86030347
Si       8.86830969       3.88658787       3.29039908
Si       3.57336659       6.99780314      10.86076917
Si       7.93154333       4.10215523       4.95637796
Si       1.60976920       0.42307173       0.31326157
Si       2.70221976      12.09211924      11.79136813
Si       7.75480509       2.42518075       3.93747710
24
Lattice="8.659512973979965 -3.2183508285485902 -1.6136172060564733 0.039373877865282875 9.516320888221559 2.9678868225164634 0.5454429980954418 6.302648874969089 11.911538076974969" Properties=species:S:1:pos:R:3 unique_starting_index=94 config_type=initial n_minim_iter=13 stress="0.0009306589356312971 -0.0008649331932783804 -0.0001721610434083031 -0.0008649331932783804 0.0011131066870316128 0.001325748899017282 -0.0001721610434083031 0.001325748899017282 0.00037525144844985614" pbc="T T T"
Si       9.39077469       8.72578782       9.09931528
Si      -2.09191682       4.44310753       6.67971980
Si       1.42294078       8.60547228       1.85624781
Si       5.52013430      12.05010526       9.60649195
Si       4.47748655       1.12626722       2.12199971
Si       3.76832600       7.99279613      12.62336487
Si       5.79080391       1.76644494       3.33121589
Si       3.02048898      -0.05474782       1.60771710
Si       7.40414161       2.59942782       6.23592285
Si       8.59329111      10.72787592       8.38764086
Si       3.23343413      10.06861933      12.20590767
Si       5.99127331       3.08579990       4.76915542
Si       1.42252614       8.10603916       3.89679106
Si       2.27285900       8.56423352      11.51183075
Si       6.41176765       4.32115503       6.24173330
Si       5.04171653       6.52543899      12.24940763
Si       3.55707177       5.24312296      11.83823894
Si       2.44633337       6.92144192       1.85819748
Si       8.85323605       3.86830088       3.31223570
Si       3.56731567       6.99343587      10.91554767
Si       7.95121889       4.07014779       4.99734654
Si       1.60366384       0.43115511       0.32792732
Si       2.68843830      12.09332144      11.83235767
Si       7.73956003       2.41181306       3.95021294
24
Lattice="8.644882217240264 -3.1963272927088164 -1.6003824065165517 0.06082475732102286 9.496531121253003 2.9690707094366515 0.5780248453194935 6.277188288715826 11.959728022868331" Properties=species:S:1:pos:R:3 unique_starting_index=94 config_type=initial n_minim_iter=14 stress="0.0023579960252076942 0.0006221137036512138 -0.00023182439890302218 0.0006221137036512138 0.002287443078663893 0.000575966073798078 -0.00023182439890302218 0.000575966073798078 0.0020038940070530686" pbc="T T T"
Si       9.42135043       8.72025320       9.13822257
Si      -2.07965030       4.40872780       6.68889956
Si       1.43448990       8.59610259       1.87832779
Si       5.54855144      12.02916048       9.64798309
Si       4.47812343       1.13470369       2.13966213
Si       3.80365046       7.97472671      12.68540973
Si       5.78832245       1.76398679       3.35618802
Si       3.01728982      -0.04837942       1.62634310
Si       7.40516194       2.57446276       6.26153003
Si       8.62128885      10.70830652       8.38822210
Si       3.28058946      10.04664460      12.25404449
Si       5.99444994       3.07539902       4.80310022
Si       1.44006625       8.09676852       3.92038592
Si       2.31248332       8.54204259      11.56404606
Si       6.43311034       4.30927369       6.26625485
Si       5.07530164       6.51402168      12.31518786
Si       3.58453524       5.22492704      11.90020008
Si       2.47451206       6.92389580       1.85046039
Si       8.85705146       3.87107866       3.33677445
Si       3.59597380       6.97499395      10.97677319
Si       7.98973648       4.04988185       5.04597432
Si       1.59727377       0.44618346       0.34320515
Si       2.72789255      12.06922258      11.87237229
Si       7.73548002       2.41459954       3.97130460
24
Lattice="8.596451692747381 -3.1731186844630717 -1.5793737755007786 0.08370723123800576 9.465795830495303 2.979537440449092 0.6261987804568396 6.236073907213041 12.072432454422042" Properties=species:S:1:pos:R:3 unique_starting_index=94 config_type=initial n_minim_iter=15 stress="0.002965132191624263 0.0014337838622254554 -0.0006665050032042583 0.0014337838622254554 0.0036652771843038554 5.4319450494066875e-05 -0.0006665050032042583 5.4319450494066875e-05 0.003586401121024459" pbc="T T T"
Si       9.43621883       8.69713748       9.22875539
Si      -2.05739165       4.34796165       6.70848995
Si       1.43343035       8.58359478       1.92644537
Si       5.55818568      11.98408066       9.74650205
Si       4.46465066       1.14481261       2.17795580
Si       3.84088590       7.94520468      12.83022028
Si       5.76537965       1.75916525       3.41115495
Si       3.00194108      -0.03999841       1.65766018
Si       7.38124211       2.52119172       6.31620388
Si       8.62284234      10.67211771       8.40144406
Si       3.34064378      10.01494821      12.36556949
Si       5.97461756       3.04840458       4.87551966
Si       1.45593181       8.08521570       3.97350835
Si       2.36397265       8.51192374      11.68500351
Si       6.44714294       4.27958663       6.32729151
Si       5.10800395       6.48643838      12.45928898
Si       3.62270073       5.19584674      12.04765035
Si       2.50625047       6.92659203       1.84477387
Si       8.82753249       3.85791788       3.38882685
Si       3.63071271       6.94247872      11.11380271
Si       8.03211145       3.98761213       5.14559024
Si       1.57964723       0.46632686       0.38194552
Si       2.77394340      12.03335053      11.97262924
Si       7.69596172       2.40632125       4.01830122
24
Lattice="8.522799747626118 -3.131417051479416 -1.544815950463208 0.12026335167186238 9.406839367342481 2.986676487776406 0.7003317142299292 6.156277153411277 12.238860102364898" Properties=species:S:1:pos:R:3 unique_starting_index=94 config_type=initial n_minim_iter=16 stress="0.0022223623469917577 0.0012371167801581125 -0.0015546458311213344 0.0012371167801581125 0.0033421311121029367 -0.0009580788328355175 -0.0015546458311213344 -0.0009580788328355175 0.004446138928464785" pbc="T T T"
Si       9.46162802       8.63790586       9.36079818
Si      -2.02604076       4.24483985       6.72988617
Si       1.44411563       8.55294000       1.99188945
Si       5.57439332      11.88368319       9.88121719
Si       4.44706277       1.15721424       2.23393207
Si       3.89503437       7.87897346      13.04526805
Si       5.73243858       1.76153948       3.48456460
Si       2.98374447      -0.02426544       1.70824907
Si       7.34045683       2.44703619       6.40095058
Si       8.63374593      10.60742245       8.42487499
Si       3.42995281       9.95468773      12.52228326
Si       5.94521180       3.00745519       4.98993104
Si       1.47883468       8.04954099       4.04524753
Si       2.44097379       8.44636022      11.86349715
Si       6.46792544       4.22764020       6.42644760
Si       5.16077808       6.42391210      12.66918465
Si       3.67874338       5.13390109      12.25884698
Si       2.54560931       6.91974032       1.84590016
Si       8.78597538       3.82789467       3.46346845
Si       3.68310780       6.87730322      11.32345547
Si       8.09008123       3.87578892       5.27438585
Si       1.56160341       0.49131758       0.43520723
Si       2.85062754      11.96014032      12.11941472
Si       7.63979821       2.39065235       4.07950159
24
Lattice="8.47524702352934 -3.1013780930735173 -1.5165864269932199 0.14611803287997857 9.365935571564844 2.979986278935336 0.7492255433167809 6.1034972555159985 12.299432753256701" Properties=species:S:1:pos:R:3 unique_starting_index=94 config_type=initial n_minim_iter=17 stress="-0.0040782012631424445 -0.0009690255828214157 -0.002503086668771995 -0.0009690255828214157 -0.0022997647824062966 -0.005062896141400893 -0.002503086668771995 -0.005062896141400893 -0.003421137904989814" pbc="T T T"
Si       9.48292654       8.58375307       9.41525214
Si      -1.99713750       4.19477408       6.71049580
Si       1.45755326       8.52951821       2.01292794
Si       5.58093093      11.79210421       9.92209848
Si       4.44289954       1.16721487       2.25739640
Si       3.92533707       7.83726314      13.13801016
Si       5.71541349       1.79069061       3.50735694
Si       2.98183173      -0.01384314       1.73482550
Si       7.30932785       2.40656841       6.43192917
Si       8.64859996      10.58260480       8.44349662
Si       3.47926771       9.92433910      12.56411594
Si       5.92848213       2.98598583       5.05255543
Si       1.49753984       8.01941764       4.06522178
Si       2.49117500       8.40297262      11.94433315
Si       6.48474056       4.20266429       6.48533078
Si       5.19866998       6.37777205      12.75029499
Si       3.71884866       5.08920736      12.35212344