10
Lattice="7.476130643527447 0.16982358215992682 -1.1583654015232143 -1.048286005581459 3.8678351738890053 0.034813482382936606 -5.287876798304824 -1.8340743936777248 8.192793480300816" Properties=species:S:1:pos:R:3 unique_starting_index=68 config_type=initial n_minim_iter=4 energy=-1627.307783957082 free_energy=-1627.307783957082 pbc="T T T"
Si      -0.89775077       0.85878062       2.50001744
Si      -4.07226081       1.87841997       6.55408938
Si       4.41770249       3.50432463      -0.10811096
Si       1.93560913       0.16759546       5.41021776
Si      -1.77317544       2.33076821       6.00545198
Si      -0.52871192       0.61826620       4.81284816
Si       2.38121760       0.27672327       0.67655898
Si       1.03836406       1.96719225       1.72141789
Si       4.50713579       1.22095869       0.24692365
Si       1.44911216       2.19854394       4.06244867
