10
Lattice="4.020733485536314 -0.6858406343197512 5.793786869684166e-17 -3.0087321322617164 6.963583913838359 -6.066899306986776e-16 3.7130783822027625e-18 6.430992078041671e-16 7.620196668888839" Properties=species:S:1:pos:R:3 unique_starting_index=14 config_type=initial n_minim_iter=1 energy=-1626.584564252581 free_energy=-1626.584564252581 pbc="T T T"
Si      -0.34635941       3.54893919       0.95136050
Si       1.35836076       2.72880409       0.95136050
Si       1.12279614       0.51085718       0.24912007
Si      -0.11079479       5.76688609       0.24912007
Si       0.04890907       1.19534500       4.64835347
Si       0.96309228       5.08239828       4.64835347
Si       0.47975292       4.39868219       2.42632086
Si       0.53224843       1.87906109       2.42632086
Si      -1.14382106       4.65596039       5.70137014
Si       2.15582241       1.62178289       5.70137014
10
Lattice="4.020784918886143 -0.6857461746334337 5.792939741435582e-17 -3.0086315693961407 6.963440014083971 -6.066783440304511e-16 3.712110727989448e-18 6.431171136948321e-16 7.620413375670722" Properties=species:S:1:pos:R:3 unique_starting_index=14 config_type=initial n_minim_iter=2 stress="-0.00010874012185393298 -3.2078030449103796e-05 -1.1656224533484387e-17 -3.2078030449103796e-05 0.00027365111299154415 -6.354748917351428e-18 -1.1656224533484387e-17 -6.354748917351428e-18 0.00017972707255124772" pbc="T T T"
Si      -0.34629008       3.54887972       0.95138060
Si       1.35844343       2.72881412       0.95138060
Si       1.12282510       0.51087719       0.24912908
Si      -0.11067175       5.76681665       0.24912908
Si       0.04893591       1.19532900       4.64848273
Si       0.96321744       5.08236483       4.64848273
Si       0.47985780       4.39865255       2.42639702
Si       0.53229555       1.87904129       2.42639702
Si      -1.14374007       4.65588247       5.70153309
Si       2.15589342       1.62181137       5.70153309
10
Lattice="4.021288074263765 -0.6851587070130428 5.788015889199054e-17 -3.0083388221211944 6.961398779607812 -6.065054475634147e-16 3.7133502159185525e-18 6.430981559009725e-16 7.620179947309324" Properties=species:S:1:pos:R:3 unique_starting_index=14 config_type=initial n_minim_iter=3 stress="-0.0004912977139965341 0.00018803117357520663 -3.2330061432732252e-15 0.00018803117357520663 -0.00015266067964299238 -3.289662405895644e-15 -3.2330061432732252e-15 -3.289662405895644e-15 -5.936174963893344e-05" pbc="T T T"
Si      -0.34596241       3.54790754       0.95139104
Si       1.35891166       2.72833253       0.95139104
Si       1.12303072       0.51088709       0.24914565
Si      -0.11008147       5.76535298       0.24914565
Si       0.04907158       1.19499387       4.64830222
Si       0.96387767       5.08124620       4.64830222
Si       0.48033730       4.39766499       2.42628667
Si       0.53261195       1.87857508       2.42628667
Si      -1.14342615       4.65460262       5.70136879
Si       2.15637540       1.62163745       5.70136879
10
Lattice="4.021563863713567 -0.685059511201474 5.787173052745858e-17 -3.0084477134295304 6.960963103018871 -6.064686101269595e-16 3.713496925218527e-18 6.430954979290029e-16 7.6201485156006" Properties=species:S:1:pos:R:3 unique_starting_index=14 config_type=initial n_minim_iter=4 stress="4.786473363878198e-05 -1.6109305579941728e-06 -9.89358125084972e-16 -1.6109305579941728e-06 -8.641144937270559e-05 -1.0107071363020243e-15 -9.89358125084972e-16 -1.0107071363020243e-15 -1.4492939740160372e-05" pbc="T T T"
Si      -0.34594908       3.54769306       0.95139969
Si       1.35906522       2.72821053       0.95139969
Si       1.12311525       0.51088150       0.24915238
Si      -0.10999910       5.76502210       0.24915238
Si       0.04909512       1.19491460       4.64827095
Si       0.96402102       5.08098899       4.64827095
Si       0.48042290       4.39744455       2.42626545
Si       0.53269324       1.87845905       2.42626545
Si      -1.14343845       4.65432335       5.70134825
Si       2.15655460       1.62158024       5.70134825
10
Lattice="4.022588349323733 -0.6845621997291503 5.782758428098115e-17 -3.0082091817852428 6.961806454587831 -6.065421335889932e-16 3.7099402264781436e-18 6.431495022456934e-16 7.620814067185939" Properties=species:S:1:pos:R:3 unique_starting_index=14 config_type=initial n_minim_iter=5 stress="0.0001981546949009682 6.607871088842624e-05 -3.2850746226603532e-15 6.607871088842624e-05 0.0001478359614036427 -3.3049553462495454e-15 -3.2850746226603532e-15 -3.3049553462495454e-15 1.5652282081407503e-05" pbc="T T T"
Si      -0.34559463       3.54774661       0.95198696
Si       1.35997380       2.72949764       0.95198696
Si       1.12333940       0.51125900       0.24939996
Si      -0.10896023       5.76598525       0.24939996
Si       0.04942522       1.19489254       4.64834264
Si       0.96495395       5.08235172       4.64834264
Si       0.48065591       4.39895331       2.42604022
Si       0.53372325       1.87829095       2.42604022
Si      -1.14299060       4.65506769       5.70188767
Si       2.15736977       1.62217657       5.70188767
10
Lattice="4.021934400343635 -0.6843565755688942 5.780899761770525e-17 -3.0075570997610366 6.960672677533745 -6.064488262489459e-16 3.706650658724915e-18 6.431995559707927e-16 7.621430758743039" Properties=species:S:1:pos:R:3 unique_starting_index=14 config_type=initial n_minim_iter=6 stress="2.5886689782648036e-05 4.325824751126307e-06 -4.291289717949672e-15 4.325824751126307e-06 5.188471949335898e-06 -4.3183796865377335e-15 -4.291289717949672e-15 -4.3183796865377335e-15 8.949843943685124e-05" pbc="T T T"
Si      -0.34606019       3.54633294       0.95260871
Si       1.36043749       2.72998316       0.95260871
Si       1.12290961       0.51140674       0.24979945
Si      -0.10853231       5.76490936       0.24979945
Si       0.04968852       1.19436536       4.64820380
Si       0.96468878       5.08195074       4.64820380
Si       0.47989395       4.39939346       2.42578445
Si       0.53448335       1.87692264       2.42578445
Si      -1.14261278       4.65438658       5.70239212
Si       2.15699008       1.62192952       5.70239212
10
Lattice="4.022044901769544 -0.6842718413513246 5.780605132208833e-17 -3.00746407841806 6.960842439106762 -6.064575061021184e-16 3.715686757821867e-18 6.430623204993242e-16 7.619739260489218" Properties=species:S:1:pos:R:3 unique_starting_index=14 config_type=initial n_minim_iter=7 stress="4.354602616060481e-06 2.8724486931873666e-05 -4.7372515824342795e-15 2.8724486931873666e-05 2.3359251125440478e-05 -4.8078350020293776e-15 -4.7372515824342795e-15 -4.8078350020293776e-15 -7.514297018831638e-06" pbc="T T T"
Si      -0.34615298       3.54604937       0.95252622
Si       1.36073381       2.73052123       0.95252622
Si       1.12293418       0.51157007       0.24992729
Si      -0.10835336       5.76500053       0.24992729
Si       0.04984991       1.19438995       4.64695854
Si       0.96473091       5.08218065       4.64695854
Si       0.47973019       4.40018477       2.42513830
Si       0.53485064       1.87638583       2.42513830
Si      -1.14251259       4.65456151       5.70113575
Si       2.15709341       1.62200908       5.70113575
