4
Lattice="4.160167646103808 0.0 0.0 0.0 4.160167646103808 0.0 0.0 0.0 4.160167646103808" Properties=species:S:1:pos:R:3 n_minim_iter=1 stress="0.044018411664839045 1.58557761537244e-17 -2.323479344843557e-18 1.58557761537244e-17 0.044018411664839 3.893021526156697e-19 -2.323479344843557e-18 3.893021526156697e-19 0.044018411664839" pbc="T T T"
Al       0.00000000       0.00000000       0.00000000
Al       2.08008382       2.08008382       0.00000000
Al       2.08008382       0.00000000       2.08008382
Al       0.00000000       2.08008382       2.08008382
