4
Lattice="4.279949922260316 0.0 0.0 0.0 4.279949922260316 0.0 0.0 0.0 4.279949922260316" Properties=species:S:1:pos:R:3 n_minim_iter=1 stress="0.06491199808172467 -7.46891918204281e-18 -7.561258982662415e-19 -7.46891918204281e-18 0.06491199808172461 -6.852230316910267e-19 -7.561258982662415e-19 -6.852230316910267e-19 0.06491199808172475" pbc="T T T"
Al       0.00000000       0.00000000       0.00000000
Al       2.13997496       2.13997496       0.00000000
Al       2.13997496       0.00000000       2.13997496
Al       0.00000000       2.13997496       2.13997496
