4
Lattice="3.825862365544777 0.0 0.0 0.0 3.825862365544777 0.0 0.0 0.0 3.825862365544777" Properties=species:S:1:pos:R:3 n_minim_iter=1 stress="-0.060967049116228585 -1.3586188880950035e-17 -1.8793363140126042e-17 -1.3586188880950035e-17 -0.060967049116228564 3.440471366549625e-17 -1.8793363140126042e-17 3.440471366549625e-17 -0.06096704911622855" pbc="T T T"
Al       0.00000000       0.00000000       0.00000000
Al       1.91293118       1.91293118       0.00000000
Al       1.91293118       0.00000000       1.91293118
Al       0.00000000       1.91293118       1.91293118
