4
Lattice="3.789072948743637 0.0 0.0 0.0 3.789072948743637 0.0 0.0 0.0 3.789072948743637" Properties=species:S:1:pos:R:3 n_minim_iter=1 stress="-0.08358690905335456 4.219229201297893e-17 7.621388038250113e-18 4.219229201297893e-17 -0.08358690905335453 -1.0294112412688273e-17 7.621388038250113e-18 -1.0294112412688273e-17 -0.08358690905335511" pbc="T T T"
Al       0.00000000       0.00000000       0.00000000
Al       1.89453647       1.89453647       0.00000000
Al       1.89453647       0.00000000       1.89453647
Al       0.00000000       1.89453647       1.89453647
