4
Lattice="4.279949922260316 0.0 0.0 0.0 4.279949922260316 0.0 0.0 0.0 4.279949922260316" Properties=species:S:1:pos:R:3 n_minim_iter=1 stress="0.06850629806555715 -1.3119647753554124e-17 -2.228946462228536e-17 -1.3119647753554124e-17 0.06850629806555719 -3.959283795675527e-18 -2.228946462228536e-17 -3.959283795675527e-18 0.06850629806555751" pbc="T T T"
Al       0.00000000       0.00000000       0.00000000
Al       2.13997496       2.13997496       0.00000000
Al       2.13997496       0.00000000       2.13997496
Al       0.00000000       2.13997496       2.13997496
