4
Lattice="4.220908588980298 0.0 0.0 0.0 4.220908588980298 0.0 0.0 0.0 4.220908588980298" Properties=species:S:1:pos:R:3 n_minim_iter=1 stress="0.05579432365855512 -7.708271863657138e-18 1.8170063515571975e-19 -7.708271863657138e-18 0.05579432365855512 -4.74443002292833e-18 1.8170063515571975e-19 -4.74443002292833e-18 0.05579432365855502" pbc="T T T"
Al       0.00000000       0.00000000       0.00000000
Al       2.11045429       2.11045429       0.00000000
Al       2.11045429       0.00000000       2.11045429
Al       0.00000000       2.11045429       2.11045429
