4
Lattice="3.897390320749315 0.0 0.0 0.0 3.897390320749315 0.0 0.0 0.0 3.897390320749315" Properties=species:S:1:pos:R:3 n_minim_iter=1 stress="-0.04095015155904021 2.5520311926711555e-18 5.1464203475644774e-18 2.5520311926711555e-18 -0.04095015155904019 1.4480259269013172e-17 5.1464203475644774e-18 1.4480259269013172e-17 -0.040950151559039936" pbc="T T T"
Al       0.00000000       0.00000000       0.00000000
Al       1.94869516       1.94869516       0.00000000
Al       1.94869516       0.00000000       1.94869516
Al       0.00000000       1.94869516       1.94869516
