2
Lattice="2.7692356616961376 -8.546391633714134e-16 -1.90930206239788e-16 -1.3846178308480688 2.3982284320840135 6.984732394188397e-17 -3.4367437123161843e-16 -5.324555413607206e-17 4.976033544647981" Properties=species:S:1:pos:R:3:forces:R:3 n_minim_iter=1 energy=-325.0821849846343 stress="0.08777708485258985 -5.590572651246235e-16 5.810697823697609e-17 -5.590572651246235e-16 0.08777708484813013 5.924416935964474e-17 5.810697823697609e-17 5.924416935964474e-17 0.08718604180266579" free_energy=-325.0821849846343 pbc="T T T"
Si      -0.00000000      -0.00000000      -0.00000000       0.00000000      -0.00000000      -0.00000000
Si      -0.00000000       1.59881896       2.48801677      -0.00000000       0.00000000       0.00000000
