2
Lattice="2.684625411532352 -8.285268196612599e-16 -1.8509659202730995e-16 -1.342312705766176 2.324953806021944 6.771323342956764e-17 -3.3317386564915797e-16 -5.161870824575044e-17 4.823997569934951" Properties=species:S:1:pos:R:3:forces:R:3 n_minim_iter=2 energy=-325.23849509993556 stress="0.001310031403321924 0.0013100313475013254 0.0030781395248438825 -2.640106426837882e-16 -8.168695696574997e-17 -6.551446174225151e-16" pbc="T T T"
Si      -0.00000000      -0.00000000      -0.00000000       0.00000000      -0.00000000       0.00000000
Si      -0.00000000       1.54996921       2.41199879      -0.00000000       0.00000000      -0.00000000
