2
Lattice="2.668761065574245 2.609380771242256e-53 1.1390327381397533e-35 -1.3469358785395064e-52 2.668761065574245 2.544499866131794e-17 -1.67396806600599e-35 -3.739498767013079e-17 3.9221179953681675" Properties=species:S:1:pos:R:3:tags:I:1 spacegroup="P 1" unit_cell=conventional n_minim_iter=1 energy=-1704.2350805041613 free_energy=-1704.2350805041613 pbc="T T T"
Ti       1.33438053       1.33438053       1.96105900        0
Al       0.00000000       0.00000000       0.00000000        1
2
Lattice="2.5475505659666005 2.490867221629797e-53 1.2820860035817844e-35 -1.259166053444575e-52 2.5475505659666005 2.792390761803866e-17 -1.556946563330568e-35 -3.569657217809314e-17 4.304219545360158" Properties=species:S:1:pos:R:3:tags:I:1 spacegroup="P 1" unit_cell=conventional n_minim_iter=2 stress="0.7012189015214457 6.458379393818358e-18 2.3855313192008246e-17 6.458379393818358e-18 0.7012189015214455 -1.9818271914013277e-17 2.3855313192008246e-17 -1.9818271914013277e-17 0.6806415765885645" pbc="T T T"
Ti       1.27377528       1.27377528       2.15210978        0
Al       0.00000000      -0.00000000       0.00000001        1
2
Lattice="2.545649082765516 2.007959626487082e-52 1.84946762049275e-35 -5.500295163961229e-53 2.545649082765516 5.2593988459773856e-17 -7.017133004897399e-36 5.248790304627959e-19 4.310652056346062" Properties=species:S:1:pos:R:3:tags:I:1 spacegroup="P 1" unit_cell=conventional n_minim_iter=3 stress="0.6995046852636138 -3.9743873192728365e-18 1.599887897345803e-17 -3.9743873192728365e-18 0.6995046852636139 4.554191542071628e-18 1.599887897345803e-17 4.554191542071628e-18 0.6965643577929234" pbc="T T T"
Ti       1.27282454       1.27282454       2.15532603        0
Al       0.00000000       0.00000000       0.00000001        1
