2
Lattice="2.811344725592945 -1.2685195172022361e-51 1.1059709785193026e-34 5.310494288258564e-53 2.811344725592945 4.0070042954770456e-17 -1.7552503849711479e-34 -5.307444465739394e-17 4.776173755849507" Properties=species:S:1:pos:R:3:tags:I:1 spacegroup="P 1" unit_cell=conventional n_minim_iter=3 stress="-0.4307535133978475 2.813501227291356e-18 -6.641811725648582e-18 2.813501227291356e-18 -0.4307535133978475 1.2978792024656772e-18 -6.641811725648582e-18 1.2978792024656772e-18 -0.4286163140619359" pbc="T T T"
Ti       1.40567236       1.40567236       2.38808688        0
Al       0.00000000       0.00000000       0.00000001        1
