2
Lattice="2.861356785000671 -7.960021639676757e-68 1.2319740400755745e-35 -1.4556664953688146e-52 2.861356785000671 3.380900138907308e-17 -1.786637093416844e-35 -4.903059156132388e-17 4.149605432650642" Properties=species:S:1:pos:R:3:tags:I:1 spacegroup="P 1" unit_cell=conventional n_minim_iter=1 stress="0.08744109013104744 -4.1776230344629227e-19 -5.027566095866026e-19 -4.1776230344629227e-19 0.08744109013104744 1.2742498795429423e-18 -5.027566095866026e-19 1.2742498795429423e-18 0.09961220068675822" pbc="T T T"
Ti       1.43067839       1.43067839       2.07480272        0
Al       0.00000000      -0.00000000       0.00000001        1
