2
Lattice="2.8042692431486356 -9.220638245227418e-52 1.0369885494295147e-34 -9.260631110444937e-52 2.8042692431486356 4.683104934397188e-17 -1.642076513464612e-34 -8.309207454201669e-17 4.608293562274358" Properties=species:S:1:pos:R:3:tags:I:1 spacegroup="P 1" unit_cell=conventional n_minim_iter=2 stress="-0.12265176208715761 5.475352743040767e-18 -1.35156430049161e-18 5.475352743040767e-18 -0.12265176208715761 3.024023288930472e-17 -1.35156430049161e-18 3.024023288930472e-17 -0.13365531430330904" pbc="T T T"
Ti       1.40213462       1.40213462       2.30414679        0
Al       0.00000000      -0.00000000       0.00000001        1
