2
Lattice="2.692590550251427 2.632680046665353e-53 1.1492032114468007e-35 -1.3657536762324632e-52 2.692590550251427 2.5672198171057612e-17 -1.6993826368943167e-35 -3.735877183262615e-17 3.957138759076969" Properties=species:S:1:pos:R:3:tags:I:1 spacegroup="P 1" unit_cell=conventional n_minim_iter=2 stress="-0.030831882462393084 7.2759557337487305e-19 1.160515644311762e-19 7.2759557337487305e-19 -0.03083188246239313 -4.837247724114965e-19 1.160515644311762e-19 -4.837247724114965e-19 -0.030829596359370715" pbc="T T T"
Ti       1.34629528       1.34629528       1.97856938        0
Al      -0.00000000      -0.00000000       0.00000000        1
