2
Lattice="2.3291884635023172 -4.995491729982157e-50 -3.5038058111984006e-33 -5.648706177995502e-50 2.3291884635023172 8.553358497305642e-17 -1.2120315331103818e-33 -1.9231190773523318e-17 4.453270079783888" Properties=species:S:1:pos:R:3:tags:I:1 spacegroup="P 1" unit_cell=conventional n_minim_iter=3 stress="-1.5442600426430309 3.911273118251144e-17 9.648388503386711e-17 3.911273118251144e-17 -1.5442600426430304 -1.785210703880552e-17 9.648388503386711e-17 -1.785210703880552e-17 -1.544310275296067" pbc="T T T"
Ti       1.16459423       1.16459423       2.22663505        0
Al      -0.00000000       0.00000000       0.00000001        1
