2
Lattice="2.835974772894089 6.376610377211114e-68 -5.388779644124222e-51 -1.2761043837008548e-67 2.835974772894089 -3.3599615176227965e-17 7.765542723359622e-51 4.8418986184365463e-17 4.086803453782397" Properties=species:S:1:pos:R:3:tags:I:1 spacegroup="P 1" unit_cell=conventional n_minim_iter=1 energy=-1704.233075390024 free_energy=-1704.233075390024 pbc="T T T"
Ti       1.41798739       1.41798739       2.04340173        0
Al       0.00000000       0.00000000       0.00000001        1
