2
Lattice="2.7913063079404767 6.2761745764840705e-68 -5.3039028261154866e-51 -1.2560049016866604e-67 2.7913063079404767 -3.307039917356847e-17 7.643230326119862e-51 4.765635535699086e-17 4.022433615731515" Properties=species:S:1:pos:R:3:tags:I:1 spacegroup="P 1" unit_cell=conventional n_minim_iter=1 energy=-1704.2873955535783 free_energy=-1704.2873955535783 pbc="T T T"
Ti       1.39565315       1.39565315       2.01121681        0
Al       0.00000000       0.00000000       0.00000000        1
