2
Lattice="2.6728856437064614 6.009909007534647e-68 -5.078885709966491e-51 -1.2027191213637346e-67 2.6728856437064614 -3.166739348211947e-17 7.318967664749496e-51 4.563454311793529e-17 3.8517825985869254" Properties=species:S:1:pos:R:3:tags:I:1 spacegroup="P 1" unit_cell=conventional n_minim_iter=1 stress="-0.1016856113886913 -3.479740116736737e-17 -1.2607754046147596e-19 -3.479740116736737e-17 -0.1016856113886913 -7.312497346765606e-18 -1.2607754046147596e-19 -7.312497346765606e-18 -0.10321993317703917" pbc="T T T"
Ti       1.33644282       1.33644282       1.92589130        0
Al       0.00000000       0.00000000       0.00000000        1
