2
Lattice="2.697408900178245 6.065048867450045e-68 -5.125483594597153e-51 -1.2137538581270412e-67 2.697408900178245 -3.195793625711002e-17 7.386117907998379e-51 4.605323203846162e-17 3.887122027627261" Properties=species:S:1:pos:R:3:tags:I:1 spacegroup="P 1" unit_cell=conventional n_minim_iter=1 stress="-0.04556968672655869 -2.625108578483566e-17 1.1447757728151709e-17 -2.625108578483566e-17 -0.04556968672655863 1.6050002683747096e-19 1.1447757728151709e-17 1.6050002683747096e-19 -0.04825727292049038" pbc="T T T"
Ti       1.34870445       1.34870445       1.94356102        0
Al      -0.00000000      -0.00000000       0.00000000        1
