2
Lattice="2.962180860140938 6.660381253206672e-68 -5.628590237794051e-51 -1.3328933730546234e-67 2.962180860140938 -3.509485977604656e-17 8.1111236403095e-51 5.057372001810551e-17 4.268673715174898" Properties=species:S:1:pos:R:3:tags:I:1 spacegroup="P 1" unit_cell=conventional n_minim_iter=1 stress="0.10954011330877078 -2.3717013933703415e-17 -7.401934512851035e-19 -2.3717013933703415e-17 0.10954011330877085 -6.785030085651259e-18 -7.401934512851035e-19 -6.785030085651259e-18 0.10759728508885055" pbc="T T T"
Ti       1.48109043       1.48109043       2.13433686        0
Al       0.00000000       0.00000000       0.00000001        1
