2
Lattice="2.9821962028311595 6.705385194398877e-68 -5.666622406588404e-51 -1.3418996825579344e-67 2.9821962028311595 -3.533199440024686e-17 8.165930192282098e-51 5.091544470848567e-17 4.297516980078683" Properties=species:S:1:pos:R:3:tags:I:1 spacegroup="P 1" unit_cell=conventional n_minim_iter=1 stress="0.10954011330877078 -2.3717013933703415e-17 -7.401934512851035e-19 -2.3717013933703415e-17 0.10954011330877085 -6.785030085651259e-18 -7.401934512851035e-19 -6.785030085651259e-18 0.10759728508885055" pbc="T T T"
Ti       1.49109810       1.49109810       2.14875850        0
Al      -0.00000000       0.00000000       0.00000001        1
