2
Lattice="2.8577908207804903 6.425663153939521e-68 -5.430233424280917e-51 -1.2859209570388663e-67 2.8577908207804903 -3.385808391179476e-17 7.825280014937794e-51 4.879145456148407e-17 4.118241638882698" Properties=species:S:1:pos:R:3:tags:I:1 spacegroup="P 1" unit_cell=conventional n_minim_iter=1 stress="0.06399283300484629 -1.137152554663938e-17 -1.2911585986314126e-18 -1.137152554663938e-17 0.06399283300484629 1.096014982420785e-17 -1.2911585986314126e-18 1.096014982420785e-17 0.060710724967479916" pbc="T T T"
Ti       1.42889541       1.42889541       2.05912082        0
Al       0.00000000       0.00000000       0.00000001        1
