2
Lattice="2.900450704465887 6.521582715565704e-68 -5.511293635049288e-51 -1.3051166371624774e-67 2.900450704465887 -3.436350296170727e-17 7.942092460696768e-51 4.9519792605437104e-17 4.179716995310329" Properties=species:S:1:pos:R:3:tags:I:1 spacegroup="P 1" unit_cell=conventional n_minim_iter=1 stress="0.07536393244397678 -1.0370611035049565e-17 -3.844265528081758e-18 -1.0370611035049565e-17 0.07536393244397672 -8.295902162365112e-18 -3.844265528081758e-18 -8.295902162365112e-18 0.07036066122191215" pbc="T T T"
Ti       1.45022535       1.45022535       2.08985850        0
Al       0.00000000      -0.00000000       0.00000001        1
