2
Lattice="2.835974772894089 6.37661037721111e-68 -5.388779644124223e-51 -1.2761043837008548e-67 2.835974772894089 -3.3599615176227965e-17 7.765542723359623e-51 4.8418986184365476e-17 4.086803453782397" Properties=species:S:1:pos:R:3:tags:I:1 spacegroup="P 1" unit_cell=conventional n_minim_iter=1 stress="0.0365711019489683 -2.3606450681096008e-17 6.540370496632841e-19 -2.3606450681096008e-17 0.036571101948968385 6.700120721666999e-18 6.540370496632841e-19 6.700120721666999e-18 0.034589970939075586" pbc="T T T"
Ti       1.41798739       1.41798739       2.04340173        0
Al       0.00000000      -0.00000000       0.00000001        1
