4
Lattice="1.7989057365190362 -3.1157961336780824 4.730312460176678e-18 1.7989057365190362 3.1157961336780824 -4.730312460176622e-18 -9.303538761862865e-32 9.093430067556652e-18 5.989725728457893" Properties=species:S:1:pos:R:3:forces:R:3 cutoff=-1.0 nneightol=1.2 n_minim_iter=1 energy=-651.6626774406075 stress="-0.1713303970773846 -8.446809787814607e-16 1.0821871788692698e-18 -8.446809787814607e-16 -0.1713303970773862 2.395088894499135e-17 1.0821871788692698e-18 2.395088894499135e-17 -0.17801420066671503" free_energy=-651.6626774406075 pbc="T T T"
Si       1.79890574       1.03859871       0.39138259      -0.00000000       0.00000000       0.13026519
Si       1.79890574      -1.03859871       3.38624545       0.00000000      -0.00000000       0.13026519
Si       1.79890574       1.03859871       2.60348027      -0.00000000       0.00000000      -0.13026519
Si       1.79890574      -1.03859871      -0.39138259       0.00000000      -0.00000000      -0.13026519
4
Lattice="1.7950654538905968 -3.1091445690502013 1.1754704397130589e-17 1.7950654538905968 3.1091445690502013 -1.1754704397130569e-17 -8.966941525042421e-32 -4.390541698973148e-18 6.015381444348166" Properties=species:S:1:pos:R:3:forces:R:3 cutoff=-1.0 nneightol=1.2 n_minim_iter=2 energy=-651.664331942207 stress="-0.1741414842158711 -9.082591169693126e-18 -9.064849263940524e-18 -9.082591169693126e-18 -0.17414148421586945 5.885422433466716e-17 -9.064849263940524e-18 5.885422433466716e-17 -0.17052754820447819" free_energy=-651.664331942207 pbc="T T T"
Si       1.79506545       1.03638152       0.39492790       0.00000000      -0.00000000       0.19504740
Si       1.79506545      -1.03638152       3.40261862      -0.00000000       0.00000000       0.19504740
Si       1.79506545       1.03638152       2.61276283       0.00000000      -0.00000000      -0.19504740
Si       1.79506545      -1.03638152      -0.39492790      -0.00000000       0.00000000      -0.19504740
4
Lattice="1.7925947220696155 -3.1048651360043835 2.48129287800859e-17 1.7925947220696155 3.1048651360043835 -2.481292878008586e-17 -9.832592166278935e-32 -2.9384166083019616e-17 6.031974862346893" Properties=species:S:1:pos:R:3:forces:R:3 cutoff=-1.0 nneightol=1.2 n_minim_iter=3 energy=-651.6667651644055 stress="-0.1717282470224287 -1.362388675453969e-16 -6.518358128693522e-17 -1.362388675453969e-16 -0.17172824702242803 -1.1433812378649487e-16 -6.518358128693522e-17 -1.1433812378649487e-16 -0.170054972846076" free_energy=-651.6667651644055 pbc="T T T"
Si       1.79259472       1.03495505       0.40171029       0.00000000      -0.00000000       0.06110229
Si       1.79259472      -1.03495505       3.41769772       0.00000000       0.00000000       0.06110229
Si       1.79259472       1.03495505       2.61427715      -0.00000000      -0.00000000      -0.06110229
Si       1.79259472      -1.03495505      -0.40171029      -0.00000000       0.00000000      -0.06110229
4
Lattice="1.7918822157337337 -3.1036310388299215 3.219954688908801e-17 1.7918822157337337 3.1036310388299215 -3.219954688908801e-17 -9.469516473155568e-32 -4.353438865404792e-17 6.036772805806518" Properties=species:S:1:pos:R:3:forces:R:3 cutoff=-1.0 nneightol=1.2 n_minim_iter=4 energy=-651.6669848199224 stress="-0.1704643955905696 6.357813818785188e-17 -3.1700280262215363e-17 6.357813818785188e-17 -0.17046439559056936 1.7369762093721806e-16 -3.1700280262215363e-17 1.7369762093721806e-16 -0.17048472905024178" free_energy=-651.6669848199224 pbc="T T T"
Si       1.79188222       1.03454368       0.40425319       0.00000000      -0.00000000      -0.00190586
Si       1.79188222      -1.03454368       3.42263959       0.00000000       0.00000000      -0.00190586
Si       1.79188222       1.03454368       2.61413321      -0.00000000      -0.00000000       0.00190586
Si       1.79188222      -1.03454368      -0.40425319      -0.00000000       0.00000000       0.00190586
