4
Lattice="1.970083813604661 -3.4122852603323266 7.892103760040674e-34 1.9700838136046612 3.4122852603323266 -7.892103760040667e-34 -1.4125533782708964e-48 1.5050686723309875e-33 6.507420331174798" Properties=species:S:1:pos:R:3:forces:R:3 cutoff=-1.0 nneightol=1.2 n_minim_iter=1 energy=-652.5464306280232 stress="0.03181456045758095 3.6330364678772504e-17 -9.795899425786353e-18 3.6330364678772504e-17 0.031814560457581145 -1.6580622807544994e-17 -9.795899425786353e-18 -1.6580622807544994e-17 0.031870339819793155" free_energy=-652.5464306280232 pbc="T T T"
Si       1.97008381       1.13742842       0.40622508       0.00000000       0.00000000       0.00082360
Si       1.97008381      -1.13742842       3.65993524      -0.00000000       0.00000000       0.00082360
Si       1.97008381       1.13742842       2.84748509       0.00000000      -0.00000000      -0.00082360
Si       1.97008381      -1.13742842      -0.40622508      -0.00000000      -0.00000000      -0.00082360
