4
Lattice="1.8916421166277648 -3.276420255736421 7.341316807307752e-34 1.8916421166277648 3.276420255736421 -7.341316807307739e-34 -2.2155878098880852e-48 1.4966308983691479e-33 6.237570350366757" Properties=species:S:1:pos:R:3:forces:R:3 cutoff=-1.0 nneightol=1.2 n_minim_iter=2 energy=-652.6356257743853 stress="-0.012990146887800048 -1.0217915065904766e-16 -2.02338302107591e-17 -1.0217915065904766e-16 -0.0129901468878006 -1.0311395795365766e-16 -2.02338302107591e-17 -1.0311395795365766e-16 -0.013513781216196069" free_energy=-652.6356257743853 pbc="T T T"
Si       1.89164212       1.09214009       0.38980043      -0.00000000       0.00000000       0.00453067
Si       1.89164212      -1.09214009       3.50858561       0.00000000      -0.00000000       0.00453067
Si       1.89164212       1.09214009       2.72898475      -0.00000000      -0.00000000      -0.00453067
Si       1.89164212      -1.09214009      -0.38980043       0.00000000      -0.00000000      -0.00453067
