4
Lattice="2.000166068802685 -3.4643892547415582 8.01261248039021e-34 2.0001660688026854 3.4643892547415582 -8.012612480390204e-34 -1.4231744791672307e-48 1.5280503645711628e-33 6.606785585450472" Properties=species:S:1:pos:R:3:forces:R:3 cutoff=-1.0 nneightol=1.2 n_minim_iter=1 energy=-652.472936528993 stress="0.04033190833776721 4.541295584846563e-18 1.88987495773284e-18 4.541295584846563e-18 0.04033190833776732 8.522133300119305e-18 1.88987495773284e-18 8.522133300119305e-18 0.040048313473233975" free_energy=-652.472936528993 pbc="T T T"
Si       2.00016607       1.15479642       0.41242794       0.00000000      -0.00000000       0.00386130
Si       2.00016607      -1.15479642       3.71582074       0.00000000       0.00000000       0.00386130
Si       2.00016607       1.15479642       2.89096485      -0.00000000      -0.00000000      -0.00386130
Si       2.00016607      -1.15479642      -0.41242794      -0.00000000       0.00000000      -0.00386130
