2
Lattice="2.7766954253141907 -8.871059470170066e-16 5.02965984558966e-41 -1.3883477126570944 2.4046887768941256 2.3987059274638815e-25 -2.5379056493372475e-40 -4.428811227817234e-25 4.439857563438297" Properties=species:S:1:pos:R:3 n_minim_iter=1 energy=-3187.234652965893 free_energy=-3187.234652965893 pbc="T T T"
Ti       0.00000000       0.00000000       0.00000000
Ti       0.00000000       1.60312585       2.21992878
