2
Lattice="3.014030781691246 -9.331763957508185e-16 3.9020982078603657e-41 -1.5070153908456223 2.610227224732889 2.6037329970330924e-25 -1.662716423176687e-40 -4.571503766913353e-25 4.5829060060932685" Properties=species:S:1:pos:R:3 n_minim_iter=1 stress="0.09634349202829137 -2.2949946969237828e-17 7.585472515265154e-18 -2.2949946969237828e-17 0.09634349202829136 -5.462167160251319e-18 7.585472515265154e-18 -5.462167160251319e-18 0.08567490962756044" pbc="T T T"
Ti       0.00000000       0.00000000       0.00000000
Ti       0.00000000       1.74015148       2.29145300
