1
Lattice="2.8612265308189495 2.3367899326915797e-17 3.697728489947231e-50 1.4306132654094748 2.477894861671229 -6.1891646786036456e-49 -6.2690912434190026e-49 1.0910830386541659e-47 2.657210340233282" Properties=species:S:1:pos:R:3 cutoff=-1.0 nneightol=1.2 n_minim_iter=1 energy=-162.64607083844726 free_energy=-162.64607083844726 pbc="T T T"
Si       0.00000000       0.00000000       0.00000000
