1
Lattice="2.6287427157414625 2.146918270054888e-17 3.3972762128541627e-50 1.314371357870731 2.2765579718454023 -5.686275235518288e-49 -1.9736623094747917e-49 2.4883808100769678e-48 2.4413034937439297" Properties=species:S:1:pos:R:3 cutoff=-1.0 nneightol=1.2 n_minim_iter=1 stress="-0.02270682279413018 -2.5248112128926373e-11 2.5227792367578397e-16 -2.5248112128926373e-11 -0.022706822823473128 8.703822081568426e-15 2.5227792367578397e-16 8.703822081568426e-15 -0.03277213205811962" pbc="T T T"
Si       0.00000000       0.00000000       0.00000000
