1
Lattice="2.4147955999180852 2.039436029253101e-17 3.0029895782126173e-49 1.2073977999590428 2.091274334475945 -1.1408180152351568e-47 1.1711182209562462e-48 1.1347092860356838e-46 2.283993394689225" Properties=species:S:1:pos:R:3 cutoff=-1.0 nneightol=1.2 n_minim_iter=1 stress="-0.32434443658589796 1.5580100210785448e-14 1.409536442731883e-15 1.5580100210785448e-14 -0.3243444365539234 -7.58370311441661e-15 1.409536442731883e-15 -7.58370311441661e-15 -0.31943187029419023" pbc="T T T"
Si       0.00000000       0.00000000       0.00000000
