1
Lattice="2.717919858660909 2.21975006004277e-17 3.5125249911223247e-50 1.3589599293304546 2.3537876430505573 -5.8791757336615945e-49 -1.388202830509726e-49 1.2742035084221773e-48 2.5241219716678676" Properties=species:S:1:pos:R:3 cutoff=-1.0 nneightol=1.2 n_minim_iter=1 stress="0.03449103091814026 -1.0021328687883524e-11 -7.24802369646207e-16 -1.0021328687883524e-11 0.03449103097954642 5.8316810680637984e-15 -7.24802369646207e-16 5.8316810680637984e-15 0.03881696366490795" pbc="T T T"
Si       0.00000000       0.00000000       0.00000000
