4
Lattice="6.224443472074007 1.9756711189610356 2.2606508718936813e-12 4.455974508583445 4.774019698974439 3.3473371683967845e-12 -5.340208990329057 -3.3748454089685893 1.6551614158485635" Properties=species:S:1:pos:R:3:tags:I:1 spacegroup="P 1" unit_cell=conventional n_minim_iter=1 energy=-19112.606799995327 free_energy=-19112.606799995327 pbc="T T T"
Ti       0.00000000       0.00000000       0.00000000        0
Al       5.34020899       3.37484541       0.00000000        1
Al       3.11222174       0.98783556       0.82758071        2
Al       2.22798725       2.38700985       0.82758071        3
4
Lattice="6.23054029356321 1.9807414650190163 2.2644622932252914e-12 4.463170847927361 4.777350215671001 3.3498218102322744e-12 -5.346855570745616 -3.379045840345861 1.6541323451853294" Properties=species:S:1:pos:R:3:tags:I:1 spacegroup="P 1" unit_cell=conventional n_minim_iter=2 stress="1081.4015660080904 -2.8801786733525834 5.084730800736072e-13 -2.8801786733525834 1084.138852783793 -8.102904806039866e-12 5.084730800736072e-13 -8.102904806039866e-12 1085.9590358122732" pbc="T T T"
Ti       0.00000000       0.00000000       0.00000000        0
Al       5.34685557       3.37904584       0.00000000        1
Al       3.11527015       0.99037073       0.82706617        2
Al       2.23158542       2.38867511       0.82706617        3
4
Lattice="6.231041378808408 1.9811580763163041 2.2647953486851645e-12 4.463762200900184 4.777623991231485 3.350091585989123e-12 -5.347401789854624 -3.3793910337747475 1.6540478609998879" Properties=species:S:1:pos:R:3:tags:I:1 spacegroup="P 1" unit_cell=conventional n_minim_iter=3 stress="1084.239292144877 0.015918665423894487 6.859441418250881e-12 0.015918665423894487 1084.2241632389002 -1.515842045687123e-11 6.859441418250881e-12 -1.515842045687123e-11 1084.2141031391895" pbc="T T T"
Ti       0.00000000       0.00000000       0.00000000        0
Al       5.34740179       3.37939103       0.00000000        1
Al       3.11552069       0.99057904       0.82702393        2
Al       2.23188110       2.38881200       0.82702393        3
4
Lattice="6.231038630227518 1.981155791141959 2.2647918539448893e-12 4.463758957218615 4.7776224894829795 3.3501056818647582e-12 -5.347398793723397 -3.379389140313322 1.6540483243789783" Properties=species:S:1:pos:R:3:tags:I:1 spacegroup="P 1" unit_cell=conventional n_minim_iter=4 stress="1084.223718658738 2.7321108390123098e-05 -4.361784938168568e-12 2.7321108390123098e-05 1084.2236926930934 -4.57824516927284e-12 -4.361784938168568e-12 -4.57824516927284e-12 1084.223675426996" pbc="T T T"
Ti       0.00000000       0.00000000       0.00000000        0
Al       5.34739879       3.37938914       0.00000000        1
Al       3.11551932       0.99057790       0.82702416        2
Al       2.23187948       2.38881124       0.82702416        3
