4
Lattice="5.992341846752262 1.3041821693031646 1.8124098490308911e-12 3.7498612828949125 4.8525861453571615 3.2121767561967786e-12 -4.871101564823983 -3.078384157331245 2.0988026262914534" Properties=species:S:1:pos:R:3:tags:I:1 spacegroup="P 1" unit_cell=conventional n_minim_iter=3 stress="31.180379674068455 -0.001676338391874649 5.310040820298329e-13 -0.001676338391874649 31.181972845684488 -7.41431160113526e-13 5.310040820298329e-13 -7.41431160113526e-13 31.183032239228115" pbc="T T T"
Ti       0.00000000       0.00000000       0.00000000        0
Al       4.87110156       3.07838416       0.00000000        1
Al       2.99617092       0.65209108       1.04940131        2
Al       1.87493064       2.42629307       1.04940131        3
