4
Lattice="6.359127489280129 2.018074732290587 2.27238407230173e-12 4.552080201515939 4.877467979289458 3.4170784921438995e-12 -5.45560384539838 -3.447771355790882 1.6912679889036102" Properties=species:S:1:pos:R:3:tags:I:1 spacegroup="P 1" unit_cell=conventional n_minim_iter=4 stress="2052.3612743266717 0.00017086802904049643 -6.617142871870601e-11 0.00017086802904049643 2052.3611119357893 1.0561357598531135e-10 -6.617142871870601e-11 1.0561357598531135e-10 2052.36100395263" pbc="T T T"
Ti       0.00000000       0.00000000       0.00000000        0
Al       5.45560385       3.44777136       0.00000000        1
Al       3.17956374       1.00903737       0.84563399        2
Al       2.27604010       2.43873399       0.84563399        3
