4
Lattice="5.4919741545210545 1.07836492530968 1.614428665788364e-12 3.3311433066353913 4.4975699323883385 2.957621640091775e-12 -4.411558730578615 -2.787967428850048 2.0223842880106306" Properties=species:S:1:pos:R:3:tags:I:1 spacegroup="P 1" unit_cell=conventional n_minim_iter=3 stress="-55.8013012010486 0.005606476553843048 -7.662181329230506e-13 0.005606476553843048 -55.80662952816641 1.375918052415901e-12 -7.662181329230506e-13 1.375918052415901e-12 -55.81017264636483" pbc="T T T"
Ti       0.00000000       0.00000000       0.00000000        0
Al       4.41155873       2.78796743       0.00000000        1
Al       2.74598708       0.53918246       1.01119214        2
Al       1.66557165       2.24878497       1.01119214        3
