4
Lattice="5.325981363223728 0.9969230484478299 1.5407600034660101e-12 3.1863401619017755 4.3825984779106575 2.8699623447190885e-12 -4.2561607625631375 -2.689760763180274 2.002552282964631" Properties=species:S:1:pos:R:3:tags:I:1 spacegroup="P 1" unit_cell=conventional n_minim_iter=3 stress="-105.636035801497 -0.005328901920908427 -7.69522465066882e-14 -0.005328901920908427 -105.63097127793469 -3.006249870489796e-13 -7.69522465066882e-14 -3.006249870489796e-13 -105.62760357824062" pbc="T T T"
Ti       0.00000000       0.00000000       0.00000000        0
Al       4.25616076       2.68976076       0.00000000        1
Al       2.66299068       0.49846152       1.00127614        2
Al       1.59317008       2.19129924       1.00127614        3
