4
Lattice="5.955287449339077 1.2700150355302575 1.7953534011478447e-12 3.7030974624283592 4.83378278147509 3.1977675790439986e-12 -4.829192455884118 -3.051898908503761 2.107889957050388" Properties=species:S:1:pos:R:3:tags:I:1 spacegroup="P 1" unit_cell=conventional n_minim_iter=3 stress="31.45651400664249 -0.001585298490228111 8.197915653088595e-13 -0.001585298490228111 31.458020655043523 -1.1742082502309133e-12 8.197915653088595e-13 -1.1742082502309133e-12 31.459022514211" pbc="T T T"
Ti       0.00000000       0.00000000       0.00000000        0
Al       4.82919246       3.05189891       0.00000000        1
Al       2.97764372       0.63500752       1.05394498        2
Al       1.85154873       2.41689139       1.05394498        3
