4
Lattice="6.037398740416415 1.3139884184831618 1.826037502447878e-12 3.778056787323668 4.889073125495987 3.236329368019628e-12 -4.90772776387044 -3.1015307719906646 2.1145836897176182" Properties=species:S:1:pos:R:3:tags:I:1 spacegroup="P 1" unit_cell=conventional n_minim_iter=3 stress="31.180379674068455 -0.001676338391874649 5.310040820298329e-13 -0.001676338391874649 31.181972845684488 -7.41431160113526e-13 5.310040820298329e-13 -7.41431160113526e-13 31.183032239228115" pbc="T T T"
Ti       0.00000000       0.00000000       0.00000000        0
Al       4.90772776       3.10153077       0.00000000        1
Al       3.01869937       0.65699421       1.05729184        2
Al       1.88902839       2.44453656       1.05729184        3
