4
Lattice="5.095422619312183 0.8143998851764338 1.4148088967719261e-12 2.922527739155087 4.252694493640787 2.7629034432063263e-12 -4.008975179234034 -2.533547189409659 2.0336753658569733" Properties=species:S:1:pos:R:3:tags:I:1 spacegroup="P 1" unit_cell=conventional n_minim_iter=3 stress="-61.93395227579556 -0.0003184779997521391 1.2361135686660346e-13 -0.0003184779997521391 -61.933649598178434 3.7206179928259213e-13 1.2361135686660346e-13 3.7206179928259213e-13 -61.93344833002287" pbc="T T T"
Ti       0.00000000       0.00000000       0.00000000        0
Al       4.00897518       2.53354719       0.00000000        1
Al       2.54771131       0.40719994       1.01683768        2
Al       1.46126387       2.12634725       1.01683768        3
