1
Lattice="2.730943391937576 -2.0898891864660502e-17 9.029829628924555e-50 1.365471695968788 2.3650663537151835 5.434609660226165e-51 -9.100816000120561e-49 5.315328355313992e-49 2.613674509137048" Properties=species:S:1:pos:R:3 cutoff=-1.0 nneightol=1.2 n_minim_iter=1 energy=-162.86633002758865 free_energy=-162.86633002758865 pbc="T T T"
Si       0.00000000       0.00000000       0.00000000
1
Lattice="2.6998523575854514 -4.282127228846489e-17 7.028104162376458e-50 1.3499261787927257 2.33814072813631 1.6169497047126492e-50 -9.208801458698055e-49 5.433949415839086e-49 2.6742183699246667" Properties=species:S:1:pos:R:3 cutoff=-1.0 nneightol=1.2 n_minim_iter=2 stress="-0.3019750956701558 -6.746567081921379e-17 6.159164349503901e-18 -6.746567081921379e-17 -0.30197509567015457 8.452059451714957e-18 6.159164349503901e-18 8.452059451714957e-18 -0.3519744498517253" pbc="T T T"
Si       0.00000000       0.00000000       0.00000000
1
Lattice="2.691631206009003 6.544965722375042e-18 4.402288020251308e-50 1.3458156030045014 2.331021002022743 4.254446443306172e-50 -9.405844099066882e-49 5.854523849326907e-49 2.690579251434323" Properties=species:S:1:pos:R:3 cutoff=-1.0 nneightol=1.2 n_minim_iter=3 stress="-0.36479859660025044 8.033603222077264e-18 -4.884973793126129e-19 8.033603222077264e-18 -0.3647985966002505 -3.7907051778797756e-17 -4.884973793126129e-19 -3.7907051778797756e-17 -0.36607449742470843" pbc="T T T"
Si       0.00000000       0.00000000       0.00000000
