1
Lattice="2.425295618691451 1.3458816970897854e-17 6.928152621780145e-50 1.2126478093457254 2.100367617473894 7.270027160783362e-50 -1.84840315510319e-48 6.966084313726505e-49 2.209308049018405" Properties=species:S:1:pos:R:3 cutoff=-1.0 nneightol=1.2 n_minim_iter=1 energy=-161.5575016606967 free_energy=-161.5575016606967 pbc="T T T"
Si       0.00000000       0.00000000       0.00000000
1
Lattice="2.4742898401500377 8.459391896884685e-18 1.1172455866291593e-49 1.2371449200750186 2.1427978578956703 8.460612605110969e-50 -1.8548911929809798e-48 6.676694758497968e-49 2.1226798413311068" Properties=species:S:1:pos:R:3 cutoff=-1.0 nneightol=1.2 n_minim_iter=2 stress="-1.9698128016269407 6.923946962202761e-16 2.7745112493243474e-17 6.923946962202761e-16 -1.9698128016269423 1.4920704940810936e-16 2.7745112493243474e-17 1.4920704940810936e-16 -1.7515186503352738" pbc="T T T"
Si       0.00000000       0.00000000       0.00000000
1
Lattice="2.4824069391267662 -5.287692922013587e-17 1.2194193897807788e-49 1.241203469563383 2.1498274718145507 1.583822159747142e-49 -1.9161172132114245e-48 8.069518182427566e-49 2.108820846391158" Properties=species:S:1:pos:R:3 cutoff=-1.0 nneightol=1.2 n_minim_iter=3 stress="-1.7370091074564638 -4.420721257256794e-15 2.712855443783807e-17 -4.420721257256794e-15 -1.7370091074564524 -2.4662322216216427e-16 2.712855443783807e-17 -2.4662322216216427e-16 -1.7059722552968166" pbc="T T T"
Si       0.00000000       0.00000000       0.00000000
1
Lattice="2.4837548731807595 -6.149915298111491e-17 4.434504625827636e-50 1.2418774365903795 2.150994816947934 -7.339965907706017e-51 -1.7997599672689407e-48 6.741205826057847e-49 2.106532552858804" Properties=species:S:1:pos:R:3 cutoff=-1.0 nneightol=1.2 n_minim_iter=4 stress="-1.6984269356762405 -7.398696664864926e-18 -2.4662322216216424e-17 -7.398696664864926e-18 -1.6984269356762365 8.878435997837912e-17 -2.4662322216216424e-17 8.878435997837912e-17 -1.7066385486457463" pbc="T T T"
Si       0.00000000       0.00000000       0.00000000
