1
Lattice="2.649891548422165 -8.294428345687389e-18 9.60735633270092e-50 1.3249457742110824 2.2948733982072764 -2.2798802190261793e-51 -1.7770316554820272e-49 9.874774281491427e-50 2.467562580822218" Properties=species:S:1:pos:R:3 cutoff=-1.0 nneightol=1.2 n_minim_iter=1 energy=-162.8355944044435 free_energy=-162.8355944044435 pbc="T T T"
Si       0.00000000       0.00000000       0.00000000
