1
Lattice="2.5514887831120365 -1.789770643444793e-17 9.20590000760729e-50 1.2757443915560183 2.2096541036460673 1.059477158042333e-50 -8.67203020496645e-49 4.587307994973349e-49 2.3954083462751674" Properties=species:S:1:pos:R:3 cutoff=-1.0 nneightol=1.2 n_minim_iter=1 energy=-162.76622641885612 free_energy=-162.76622641885612 pbc="T T T"
Si       0.00000000       0.00000000       0.00000000
