1
Lattice="2.6049694540423065 -8.153817650433163e-18 9.44448832092304e-50 1.3024847270211533 2.255969723283117 -2.2412307148851873e-51 -5.2647662429780225e-49 3.0981698000901254e-49 2.4257314050482868" Properties=species:S:1:pos:R:3 cutoff=-1.0 nneightol=1.2 n_minim_iter=1 energy=-162.81586739749582 free_energy=-162.81586739749582 pbc="T T T"
Si       0.00000000       0.00000000       0.00000000
1
Lattice="2.597889624133214 -1.8223190377942128e-17 9.373316578488245e-50 1.298944812066607 2.2498384107273695 1.078744587905744e-50 -5.309766232784264e-49 3.106246846722126e-49 2.438970741137334" Properties=species:S:1:pos:R:3 cutoff=-1.0 nneightol=1.2 n_minim_iter=2 stress="-0.049359436810894004 2.2689587604188575e-17 -7.580511353690128e-19 2.2689587604188575e-17 -0.049359436810893643 -1.4647105584196487e-18 -7.580511353690128e-19 -1.4647105584196487e-18 -0.0493787597744126" pbc="T T T"
Si       0.00000000       0.00000000       0.00000000
