1
Lattice="2.691631206009003 6.544965722375042e-18 4.402288020251308e-50 1.3458156030045014 2.331021002022743 4.254446443306172e-50 -9.405844099066882e-49 5.854523849326907e-49 2.690579251434323" Properties=species:S:1:pos:R:3 cutoff=-1.0 nneightol=1.2 n_minim_iter=3 stress="-0.36479859660025044 8.033603222077264e-18 -4.884973793126129e-19 8.033603222077264e-18 -0.3647985966002505 -3.7907051778797756e-17 -4.884973793126129e-19 -3.7907051778797756e-17 -0.36607449742470843" pbc="T T T"
Si       0.00000000       0.00000000       0.00000000
