1
Lattice="2.7174107032142736 5.047639814252864e-17 3.0542345197697993e-50 1.3587053516071368 2.353346701499297 5.912001310912877e-50 -1.053219605024911e-48 5.7008788148013555e-49 2.7570946729429324" Properties=species:S:1:pos:R:3 cutoff=-1.0 nneightol=1.2 n_minim_iter=2 stress="-0.48810382254165596 -8.127794117550697e-18 -4.895464687471178e-18 -8.127794117550697e-18 -0.48810382254165596 -9.656159422238628e-18 -4.895464687471178e-18 -9.656159422238628e-18 -0.4961906878421273" pbc="T T T"
Si       0.00000000       0.00000000       0.00000000
