1
Lattice="2.5283391535529605 -8.612866995785956e-18 1.0539878661843818e-49 1.2641695767764805 2.1896059363597087 3.9884525727192324e-50 -1.405241458826794e-48 6.636353134107178e-49 2.2361846607895894" Properties=species:S:1:pos:R:3 cutoff=-1.0 nneightol=1.2 n_minim_iter=2 stress="-0.2739355268400071 3.9459715545946297e-16 -3.5872468678133e-17 3.9459715545946297e-16 -0.27393552684000544 8.96811716953325e-18 -3.5872468678133e-17 8.96811716953325e-18 -0.2838561008708466" pbc="T T T"
Si       0.00000000       0.00000000       0.00000000
