1
Lattice="2.7205766473931146 9.126714545045984e-17 1.00823930070223e-50 1.3602883236965575 2.3560884895851357 8.563903135926752e-50 -1.1806225462177805e-48 3.616621228937665e-49 2.8092066648103655" Properties=species:S:1:pos:R:3 cutoff=-1.0 nneightol=1.2 n_minim_iter=2 stress="-0.43739820362722553 1.6164401101041078e-15 -2.2253058134798847e-17 1.6164401101041078e-15 -0.4373982036272288 -9.248370831081162e-18 -2.2253058134798847e-17 -9.248370831081162e-18 -0.4412845010829116" pbc="T T T"
Si       0.00000000       0.00000000       0.00000000
