1
Lattice="2.4519493530942333 1.3606727901900779e-17 7.004292263669451e-50 1.225974676547117 2.123450428572427 7.3499239665793835e-50 -1.7411065695879516e-48 7.852111169718311e-49 2.233588103581088" Properties=species:S:1:pos:R:3 cutoff=-1.0 nneightol=1.2 n_minim_iter=2 stress="-0.899061175854213 2.1647154435588665e-15 -1.9093410748038514e-17 2.1647154435588665e-15 -0.8990611758542091 -1.9093410748038514e-17 -1.9093410748038514e-17 -1.9093410748038514e-17 -0.8947588703769672" pbc="T T T"
Si       0.00000000       0.00000000       0.00000000
