1
Lattice="2.7309433919375765 -2.0898891864660502e-17 9.029829628924556e-50 1.3654716959687883 2.3650663537151844 5.434609660226157e-51 -7.372399688552428e-49 4.437544298932206e-49 2.613674509137048" Properties=species:S:1:pos:R:3 cutoff=-1.0 nneightol=1.2 n_minim_iter=3 stress="-0.07716109610930535 3.786129022450401e-17 1.0862920791134085e-17 3.786129022450401e-17 -0.07716109610930492 -1.2351197179224484e-17 1.0862920791134085e-17 -1.2351197179224484e-17 -0.07590306074552329" pbc="T T T"
Si       0.00000000       0.00000000       0.00000000
