1
Lattice="2.6276224993750787 -8.224723971650785e-18 9.526618428724003e-50 1.3138112496875394 2.275587836014378 -2.260720655892659e-51 -1.762097910318865e-49 9.791789061611628e-50 2.446825780415498" Properties=species:S:1:pos:R:3 cutoff=-1.0 nneightol=1.2 n_minim_iter=1 stress="0.001728872716381451 4.4004126127149916e-18 -6.239076129309502e-18 4.4004126127149916e-18 0.0017288727163812807 4.360551472420003e-19 -6.239076129309502e-18 4.360551472420003e-19 -0.006853811080429288" pbc="T T T"
Si       0.00000000       0.00000000       0.00000000
