1
Lattice="2.731221048662229 -1.106099077917281e-17 9.7899377269036e-50 1.3656105243311145 2.3653068114922653 -1.6302758603949584e-51 -5.534652388194239e-49 3.264680835135944e-49 2.5550732751673526" Properties=species:S:1:pos:R:3 cutoff=-1.0 nneightol=1.2 n_minim_iter=2 stress="0.010948561040295703 -2.5523108882419133e-18 5.862714783868258e-18 -2.5523108882419133e-18 0.01094856104029592 1.897924004757207e-17 5.862714783868258e-18 1.897924004757207e-17 0.005370401311090477" pbc="T T T"
Si       0.00000000       0.00000000       0.00000000
