1
Lattice="2.5033359458068003 -1.7559932915011293e-17 9.032162145913104e-50 1.2516679729034002 2.1679525232754338 1.0394822313322887e-50 -1.02042965759406e-48 5.254505988046377e-49 2.3502011287709204" Properties=species:S:1:pos:R:3 cutoff=-1.0 nneightol=1.2 n_minim_iter=1 stress="-0.13174175616807354 2.1139133328185483e-18 3.699348332432459e-18 2.1139133328185483e-18 -0.13174175616807282 4.333522332278024e-17 3.699348332432459e-18 4.333522332278024e-17 -0.12369137156484479" pbc="T T T"
Si       0.00000000       0.00000000       0.00000000
