1
Lattice="2.7519931216080185 7.391176962679961e-17 1.845078209339388e-51 1.375996560804009 2.383295954352582 9.630374013856153e-50 -1.2244296763021174e-48 1.8929007139233625e-49 2.8598265957094315" Properties=species:S:1:pos:R:3 cutoff=-1.0 nneightol=1.2 n_minim_iter=2 stress="-0.3479500467911075 1.3287455234859434e-16 -1.207950475896312e-17 1.3287455234859434e-16 -0.34795004679110764 1.207950475896312e-17 -1.207950475896312e-17 1.207950475896312e-17 -0.3504239207728159" pbc="T T T"
Si       0.00000000       0.00000000       0.00000000
