1
Lattice="2.4252956186914516 1.3458816970897856e-17 6.928152621780148e-50 1.212647809345726 2.1003676174738946 7.270027160783364e-50 -1.722179999178097e-48 7.766755375009634e-49 2.209308049018405" Properties=species:S:1:pos:R:3 cutoff=-1.0 nneightol=1.2 n_minim_iter=2 stress="-0.899061175854213 2.1647154435588665e-15 -1.9093410748038514e-17 2.1647154435588665e-15 -0.8990611758542091 -1.9093410748038514e-17 -1.9093410748038514e-17 -1.9093410748038514e-17 -0.8947588703769672" pbc="T T T"
Si       0.00000000       0.00000000       0.00000000
