1
Lattice="2.5748982447029056 -1.806191474847816e-17 9.290362523791512e-50 1.2874491223514526 2.2299272920726763 1.0691976749427995e-50 -7.007184623045698e-49 3.854076117622216e-49 2.4173857972628934" Properties=species:S:1:pos:R:3 cutoff=-1.0 nneightol=1.2 n_minim_iter=1 stress="-0.064877183396277 -6.392623892024335e-17 2.9994716208911836e-18 -6.392623892024335e-17 -0.06487718339627686 9.998238736303945e-19 2.9994716208911836e-18 9.998238736303945e-19 -0.07069999886297605" pbc="T T T"
Si       0.00000000       0.00000000       0.00000000
