8
Lattice="5.651993200711996 -5.598099316869974e-16 -5.379503242831246e-48 -2.8259966003559973 4.894769693833506 1.0747741901852521e-48 4.589555624212166e-48 1.590978423960503e-48 4.8220320745980825" Properties=species:S:1:pos:R:3:tags:I:1 spacegroup="P 1" unit_cell=conventional n_minim_iter=1 energy=-9784.296627882166 free_energy=-9784.296627882166 pbc="T T T"
Ti       2.82599661       3.39447985       1.20550802        0
Ti      -1.52670323       4.14462722       3.61652405        1
Ti       1.52670324       4.14462722       3.61652405        2
Ti       1.29929337       0.75015227       1.20550802        3
Ti       4.35269984       0.75015227       1.20550802        4
Ti       0.00000000       1.50029965       3.61652405        5
Al       0.00000000       3.26318469       1.20550802        6
Al       2.82599661       1.63159480       3.61652405        7
8
Lattice="5.5777218002884865 -4.521356418105647e-16 -5.316688441009657e-48 -2.7888609001442424 4.830448774292102 1.1041228528202902e-48 4.706825496254024e-48 1.5737822284509685e-48 4.951304752009596" Properties=species:S:1:pos:R:3:tags:I:1 spacegroup="P 1" unit_cell=conventional n_minim_iter=2 stress="-0.018598208476933456 4.465835857888962e-16 -1.8497777933374443e-16 4.465835857888962e-16 -0.01859820847693302 1.1815057433948539e-16 -1.8497777933374443e-16 1.1815057433948539e-16 -0.018216929953698054" pbc="T T T"
Ti       2.78886090       3.34885610       1.23782619        0
Ti      -1.50575981       4.08965485       3.71347856        1
Ti       1.50575982       4.08965485       3.71347856        2
Ti       1.28310109       0.74080359       1.23782619        3
Ti       4.29462072       0.74080359       1.23782619        4
Ti       0.00000000       1.48160235       3.71347856        5
Al       0.00000000       3.22030402       1.23782619        6
Al       2.78886090       1.61015443       3.71347856        7
8
Lattice="5.566914676128554 -4.0365445443518313e-16 -5.3436646074465655e-48 -2.783457338064276 4.8210895302277486 1.0664810213241151e-48 4.695169707380341e-48 1.4931679860004997e-48 4.970547477123757" Properties=species:S:1:pos:R:3:tags:I:1 spacegroup="P 1" unit_cell=conventional n_minim_iter=3 stress="-0.015402873466908962 4.2341411419640087e-16 2.8377124804504076e-17 4.2341411419640087e-16 -0.015402873466909628 1.3114640861625615e-16 2.8377124804504076e-17 1.3114640861625615e-16 -0.006987319004350797" pbc="T T T"
Ti       2.78345734       3.32810755       1.24263687        0
Ti      -1.49049283       4.07460095       3.72791061        1
Ti       1.49049284       4.07460095       3.72791061        2
Ti       1.29296451       0.74649823       1.24263687        3
Ti       4.27395018       0.74649823       1.24263687        4
Ti       0.00000000       1.49299163       3.72791061        5
Al       0.00000000       3.21406451       1.24263687        6
Al       2.78345734       1.60703467       3.72791061        7
8
Lattice="5.573770095257132 -3.6548143087822096e-16 -5.425676996722951e-48 -2.7868850476285645 4.8270264973466865 1.1542563349717745e-48 4.6191486067245644e-48 1.4664347396308796e-48 4.958328016900262" Properties=species:S:1:pos:R:3:tags:I:1 spacegroup="P 1" unit_cell=conventional n_minim_iter=4 stress="-0.01549123446237342 -4.30548689381933e-17 -6.955861486001066e-17 -4.30548689381933e-17 -0.015491234462372595 5.530910456427692e-17 -6.955861486001066e-17 5.530910456427692e-17 -0.015321005182987044" pbc="T T T"
Ti       2.78688505       3.33070421       1.23958200        0
Ti      -1.49102775       4.07886777       3.71874601        1
Ti       1.49102776       4.07886777       3.71874601        2
Ti       1.29585730       0.74816839       1.23958200        3
Ti       4.27791281       0.74816839       1.23958200        4
Ti       0.00000000       1.49633195       3.71874601        5
Al       0.00000000       3.21802250       1.23958200        6
Al       2.78688505       1.60901366       3.71874601        7
