8
Lattice="6.210644021474288 -6.932268710924592e-16 -5.0515700490197495e-48 -3.1053220107371438 5.37857549645868 8.976175117053243e-50 3.990710606465791e-48 2.2221565784484566e-48 4.906372222689513" Properties=species:S:1:pos:R:3:tags:I:1 spacegroup="P 1" unit_cell=conventional n_minim_iter=1 energy=-9783.901679704411 free_energy=-9783.901679704411 pbc="T T T"
Ti       3.10532202       3.69236806       1.22659305        0
Ti      -1.64501887       4.53547447       3.67977916        1
Ti       1.64501888       4.53547447       3.67977916        2
Ti       1.46030314       0.84311179       1.22659305        3
Ti       4.75034089       0.84311179       1.22659305        4
Ti       0.00000001       1.68621820       3.67977916        5
Al       0.00000001       3.58572238       1.22659305        6
Al       3.10532202       1.79286388       3.67977916        7
8
Lattice="6.212998331369323 -6.78192937781784e-16 -4.167554841054166e-48 -3.106499165684661 5.380614388636163 1.2108423292075477e-48 4.113044896575175e-48 2.2903804065503505e-48 4.902654554824038" Properties=species:S:1:pos:R:3:tags:I:1 spacegroup="P 1" unit_cell=conventional n_minim_iter=2 stress="0.20433208078815457 1.160454856073691e-16 2.4043384991372197e-17 1.160454856073691e-16 0.20433208078815515 -9.569834554629708e-17 2.4043384991372197e-17 -9.569834554629708e-17 0.20432870671477496" pbc="T T T"
Ti       3.10649917       3.69378419       1.22566364        0
Ti      -1.64565669       4.53720198       3.67699091        1
Ti       1.64565670       4.53720198       3.67699091        2
Ti       1.46084247       0.84342318       1.22566364        3
Ti       4.75215587       0.84342318       1.22566364        4
Ti       0.00000001       1.68684097       3.67699091        5
Al       0.00000001       3.58708164       1.22566364        6
Al       3.10649917       1.79354351       3.67699091        7
8
Lattice="6.21318503849651 -6.777400754162602e-16 -4.2607889492712914e-48 -3.1065925192482546 5.380776081751376 1.5825191181377314e-48 4.002593280618299e-48 4.2619019833452484e-48 4.902359908265633" Properties=species:S:1:pos:R:3:tags:I:1 spacegroup="P 1" unit_cell=conventional n_minim_iter=3 stress="0.20429999708227228 -5.3945839949864996e-17 8.42188335114476e-17 -5.3945839949864996e-17 0.20429999708227572 1.4365718745741654e-16 8.42188335114476e-17 1.4365718745741654e-16 0.20429075794251325" pbc="T T T"
Ti       3.10659252       3.69433299       1.22558997        0
Ti      -1.64608529       4.53755723       3.67676993        1
Ti       1.64608530       4.53755723       3.67676993        2
Ti       1.46050723       0.84322962       1.22558997        3
Ti       4.75267782       0.84322962       1.22558997        4
Ti       0.00000001       1.68645386       3.67676993        5
Al       0.00000001       3.58718944       1.22558997        6
Al       3.10659252       1.79359741       3.67676993        7
