8
Lattice="6.604589288770013 3.328249104693008e-16 -1.0303780834158125e-47 -3.302294644385008 5.719742105637429 -1.4036241706332615e-47 7.870357882778021e-48 1.6923879996684944e-47 5.044796876799004" Properties=species:S:1:pos:R:3:tags:I:1 spacegroup="P 1" unit_cell=conventional n_minim_iter=1 energy=-9779.566567139493 free_energy=-9779.566567139493 pbc="T T T"
Ti       3.30229465       3.67033435       1.26119922        0
Ti      -1.52745050       4.69504109       3.78359765        1
Ti       1.52745051       4.69504109       3.78359765        2
Ti       1.77484414       1.02471246       1.26119922        3
Ti       4.82974516       1.02471246       1.26119922        4
Ti       0.00000001       2.04941920       3.78359765        5
Al       0.00000001       3.81316713       1.26119922        6
Al       3.30229465       1.90658643       3.78359765        7
8
Lattice="6.635104872662546 4.367007622942796e-16 -1.0414264837747068e-47 -3.3175524363312743 5.746169376499676 -1.422684784590345e-47 7.751501670569935e-48 1.6633960920803794e-47 4.99850042169586" Properties=species:S:1:pos:R:3:tags:I:1 spacegroup="P 1" unit_cell=conventional n_minim_iter=2 stress="0.11649146794209148 -3.1862273895493936e-17 7.68775508731666e-17 -3.1862273895493936e-17 0.11649146794209143 1.30524120163419e-16 7.68775508731666e-17 1.30524120163419e-16 0.12100852436745602" pbc="T T T"
Ti       3.31755244       3.68740485       1.24962510        0
Ti      -1.53460507       4.71678999       3.74887531        1
Ti       1.53460508       4.71678999       3.74887531        2
Ti       1.78294737       1.02939089       1.24962510        3
Ti       4.85215751       1.02939089       1.24962510        4
Ti       0.00000001       2.05877603       3.74887531        5
Al       0.00000001       3.83078534       1.24962510        6
Al       3.31755244       1.91539554       3.74887531        7
8
Lattice="6.640225433107372 3.586747261107661e-16 -9.893409353774766e-48 -3.320112716553687 5.750603911926507 -1.299911997856887e-47 7.590422969458282e-48 1.6655955557769734e-47 4.990794281277599" Properties=species:S:1:pos:R:3:tags:I:1 spacegroup="P 1" unit_cell=conventional n_minim_iter=3 stress="0.11611950223780071 -1.6221506306204424e-16 -1.1562766744614159e-17 -1.6221506306204424e-16 0.11611950223780088 2.1466245410323625e-18 -1.1562766744614159e-17 2.1466245410323625e-18 0.11604248424229532" pbc="T T T"
Ti       3.32011272       3.69041738       1.24769857        0
Ti      -1.53593385       4.72051352       3.74309571        1
Ti       1.53593386       4.72051352       3.74309571        2
Ti       1.78417887       1.03010190       1.24769857        3
Ti       4.85604658       1.03010190       1.24769857        4
Ti       0.00000001       2.06019805       3.74309571        5
Al       0.00000001       3.83374170       1.24769857        6
Al       3.32011272       1.91687373       3.74309571        7
8
Lattice="6.640258097135365 3.7962627120444545e-16 -9.874747128322704e-48 -3.3201290485676838 5.750632199804542 -1.306894900305275e-47 7.573347349352156e-48 1.659318110321807e-47 4.990745181064685" Properties=species:S:1:pos:R:3:tags:I:1 spacegroup="P 1" unit_cell=conventional n_minim_iter=4 stress="0.11597355706601536 -5.686035240399299e-17 -1.5073669422533165e-17 -5.686035240399299e-17 0.1159735570660153 4.6805342999719105e-17 -1.5073669422533165e-17 4.6805342999719105e-17 0.11599905088529806" pbc="T T T"
Ti       3.32012905       3.69209608       1.24768629        0
Ti      -1.53737948       4.72136702       3.74305888        1
Ti       1.53737950       4.72136702       3.74305888        2
Ti       1.78274956       1.02927669       1.24768629        3
Ti       4.85750854       1.02927669       1.24768629        4
Ti       0.00000001       2.05854763       3.74305888        5
Al       0.00000001       3.83376056       1.24768629        6
Al       3.32012905       1.91688316       3.74305888        7
