8
Lattice="6.008979008699822 -6.512599459191812e-16 -3.569862423556412e-48 -3.0044895043499107 5.203928472341479 4.952969267794095e-48 2.8240952332604233e-48 -2.8939272983839917e-48 4.753664696782662" Properties=species:S:1:pos:R:3:tags:I:1 spacegroup="P 1" unit_cell=conventional n_minim_iter=1 energy=-9784.963440935218 free_energy=-9784.963440935218 pbc="T T T"
Ti       3.00448951       3.58069010       1.18841617        0
Ti      -1.59871932       4.39231189       3.56524852        1
Ti       1.59871933       4.39231189       3.56524852        2
Ti       1.40577018       0.81162700       1.18841617        3
Ti       4.60320884       0.81162700       1.18841617        4
Ti       0.00000001       1.62324879       3.56524852        5
Al       0.00000001       3.46929086       1.18841617        6
Al       3.00448951       1.73464803       3.56524852        7
8
Lattice="5.998374898667299 -6.7866260070304e-16 -3.563659391707107e-48 -2.999187449333649 5.194745043668786 4.950172856407543e-48 2.835249410978842e-48 -2.902870833660172e-48 4.770486899827107" Properties=species:S:1:pos:R:3:tags:I:1 spacegroup="P 1" unit_cell=conventional n_minim_iter=2 stress="-0.053394346884747604 3.892146850736723e-16 2.0468916520900596e-18 3.892146850736723e-16 -0.05339434688474809 -1.5690316388494542e-16 2.0468916520900596e-18 -1.5690316388494542e-16 -0.04595670019740595" pbc="T T T"
Ti       2.99918745       3.57639946       1.19262172        0
Ti      -1.59765456       4.38557485       3.57786517        1
Ti       1.59765457       4.38557485       3.57786517        2
Ti       1.40153289       0.80918059       1.19262172        3
Ti       4.59684202       0.80918059       1.19262172        4
Ti       0.00000001       1.61835598       3.57786517        5
Al       0.00000001       3.46316856       1.19262172        6
Al       2.99918745       1.73158688       3.57786517        7
8
Lattice="6.0067156016091525 -6.729850445929207e-16 -4.337832119389891e-48 -3.003357800804576 5.20196830430185 4.953941951660447e-48 2.5225029438248036e-48 -3.7749126688946406e-48 4.757247854784295" Properties=species:S:1:pos:R:3:tags:I:1 spacegroup="P 1" unit_cell=conventional n_minim_iter=3 stress="-0.04557550214012815 3.138013188400194e-17 -7.282358480370115e-19 3.138013188400194e-17 -0.04557550214012919 -1.3717707359425496e-18 -7.282358480370115e-19 -1.3717707359425496e-18 -0.04327834657352006" pbc="T T T"
Ti       3.00335781       3.59041174       1.18931196        0
Ti      -1.60770436       4.39619262       3.56793589        1
Ti       1.60770437       4.39619262       3.56793589        2
Ti       1.39565344       0.80578609       1.18931196        3
Ti       4.61106217       0.80578609       1.18931196        4
Ti       0.00000001       1.61156698       3.56793589        5
Al       0.00000001       3.46798408       1.18931196        6
Al       3.00335781       1.73399464       3.56793589        7
8
Lattice="6.0106685558438455 -6.751444986887302e-16 -5.875209171992738e-48 -3.0053342779219223 5.20539166308909 4.9577990447340846e-48 2.3661986213362767e-48 -3.859113340535401e-48 4.7509926440021495" Properties=species:S:1:pos:R:3:tags:I:1 spacegroup="P 1" unit_cell=conventional n_minim_iter=4 stress="-0.041036988956879315 -5.333276393531615e-16 1.3810346121595765e-18 -5.333276393531615e-16 -0.041036988956881515 7.876392561753931e-20 1.3810346121595765e-18 7.876392561753931e-20 -0.04176263472921689" pbc="T T T"
Ti       3.00533428       3.59727241       1.18774816        0
Ti      -1.61265764       4.40133464       3.56324448        1
Ti       1.61265765       4.40133464       3.56324448        2
Ti       1.39267664       0.80406744       1.18774816        3
Ti       4.61799192       0.80406744       1.18774816        4
Ti       0.00000001       1.60812967       3.56324448        5
Al       0.00000001       3.47026632       1.18774816        6
Al       3.00533428       1.73513576       3.56324448        7
8
Lattice="6.009788081049898 -6.739293210675685e-16 -5.871882931027151e-48 -3.0048940405249485 5.20462914955014 4.9807287223859866e-48 2.3627272641559477e-48 -3.862645393188785e-48 4.752384851394917" Properties=species:S:1:pos:R:3:tags:I:1 spacegroup="P 1" unit_cell=conventional n_minim_iter=5 stress="-0.04200521369307089 2.843605095793804e-16 4.3020208992037434e-17 2.843605095793804e-16 -0.04200521369307307 5.3380240263808386e-18 4.3020208992037434e-17 5.3380240263808386e-18 -0.0419690805251833" pbc="T T T"
Ti       3.00489405       3.59584924       1.18809621        0
Ti      -1.61164525       4.40024180       3.56428864        1
Ti       1.61164526       4.40024180       3.56428864        2
Ti       1.39324879       0.80439777       1.18809621        3
Ti       4.61653930       0.80439777       1.18809621        4
Ti       0.00000001       1.60879033       3.56428864        5
Al       0.00000001       3.46975798       1.18809621        6
Al       3.00489405       1.73488159       3.56428864        7
