8
Lattice="6.262469292583732 -6.7365043236275125e-16 -2.780244575153371e-48 -3.131234646291865 5.423457497797473 8.004332195572364e-49 4.619180157834667e-48 -1.3529074402574981e-48 4.93772353204563" Properties=species:S:1:pos:R:3:tags:I:1 spacegroup="P 1" unit_cell=conventional n_minim_iter=3 stress="0.24970188326319195 2.895459308248007e-16 -5.553654371501911e-17 2.895459308248007e-16 0.2497018832631912 9.073982615478005e-17 -5.553654371501911e-17 9.073982615478005e-17 0.24965621471850935" pbc="T T T"
Ti       3.13123465       3.72440601       1.23443088        0
Ti      -1.65980819       4.57393447       3.70329265        1
Ti       1.65980820       4.57393447       3.70329265        2
Ti       1.47142646       0.84953389       1.23443088        3
Ti       4.79104285       0.84953389       1.23443088        4
Ti       0.00000001       1.69906234       3.70329265        5
Al       0.00000001       3.61564376       1.23443088        6
Al       3.13123465       1.80782459       3.70329265        7
