8
Lattice="5.4747038209665515 -3.254824148355385e-16 -6.27176132095554e-50 -2.7373519104832758 4.741232587152765 -1.083805421564774e-47 3.896238013839392e-48 -7.795650562560236e-48 4.845716408182386" Properties=species:S:1:pos:R:3:tags:I:1 spacegroup="P 1" unit_cell=conventional n_minim_iter=4 stress="-0.07843675286501887 3.9450990151278484e-16 -2.3194561387259994e-17 3.9450990151278484e-16 -0.07843675286501955 1.2747017738882961e-17 -2.3194561387259994e-17 1.2747017738882961e-17 -0.07735087383600082" pbc="T T T"
Ti       2.73735192       3.24006627       1.21142910        0
Ti      -1.43729963       3.99065180       3.63428730        1
Ti       1.43729964       3.99065180       3.63428730        2
Ti       1.30005228       0.75059028       1.21142910        3
Ti       4.17465155       0.75059028       1.21142910        4
Ti       0.00000000       1.50117581       3.63428730        5
Al       0.00000000       3.16082647       1.21142910        6
Al       2.73735192       1.58041561       3.63428730        7
