8
Lattice="5.573770095257132 -3.6548143087822096e-16 -5.425676996722951e-48 -2.7868850476285645 4.8270264973466865 1.1542563349717745e-48 4.6191486067245644e-48 1.4664347396308796e-48 4.958328016900262" Properties=species:S:1:pos:R:3:tags:I:1 spacegroup="P 1" unit_cell=conventional n_minim_iter=4 stress="-0.01549123446237342 -4.30548689381933e-17 -6.955861486001066e-17 -4.30548689381933e-17 -0.015491234462372595 5.530910456427692e-17 -6.955861486001066e-17 5.530910456427692e-17 -0.015321005182987044" pbc="T T T"
Ti       2.78688505       3.33070421       1.23958200        0
Ti      -1.49102775       4.07886777       3.71874601        1
Ti       1.49102776       4.07886777       3.71874601        2
Ti       1.29585730       0.74816839       1.23958200        3
Ti       4.27791281       0.74816839       1.23958200        4
Ti       0.00000000       1.49633195       3.71874601        5
Al       0.00000000       3.21802250       1.23958200        6
Al       2.78688505       1.60901366       3.71874601        7
