8
Lattice="5.454064328173257 -3.675849982454776e-16 -5.680783376789542e-48 -2.727032164086628 4.723358262072547 -2.1887418632326035e-48 4.0948759812701686e-48 1.0435409432829643e-47 4.882460516699473" Properties=species:S:1:pos:R:3:tags:I:1 spacegroup="P 1" unit_cell=conventional n_minim_iter=4 stress="-0.06229069778463883 -1.721094869606978e-17 -9.713947793256017e-17 -1.721094869606978e-17 -0.0622906977846393 1.1379720890153795e-18 -9.713947793256017e-17 1.1379720890153795e-18 -0.062216074299518" pbc="T T T"
Ti       2.72703217       3.25285644       1.22061513        0
Ti      -1.45353613       3.98810972       3.66184538        1
Ti       1.45353614       3.98810972       3.66184538        2
Ti       1.27349603       0.73525800       1.22061513        3
Ti       4.18056831       0.73525800       1.22061513        4
Ti       0.00000000       1.47051128       3.66184538        5
Al       0.00000000       3.14891024       1.22061513        6
Al       2.72703217       1.57445748       3.66184538        7
