12
Lattice="5.393275663705406 0.0004054433664262818 -0.00023338519365059753 0.00040553560068438944 5.393436818642131 -0.0005488801260757517 -0.00027079480425023367 -0.0006271456753168833 6.230247920596799" Properties=species:S:1:pos:R:3:forces:R:3 cutoff=-1.0 nneightol=1.2 n_minim_iter=1 energy=-1953.845497732679 stress="-0.1439370004470566 5.553322647862003e-05 -7.675628170967923e-05 5.553322647862003e-05 -0.14384621404857179 -0.00018566174239959972 -7.675628170967923e-05 -0.00018566174239959972 -0.13876314906768183" free_energy=-1953.845497732679 pbc="T T T"
Si       0.47663913       0.47671207      -0.00000284      -0.00779280      -0.01414112      -0.00427725
Si      -0.47671300      -0.47684197       3.11518015       0.00821015       0.00570151       0.00373338
Si       2.22014401       3.17301926       4.67229541       0.00921098      -0.00912483      -0.00200396
Si       3.17328073       2.22022345       1.55724643      -0.01092092       0.01101677       0.00042440
Si       0.69969434       3.62567806       0.06420315      -0.01605324       0.01367395       0.14925212
Si       0.92909235       1.99715641       1.62192492       0.01101701       0.01886330       0.15019904
Si       1.76780212       4.69383209       3.04991230      -0.00948557       0.01391599      -0.14648887
Si       1.99705622       0.92883369       4.60780873       0.01492618       0.01087785      -0.14425349
Si       3.39631003       4.46441395       1.49230744      -0.01644041      -0.00928519      -0.14980433
Si       3.62577710       0.69969910      -0.06485102       0.00979467      -0.01850422      -0.14691567
Si       4.46425690       3.39600167       4.73683495      -0.01006110      -0.01268433       0.14377082
Si       4.69384751       1.76766138       3.17934467       0.01759505      -0.01030967       0.14636382
12
Lattice="5.407407771098493 -4.1294759106015515e-05 0.0003844010393184958 -4.11588542952632e-05 5.406837358686712 0.0009452136943160065 0.00044070645262753226 0.001093948528643649 6.198564495444678" Properties=species:S:1:pos:R:3:forces:R:3 cutoff=-1.0 nneightol=1.2 n_minim_iter=2 energy=-1953.848586488802 stress="-0.1401485883021229 -1.1073594677922447e-05 0.0001306830874833436 -1.1073594677922447e-05 -0.14040405675441028 0.00031476533196572124 0.0001306830874833436 0.00031476533196572124 -0.14200963261071292" free_energy=-1953.848586488802 pbc="T T T"
Si       0.47778422       0.47774031       0.00014841      -0.06893045      -0.06636143       0.00385278
Si      -0.47749875      -0.47707881       3.09918250       0.06637235       0.06655920      -0.00580698
Si       2.22630820       3.18193535       4.64964967       0.06809137      -0.06746322       0.00250282
Si       3.18149938       2.22599795       1.55030733      -0.06676414       0.06246960      -0.00222472
Si       0.70110185       3.63475936       0.06618099      -0.03232093       0.08522856       0.15053391
Si       0.93163751       2.00264588       1.61556487       0.08313473       0.02627332       0.15454275
Si       1.77231494       4.70630556       3.03470299      -0.08274925       0.03515497      -0.15575240
Si       2.00286177       0.93233916       4.58368044       0.03303243       0.07780926      -0.15825224
Si       3.40487372       4.47556016       1.48511467      -0.02790031      -0.08152119      -0.14912791
Si       3.63529302       0.70096572      -0.06511608       0.08033967      -0.02534685      -0.15721000
Si       4.47613143       3.40527434       4.71537253      -0.08085816      -0.03527922       0.15843381
Si       4.70650894       1.77245810       3.16539997       0.02855270      -0.07752300       0.15850818
12
Lattice="5.413371582277963 -0.0007265703511913219 -0.003757929907987095 -0.0007271728737356836 5.422222645166379 -0.009022964863937088 -0.004344873726889988 -0.010424704304329017 6.174187165157755" Properties=species:S:1:pos:R:3:forces:R:3 cutoff=-1.0 nneightol=1.2 n_minim_iter=3 energy=-1953.856545590007 stress="-0.13942736446199028 -0.00011181080453545956 -0.0012396501390081812 -0.00011181080453545956 -0.1352744675223162 -0.0029602351182019338 -0.0012396501390081812 -0.0029602351182019338 -0.13806431273180095" free_energy=-1953.856545590007 pbc="T T T"
Si       0.47494423       0.47570685      -0.00101225       0.07443106       0.01597887      -0.03972705
Si      -0.47715882      -0.48097897       3.08805555      -0.05648801      -0.05213232       0.05931783
Si       2.22807118       3.17879101       4.62386770      -0.07789503       0.05635348      -0.03009441
Si       3.18025189       2.23213721       1.53757986       0.06196990      -0.01486674       0.01140018
Si       0.69953624       3.64906137       0.06859682       0.03782167       0.01634760       0.10570595
Si       0.93518146       2.00681732       1.61491852       0.00408780       0.02409026       0.06111457
Si       1.76736241       4.71575462       3.00264887      -0.00290626      -0.06663657      -0.03965876
Si       2.00324646       0.93001657       4.55224471      -0.03827328       0.05241227      -0.02608314
Si       3.40529476       4.48120111       1.45855988      -0.00270705      -0.02138188      -0.11490122
Si       3.64314041       0.70107619      -0.07909939       0.01982049      -0.02095243      -0.02990566
Si       4.47309123       3.40373645       4.69728198      -0.01663432       0.06588726       0.00749490
Si       4.71070865       1.76724949       3.15629552      -0.00322696      -0.05509979       0.03533681
12
Lattice="5.4209699550433275 -0.00048612659935982455 -0.0003790597064790988 -0.000485779229277782 5.41734813278822 -0.0009627731111119415 -0.0004428877533396223 -0.0011140017338130681 6.171060574650372" Properties=species:S:1:pos:R:3:forces:R:3 cutoff=-1.0 nneightol=1.2 n_minim_iter=4 energy=-1953.858399560853 stress="-0.13605857194456786 -6.900035767029831e-05 -0.00011887518174256132 -6.900035767029831e-05 -0.1377548704478466 -0.00031366775518981065 -0.00011887518174256132 -0.00031366775518981065 -0.13678086422081168" free_energy=-1953.858399560853 pbc="T T T"
Si       0.47514687       0.47460032      -0.00013008       0.07263077       0.08913440      -0.00746817
Si      -0.47537022      -0.47538689       3.08565668      -0.07119918      -0.08597748       0.00071569
Si       2.23474354       3.18246699       4.62756283      -0.07583711       0.09008359       0.00209920
Si       3.18526926       2.23324567       1.54212625       0.07523695      -0.08530337       0.00642421
Si       0.70045146       3.64693626       0.07703478       0.03577816      -0.00707821       0.02554679
Si       0.93854172       2.00794474       1.62017335       0.00805919      -0.02649434       0.03494223
Si       1.77104301       4.71632227       3.00682514      -0.00957687      -0.03679827      -0.03610807
Si       2.00926051       0.93718301       4.55019592      -0.03423804       0.00183871      -0.01601981
Si       3.41082532       4.47856614       1.46397337       0.02975363       0.00201731      -0.02548765
Si       3.64919286       0.70006462      -0.07814875       0.01230090       0.02683466      -0.03440822
Si       4.48155099       3.40777556       4.70508795      -0.01117795       0.03570524       0.03360335
Si       4.71977256       1.76957833       3.16270598      -0.03173045      -0.00396224       0.01616046
12
Lattice="5.417478325395713 -5.237730308660608e-05 0.0008286482304791732 -5.2548870083218296e-05 5.421048054870258 0.0020807118093670567 0.0009520924902912935 0.0024011098823247374 6.170824158269536" Properties=species:S:1:pos:R:3:forces:R:3 cutoff=-1.0 nneightol=1.2 n_minim_iter=5 energy=-1953.858741457642 stress="-0.1375960538734967 -5.630047638632759e-06 0.0002770019617847682 -5.630047638632759e-06 -0.1359198269714871 0.0006855662675768874 0.0002770019617847682 0.0006855662675768874 -0.1366457738946917" free_energy=-1953.858741457642 pbc="T T T"
Si       0.47518330       0.47532338       0.00018144       0.08308143       0.08150483       0.01665223
Si      -0.47469468      -0.47436401       3.08519754      -0.08723662      -0.06547753      -0.00812050
Si       2.23427869       3.18785042       4.62966848      -0.08427104       0.06733398       0.00148979
Si       3.18405860       2.23555561       1.54406986       0.08885366      -0.07636619      -0.00848606
Si       0.70045468       3.64969241       0.07987103       0.02754385       0.00880844       0.02506934
Si       0.93869998       2.01025134       1.62211555      -0.00129213      -0.04220979       0.00885212
Si       1.77071721       4.72123338       3.00909506      -0.00064249      -0.02163077      -0.01705073
Si       2.00893343       0.94079680       4.55045231      -0.02609915       0.00643161      -0.04212792
Si       3.40941160       4.48254704       1.46655653       0.03456269      -0.01299990      -0.02231097
Si       3.64714375       0.70086003      -0.07758665      -0.00189907       0.04122372      -0.01813673
Si       4.47974455       3.41330270       4.70845052       0.00186509       0.02111260       0.02503917
Si       4.71748219       1.77273429       3.16518384      -0.03446621      -0.00773102       0.03913025
12
Lattice="5.42053594374815 0.0051821282235240285 8.274979083946898e-06 0.005182450006483987 5.419928273532289 0.0006793303167515244 3.671289005237256e-06 0.0007820136051180982 6.168622187128501" Properties=species:S:1:pos:R:3:forces:R:3 cutoff=-1.0 nneightol=1.2 n_minim_iter=6 energy=-1953.862591456582 stress="-0.1340302295701507 0.0007328948746752222 -8.795747327280754e-06 0.0007328948746752222 -0.1343105168321283 0.00021703891855574917 -8.795747327280754e-06 0.00021703891855574917 -0.13623933162192955" free_energy=-1953.862591456582 pbc="T T T"
Si       0.48363569       0.48397415       0.00016609       0.00790747      -0.00100843      -0.00165751
Si      -0.48368201      -0.48309776       3.08421565      -0.00622656      -0.01148757      -0.00197396
Si       2.22988805       3.19602861       4.62689957       0.01863492      -0.01692353       0.00205843
Si       3.19590294       2.22988724       1.54244799      -0.02083843       0.01366830      -0.00209184
Si       0.70741812       3.65205158       0.08736247      -0.01932636       0.03731351      -0.00204597
Si       0.94364252       2.00740164       1.62898762       0.03238650       0.00205437       0.01409292
Si       1.77291751       4.71821749       2.99807547      -0.02666576       0.02086439      -0.00617107
Si       2.00740378       0.94428765       4.53983442       0.00534697       0.02440109      -0.00866924
Si       3.41829282       4.48162743       1.45590241      -0.00463267      -0.02860971      -0.00235977
Si       3.65288675       0.70719882      -0.08666991       0.02372138      -0.01315817      -0.00676801
Si       4.48193000       3.41855297       4.71374376      -0.02782678      -0.00876448       0.00682654
Si       4.71837232       1.77294126       3.17127233       0.01751933      -0.01834977       0.00875950
12
Lattice="5.4164096936069575 -0.004466067570870636 0.0009805905034404032 -0.00446622141514363 5.416454726078948 -0.0002274760402784708 0.0011286609522075527 -0.0002638022655742581 6.17727906963672" Properties=species:S:1:pos:R:3:forces:R:3 cutoff=-1.0 nneightol=1.2 n_minim_iter=7 energy=-1953.862988242282 stress="-0.13475869476885613 -0.000635560336699757 0.00031138396513892357 -0.000635560336699757 -0.13473390849100975 -7.534496959517179e-05 0.00031138396513892357 -7.534496959517179e-05 -0.13515950839034846" free_energy=-1953.862988242282 pbc="T T T"
Si       0.48391876       0.48422752       0.00014207      -0.01040762      -0.01840442       0.00026754
Si      -0.48337329      -0.48397743       3.08854535       0.00700445       0.00549806      -0.00189721
Si       2.22218031       3.19040036       4.63326983      -0.00813998       0.01189012      -0.00597122
Si       3.19093182       2.22133696       1.54479268       0.01098904      -0.01108335       0.00474161
Si       0.70065953       3.64911189       0.08816841      -0.01361473       0.01753610      -0.00072401
Si       0.94028461       2.00371802       1.63240578       0.01103821       0.01845288      -0.00104211
Si       1.76314969       4.71129055       3.00058952      -0.01059198       0.00597128       0.00621527
Si       2.00458566       0.93992882       4.54516781       0.02211622       0.00600320       0.00162525
Si       3.40840325       4.47181913       1.45658582      -0.01240261      -0.00619382       0.00295595
Si       3.64939699       0.70054805      -0.08746452       0.00550880      -0.00774753      -0.00435411
Si       4.47269762       3.40800695       4.72180658      -0.00407076      -0.01658983      -0.00028182
Si       4.71196138       1.76234537       3.17751206       0.00257097      -0.00533271      -0.00153514
12
Lattice="5.41544860644932 -0.0014467931857359351 -0.001016059854849818 -0.0014466305994188765 5.415533878448278 0.0003745682457416539 -0.001178108202601642 0.00043199837124301735 6.179422194855458" Properties=species:S:1:pos:R:3:forces:R:3 cutoff=-1.0 nneightol=1.2 n_minim_iter=8 energy=-1953.863099207354 stress="-0.13500086398564465 -0.00020516365569178962 -0.0003360089036257968 -0.00020516365569178962 -0.13495923171929444 0.0001197900152160979 -0.0003360089036257968 0.0001197900152160979 -0.13490604246363336" free_energy=-1953.863099207354 pbc="T T T"
Si       0.48410534       0.48433158       0.00000809       0.00515427      -0.00319390      -0.00433200
Si      -0.48473121      -0.48386226       3.08973349       0.00031193      -0.00320306       0.00335295
Si       2.22175371       3.19173139       4.63436900      -0.01048218       0.00756496       0.00487824
Si       3.19112361       2.22280665       1.54443157       0.00453452      -0.00969925      -0.00586438
Si       0.70241647       3.64903671       0.08830020      -0.00500376       0.00930929      -0.00669323
Si       0.94071033       2.00421470       1.63282961       0.00225172       0.01073129       0.00424349
Si       1.76427416       4.71187364       3.00157915      -0.00120832       0.01102839      -0.00173303
Si       2.00320945       0.94143498       4.54615302       0.00738913       0.00072970       0.00233282
Si       3.40966304       4.47308264       1.45638082      -0.01688787      -0.00303162       0.00319281
Si       3.64920277       0.70237939      -0.08876236       0.00314048      -0.00635805       0.00688947
Si       4.47201693       3.41033942       4.72213705      -0.00329136      -0.01393730      -0.00808701
Si       4.71096377       1.76501056       3.17703281       0.01409143       0.00005956       0.00181987
12
Lattice="5.4152828859570175 0.00021866737719028953 9.051445859573584e-05 0.0002187453764459776 5.415365600007182 -0.00013207786495570233 0.00010006841292774498 -0.0001533771408137847 6.179802650204717" Properties=species:S:1:pos:R:3:forces:R:3 cutoff=-1.0 nneightol=1.2 n_minim_iter=9 energy=-1953.863126125167 stress="-0.13507874119213642 -7.483544121103702e-07 -1.1673298342945854e-05 -7.483544121103702e-07 -0.135003365260558 8.531194584010802e-08 -1.1673298342945854e-05 8.531194584010802e-08 -0.1348551310368401" free_energy=-1953.863126125167 pbc="T T T"
Si       0.48422617       0.48439044       0.00003888       0.01047731       0.00140995      -0.00202257
Si      -0.48419036      -0.48427758       3.08988285      -0.00760637      -0.00826074       0.00063280
Si       2.22359588       3.19190138       4.63482422      -0.00655615       0.00654622       0.00004945
Si       3.19203306       2.22353824       1.54495018       0.00542340      -0.00733550      -0.00104593
Si       0.70346749       3.64919950       0.08801967      -0.00931458       0.00528556      -0.00346792
Si       0.94165492       2.00438322       1.63290941       0.00347597       0.01029490      -0.00058941
Si       1.76628029       4.71207046       3.00173614      -0.00201460       0.00937394       0.00317397
Si       2.00446441       0.94158936       4.54681837       0.00987587       0.00226031       0.00382616
Si       3.41111927       4.47384329       1.45682135      -0.00942194      -0.00329411       0.00392550
Si       3.64929801       0.70342656      -0.08801261      -0.00224999      -0.00697384       0.00203280
Si       4.47389650       3.41105141       4.72293305      -0.00191200      -0.00898143      -0.00429031
Si       4.71211283       1.76611486       3.17798259       0.00982307      -0.00032526      -0.00222454
12
Lattice="5.416051619600105 0.001319571974009511 0.00038790791559128746 0.0013196786582836406 5.41569537838643 -0.0002928380513462141 0.000443406941980246 -0.0003393268003818029 6.178549660294331" Properties=species:S:1:pos:R:3:forces:R:3 cutoff=-1.0 nneightol=1.2 n_minim_iter=10 energy=-1953.863164693365 stress="-0.1348291756429565 0.00018670490471849182 0.00013094769442549304 0.00018670490471849182 -0.13499520265614 -9.233295580945602e-05 0.00013094769442549304 -9.233295580945602e-05 -0.1350553881034816" free_energy=-1953.863164693365 pbc="T T T"
Si       0.48485510       0.48460537      -0.00003910      -0.00183314       0.00579365       0.00181912
Si      -0.48453046      -0.48489993       3.08926236      -0.00323634      -0.00366954      -0.00094732
Si       2.22448551       3.19276451       4.63391568       0.00398164      -0.00101645      -0.00258947
Si       3.19330752       2.22388511       1.54471129      -0.00160367       0.00282530       0.00379593
Si       0.70391956       3.64986980       0.08777348      -0.01275678       0.00332153       0.00043299
Si       0.94251261       2.00508927       1.63256893       0.00662703       0.00835030      -0.00211828
Si       1.76749402       4.71301879       3.00120485      -0.00697831       0.00961746       0.00284708
Si       2.00562147       0.94206197       4.54613995       0.00884830       0.00648335      -0.00081099
Si       3.41219014       4.47457281       1.45675361      -0.00570121      -0.00410077      -0.00102073
Si       3.64993573       0.70392492      -0.08774878       0.01038592      -0.01435803       0.00004182
Si       4.47533925       3.41163162       4.72195543      -0.00632848      -0.00673770       0.00209174
Si       4.71372138       1.76702353       3.17745113       0.00859503      -0.00650910      -0.00354190
12
Lattice="5.41702523017324 0.0002999548616952944 -0.0002809354999026514 0.0003001245734498402 5.416695499104495 0.0003403838111375693 -0.0003293157371083067 0.0003919055846062265 6.1762982416843215" Properties=species:S:1:pos:R:3:forces:R:3 cutoff=-1.0 nneightol=1.2 n_minim_iter=11 energy=-1953.863245172904 stress="-0.13470762543816436 4.3646099680249645e-05 -6.829242373034763e-05 4.3646099680249645e-05 -0.1348648815358647 0.00012166214307100515 -6.829242373034763e-05 0.00012166214307100515 -0.13513976846145956" free_energy=-1953.863245172904 pbc="T T T"
Si       0.48574702       0.48482069      -0.00020062      -0.01104547       0.01600526       0.00738468
Si      -0.48570318      -0.48547544       3.08818273       0.00517741       0.01047171      -0.00247129
Si       2.22305658       3.19422608       4.63228404       0.00279433      -0.00473031       0.00374790
Si       3.19382800       2.22308749       1.54399450      -0.00043508       0.00489573      -0.00030368
Si       0.70172636       3.65148268       0.08777765       0.00125727      -0.00617481       0.00114515
Si       0.94294854       2.00707874       1.63216205       0.00342629      -0.00209325      -0.00855992
Si       1.76584509       4.71548006       3.00071490      -0.00928967       0.00389437      -0.00290778
Si       2.00681530       0.94304615       4.54453556      -0.00094504       0.01054182      -0.00430522
Si       3.41027309       4.47422863       1.45658426      -0.00325508      -0.00774556      -0.00150975
Si       3.65094748       0.70191689      -0.08794035       0.02121374      -0.00552346       0.00499160
Si       4.47425181       3.41046169       4.71979140      -0.01164802      -0.00367374       0.00398856
Si       4.71540877       1.76638717       3.17575321       0.00274933      -0.01586776      -0.00120024
12
Lattice="5.41644694972547 -2.755280957093286e-05 -9.546760666476054e-05 -2.7446472479034017e-05 5.416390694734179 1.3518562112949613e-05 -0.00011492636462323363 1.4464262477020363e-05 6.177305193147463" Properties=species:S:1:pos:R:3:forces:R:3 cutoff=-1.0 nneightol=1.2 n_minim_iter=12 energy=-1953.863276129696 stress="-0.13488362650810237 5.832972833955002e-06 2.082100801903081e-05 5.832972833955002e-06 -0.13490757952404808 4.309409982590247e-06 2.082100801903081e-05 4.309409982590247e-06 -0.13494527226074313" free_energy=-1953.863276129696 pbc="T T T"
Si       0.48588433       0.48517738      -0.00015398      -0.00692194       0.01173202       0.00532993
Si      -0.48578797      -0.48582714       3.08868510       0.00265826       0.00685075      -0.00117200
Si       2.22250645       3.19389974       4.63294039       0.00117401      -0.00179173      -0.00009715
Si       3.19370905       2.22241186       1.54422814       0.00196874       0.00357583       0.00172820
Si       0.70117492       3.65137993       0.08771126      -0.00054696      -0.00555988       0.00111672
Si       0.94302383       2.00707337       1.63236352       0.00004806      -0.00183795      -0.00835500
Si       1.76518463       4.71521591       3.00087868      -0.00468968      -0.00002412       0.00011867
Si       2.00696855       0.94290702       4.54514867      -0.00097370       0.00637964      -0.00097155
Si       3.40939848       4.47340646       1.45655159      -0.00136835      -0.00376426      -0.00110177
Si       3.65089762       0.70134652      -0.08792216       0.01370532      -0.00446215       0.00364647
Si       4.47342432       3.40942576       4.72063217      -0.00481474      -0.00064054       0.00257428
Si       4.71519613       1.76546399       3.17640025      -0.00023902      -0.01045760      -0.00281679
12
Lattice="5.416409967212353 -0.0002464869957336904 -0.00016580587571232385 -0.00024639219268942524 5.416475974981287 -5.485431002275078e-05 -0.00019614942701766465 -6.451532655144291e-05 6.177250128311873" Properties=species:S:1:pos:R:3:forces:R:3 cutoff=-1.0 nneightol=1.2 n_minim_iter=13 energy=-1953.86329124878 stress="-0.1349536084402042 3.136052031121692e-06 1.0062778056739132e-05 3.136052031121692e-06 -0.13494204047368658 4.136628855139999e-06 1.0062778056739132e-05 4.136628855139999e-06 -0.1348292547334212" free_energy=-1953.86329124878 pbc="T T T"
Si       0.48590931       0.48559595      -0.00005552      -0.00101020       0.00721872       0.00214112
Si      -0.48594301      -0.48589728       3.08865202       0.00101847       0.00141741       0.00032454
Si       2.22213751       3.19395398       4.63283226      -0.00052073       0.00052643      -0.00099061
Si       3.19380162       2.22218158       1.54417596       0.00191288       0.00047199       0.00028272
Si       0.70068034       3.65147797       0.08767138      -0.00006377      -0.00306050      -0.00069538
Si       0.94311144       2.00734369       1.63213864      -0.00082950      -0.00303508      -0.00501277
Si       1.76464206       4.71551770       3.00077789      -0.00077900      -0.00222206       0.00093421
Si       2.00716445       0.94312827       4.54503902      -0.00216810       0.00205879       0.00178696
Si       3.40880338       4.47303969       1.45641531       0.00013627      -0.00198748       0.00082787
Si       3.65135041       0.70078329      -0.08788087       0.00428978       0.00054438       0.00188628
Si       4.47288721       3.40889329       4.72053302      -0.00017331       0.00145811      -0.00001236
Si       4.71539049       1.76483899       3.17622318      -0.00181279      -0.00339070      -0.00147256
