12
Lattice="5.83309949790101 0.00010598974437653938 3.184223460273898e-05 0.00010598636025858983 5.833071812199838 7.569329860057334e-06 3.8662887404579124e-05 8.829137485019937e-06 7.101753019970104" Properties=species:S:1:pos:R:3:forces:R:3 cutoff=-1.0 nneightol=1.2 n_minim_iter=1 energy=-1955.52796043639 stress="0.04630866791641604 1.2669100374251533e-06 1.3219825574497454e-06 1.2669100374251533e-06 0.046303279477685755 -1.7856632239203182e-07 1.3219825574497454e-06 -1.7856632239203182e-07 0.045529688689087716" free_energy=-1955.52796043639 pbc="T T T"
Si       0.45619141       0.45620745      -0.00000044       0.00720003       0.00731885      -0.00003272
Si      -0.45617530      -0.45620090       3.55087315      -0.00767743      -0.00734518      -0.00012555
Si       2.46043672       3.37279141       5.32632670      -0.00720560       0.00719962       0.00003928
Si       3.37280599       2.46038930       1.77545301       0.00730822      -0.00715271       0.00015322
Si       0.74136495       3.87357140      -0.12479928       0.03696830       0.00433480      -0.06067445
Si       0.95708675       2.17528123       1.65062510       0.00426276      -0.03745991      -0.06040147
Si       1.95964926       5.09183494       3.67571655      -0.00459902      -0.03743447       0.06046218
Si       2.17530116       0.95707013       5.45114075      -0.03739901       0.00432007       0.06054813
Si       3.65793950       4.87611652       1.90028703       0.03743921      -0.00434837       0.06061325
Si       3.87358195       0.74134619       0.12484963       0.00506054       0.03742853       0.06039454
Si       4.87616123       3.65790903       5.20152103      -0.00415662       0.03751352      -0.06033074
Si       5.09185778       1.95961203       3.42609242      -0.03720139      -0.00437475      -0.06064566
12
Lattice="5.827837312840778 8.040894820862271e-05 5.2685994711490805e-06 8.040366420692587e-05 5.827918054027202 1.117957761764082e-05 6.205378610115366e-06 1.3200747908404195e-05 7.114451382351796" Properties=species:S:1:pos:R:3:forces:R:3 cutoff=-1.0 nneightol=1.2 n_minim_iter=2 energy=-1955.528499688601 stress="0.04555168036465084 1.0597586543001937e-06 1.2819756430385158e-07 1.0597586543001937e-06 0.04556884221999865 1.0852222645894243e-07 1.2819756430385158e-07 1.0852222645894243e-07 0.04651767909668001" free_energy=-1955.528499688601 pbc="T T T"
Si       0.45588064       0.45590684      -0.00000271       0.01140870       0.01093878       0.00000586
Si      -0.45588757      -0.45589848       3.55722233      -0.01133890      -0.01100127       0.00000923
Si       2.45807520       3.36990671       5.33584190      -0.01105634       0.01089631       0.00003132
Si       3.36984875       2.45809971       1.77861594       0.01108231      -0.01085864      -0.00000273
Si       0.74120743       3.87020749      -0.12589176       0.03510390      -0.00504645      -0.06004781
Si       0.95626715       2.17282145       1.65270907      -0.00527795      -0.03531561      -0.06001828
Si       1.95777674       5.08679550       3.68314844       0.00493288      -0.03530545       0.05999702
Si       2.17277590       0.95628004       5.46174490      -0.03516397      -0.00505733       0.06008492
Si       3.65514396       4.87173140       1.90453861       0.03521965       0.00500428       0.05998407
Si       3.87015591       0.74120855       0.12591996      -0.00506923       0.03540041       0.05993866
Si       4.87166327       3.65519446       5.20993825       0.00523237       0.03535305      -0.05997842
Si       5.08670912       1.95779806       3.43132853      -0.03507344       0.00499191      -0.06000384
12
Lattice="5.825201528639938 -0.0001383296770965331 -0.00014719713254835384 -0.0001383204564652645 5.824527102322211 2.197844179706611e-05 -0.00017947869149159598 2.633557984752718e-05 7.12181433320395" Properties=species:S:1:pos:R:3:forces:R:3 cutoff=-1.0 nneightol=1.2 n_minim_iter=3 energy=-1955.530706688994 stress="0.04467085482839073 -1.2090820826347974e-06 -6.701337194037458e-06 -1.2090820826347974e-06 0.04455075496126757 1.7880705035856916e-06 -6.701337194037458e-06 1.7880705035856916e-06 0.045333665347676015" free_energy=-1955.530706688994 pbc="T T T"
Si       0.45683575       0.45678591      -0.00001602      -0.03287173      -0.03448353      -0.00038654
Si      -0.45696810      -0.45677644       3.56090582       0.03597795       0.03432096       0.00013930
Si       2.45553826       3.36901367       5.34131084       0.03482949      -0.03407705       0.00066571
Si       3.36935476       2.45540185       1.78038462      -0.03527240       0.03405839      -0.00018012
Si       0.74548712       3.86797995      -0.13401755      -0.01232691      -0.00602722      -0.00679775
Si       0.95574479       2.16671906       1.64643793      -0.00551043       0.01411630      -0.00633725
Si       1.95652520       5.07896634       3.69488246       0.00540041       0.01407485       0.00587880
Si       2.16682175       0.95570329       5.47531800       0.01446606      -0.00600562       0.00759336
Si       3.65805698       4.86870702       1.91439780      -0.01438663       0.00588786       0.00660107
Si       3.86848070       0.74543987       0.13390603      -0.00875970      -0.01354033       0.00594006
Si       4.86915811       3.65770593       5.20725656       0.00462844      -0.01428283      -0.00647811
Si       5.07947307       1.95641592       3.42677193       0.01382545       0.00595823      -0.00663854
12
Lattice="5.826360904443081 -9.963653952495528e-05 -1.923740128997569e-05 -9.966893581558889e-05 5.827985402812635 -9.84712821745671e-06 -2.364947132389784e-05 -1.240200539513932e-05 7.11617195941115" Properties=species:S:1:pos:R:3:forces:R:3 cutoff=-1.0 nneightol=1.2 n_minim_iter=4 energy=-1955.530939544969 stress="0.04479259004753641 -1.3328153466563302e-06 -7.142694953020727e-07 -1.3328153466563302e-06 0.04510430234736645 1.388128228005545e-07 -7.142694953020727e-07 1.388128228005545e-07 0.045016421792024454" free_energy=-1955.530939544969 pbc="T T T"
Si       0.45640494       0.45651786      -0.00001332      -0.02846373      -0.03027689       0.00106572
Si      -0.45641885      -0.45652928       3.55807923       0.02880705       0.03039888       0.00105498
Si       2.45671337       3.37046480       5.33712271       0.02822607      -0.03023339      -0.00088887
Si       3.36952735       2.45740831       1.77903182      -0.02830558       0.03026656      -0.00089408
Si       0.74511809       3.87022743      -0.13335201      -0.00868754      -0.00299193      -0.00886290
Si       0.95593906       2.16856919       1.64571149      -0.00475214       0.00866294      -0.01131398
Si       1.95707780       5.08254044       3.69139559       0.00505289       0.00873165       0.01125827
Si       2.16794841       0.95620091       5.47046864       0.00914106      -0.00298932       0.00877991
Si       3.65829051       4.87166519       1.91236885      -0.00916321       0.00310431       0.00867019
Si       3.86916672       0.74534806       0.13330748      -0.00531730      -0.00890253       0.01129477
Si       4.87030060       3.65931294       5.20378440       0.00462818      -0.00887937      -0.01133912
Si       5.08113176       1.95764717       3.42472352       0.00883425       0.00310909      -0.00882489
12
Lattice="5.832586303351823 -3.0288847825354378e-05 0.00011308333665203428 -3.0178085427609215e-05 5.826333073638223 -4.2505554882534445e-05 0.00013752254046609384 -5.216130184191575e-05 7.110592498332784" Properties=species:S:1:pos:R:3:forces:R:3 cutoff=-1.0 nneightol=1.2 n_minim_iter=5 energy=-1955.531082853132 stress="0.04582923260322288 6.782347116427776e-07 2.2657931098117463e-06 6.782347116427776e-07 0.044631762490613174 -2.369306966163587e-06 2.2657931098117463e-06 -2.369306966163587e-06 0.04467262299803012" free_energy=-1955.531082853132 pbc="T T T"
Si       0.45581876       0.45525843       0.00001424      -0.02365565      -0.01654596      -0.00365327
Si      -0.45570900      -0.45528853       3.55530722       0.02379297       0.01601354      -0.00350261
Si       2.46059428       3.36837891       5.33296236       0.02398287      -0.01592149       0.00293452
Si       3.37209549       2.45787180       1.77767732      -0.02370579       0.01599689       0.00373707
Si       0.74544714       3.86902919      -0.13323696      -0.00395756      -0.00742053      -0.01658270
Si       0.95688017       2.16848737       1.64439546      -0.00100066       0.00406087      -0.00766353
Si       1.95946389       5.08163394       3.68854608       0.00147285       0.00409762       0.00808850
Si       2.17094561       0.95581476       5.46621521       0.00164213      -0.00827554       0.01621074
Si       3.66175555       4.87042862       1.91090361      -0.00257219       0.00851638       0.01648010
Si       3.87311826       0.74465200       0.13331727      -0.00003962      -0.00481392       0.00823474
Si       4.87579681       3.65776653       5.19975680       0.00152418      -0.00417508      -0.00763649
Si       5.08719252       1.95724617       3.42216052       0.00251648       0.00846720      -0.01664707
12
Lattice="5.829567265788688 2.0858313054273598e-05 0.00021764485284042186 2.0825231647202706e-05 5.831224724508885 -4.285054837099469e-05 0.00026481791911190825 -5.257293563098802e-05 7.108306999318559" Properties=species:S:1:pos:R:3:forces:R:3 cutoff=-1.0 nneightol=1.2 n_minim_iter=6 energy=-1955.531390819988 stress="0.04510513962738958 -1.1753451378974832e-06 1.023047164070701e-05 -1.1753451378974832e-06 0.045405456439688414 -2.413158457397272e-06 1.023047164070701e-05 -2.413158457397272e-06 0.04444463439466018" free_energy=-1955.531390819988 pbc="T T T"
Si       0.45412649       0.45418764       0.00000814      -0.01305082      -0.01015326       0.00129773
Si      -0.45390393      -0.45422271       3.55414974       0.00802495       0.01066035       0.00031538
Si       2.46092917       3.36978366       5.33130751       0.00887040      -0.01076415      -0.00138473
Si       3.36891558       2.46141145       1.77717991      -0.00831569       0.01077649      -0.00007942
Si       0.74498231       3.87205289      -0.13430767      -0.00308109      -0.00828905      -0.00882968
Si       0.95622678       2.17044658       1.64279164      -0.00927005       0.00090847      -0.01080472
Si       1.95877614       5.08604973       3.68848505       0.01018386       0.00092941       0.01145359
Si       2.17005116       0.95639548       5.46562683       0.00045181      -0.00806312       0.00730630
Si       3.65980456       4.87479446       1.91147135      -0.00052029       0.00844131       0.00898612
Si       3.87087352       0.74517294       0.13443644      -0.00476537      -0.00195644       0.01143216
Si       4.87359588       3.66074033       5.19707871       0.01057826      -0.00083726      -0.01062189
Si       5.08475449       1.95917888       3.42002783       0.00089402       0.00834726      -0.00907085
12
Lattice="5.825322169354067 0.00012718693793348996 -4.192866953658385e-05 0.00012710837285926028 5.829412778745714 3.652607014584538e-05 -5.1280893866490785e-05 4.406204951299811e-05 7.115698113249561" Properties=species:S:1:pos:R:3:forces:R:3 cutoff=-1.0 nneightol=1.2 n_minim_iter=7 energy=-1955.531699920657 stress="0.04417971120494342 1.8505560150157223e-06 -8.417674397740834e-07 1.8505560150157223e-06 0.044965242215159816 2.0069318632583208e-06 -8.417674397740834e-07 2.0069318632583208e-06 0.044704523166332985" free_energy=-1955.531699920657 pbc="T T T"
Si       0.45117234       0.45152164       0.00000552       0.00837525       0.00348934       0.00212898
Si      -0.45118172      -0.45150074       3.55785231      -0.00883574      -0.00289323       0.00195404
Si       2.46150961       3.36631931       5.33677912      -0.00806735       0.00264844      -0.00193756
Si       3.36388908       2.46327031       1.77893468       0.00792025      -0.00280069      -0.00250416
Si       0.74511613       3.87006719      -0.13814377      -0.00337541      -0.01957377       0.00378639
Si       0.95472575       2.16918367       1.64078099      -0.02368063       0.00284413      -0.00198157
Si       1.95808308       5.08392913       3.69602097       0.02317216       0.00277881       0.00163643
Si       2.16759544       0.95541520       5.47490337       0.00418534      -0.01878885      -0.00327556
Si       3.65778180       4.87418488       1.91706700      -0.00363234       0.01846293      -0.00318083
Si       3.86736022       0.74560709       0.13813473      -0.02367750      -0.00205787       0.00154749
Si       4.87067641       3.66038108       5.19861316       0.02347296      -0.00254353      -0.00191030
Si       5.08028750       1.95951935       3.41966642       0.00414299       0.01843430       0.00373665
12
Lattice="5.828785244597673 4.550537522463647e-05 1.953443564472673e-05 4.5543378154564934e-05 5.82650186140288 -1.560581272224793e-05 2.3577623274423817e-05 -1.9413842645514423e-05 7.115023323772601" Properties=species:S:1:pos:R:3:forces:R:3 cutoff=-1.0 nneightol=1.2 n_minim_iter=8 energy=-1955.531804400909 stress="0.04489131149202666 8.084800935329675e-07 6.131819591363376e-07 8.084800935329675e-07 0.044452424117322135 -6.6119071395855e-07 6.131819591363376e-07 -6.6119071395855e-07 0.04464781768626815" free_energy=-1955.531804400909 pbc="T T T"
Si       0.45161188       0.45141606       0.00001152       0.00094157       0.00346512      -0.00137196
Si      -0.45157306      -0.45142018       3.55752118      -0.00113550      -0.00379569      -0.00132652
Si       2.46283330       3.36467072       5.33626098      -0.00075893       0.00368361       0.00115973
Si       3.36601846       2.46185934       1.77875912       0.00078093      -0.00368090       0.00123357
Si       0.74527864       3.86764707      -0.13782357      -0.00122276      -0.01553573      -0.00215964
Si       0.95477893       2.16829728       1.64091662      -0.01330113       0.00133648       0.00131562
Si       1.95970395       5.08155293       3.69533802       0.01315417       0.00134545      -0.00116787
Si       2.16916175       0.95439087       5.47408104       0.00085552      -0.01578287       0.00221012
Si       3.65967999       4.87214280       1.91656093      -0.00081862       0.01578555       0.00231504
Si       3.86913919       0.74497285       0.13784747      -0.01296616      -0.00137744      -0.00121023
Si       4.87407133       3.65822099       5.19844040       0.01339637      -0.00120385       0.00121247
Si       5.08355569       1.95889874       3.41971090       0.00107454       0.01576028      -0.00221034
12
Lattice="5.8262471760473735 -6.512608071068327e-05 -0.00012364586606669975 -6.513013213479643e-05 5.82629633444321 -1.342427301582707e-05 -0.00015077860328856427 -1.676004705685588e-05 7.118373918228432" Properties=species:S:1:pos:R:3:forces:R:3 cutoff=-1.0 nneightol=1.2 n_minim_iter=9 energy=-1955.531908789437 stress="0.04451147740744832 -3.096281642937601e-06 -1.6146677448678364e-06 -3.096281642937601e-06 0.044521297515651904 -1.6096429864944086e-08 -1.6146677448678364e-06 -1.6096429864944086e-08 0.044650059249191514" free_energy=-1955.531908789437 pbc="T T T"
Si       0.45025451       0.45028215      -0.00000815      -0.00131400      -0.00099717       0.00043558
Si      -0.45036957      -0.45028132       3.55918608       0.00114551       0.00046648       0.00046937
Si       2.46269864       3.36338157       5.33871673       0.00032671      -0.00039947       0.00021560
Si       3.36333017       2.46283104       1.77951757      -0.00057537       0.00049398      -0.00028402
Si       0.74464403       3.86522718      -0.13935571       0.00433268       0.00078361       0.00274881
Si       0.95202398       2.16841801       1.64024369       0.00037738      -0.00307389       0.00272367
Si       1.96091267       5.08155205       3.69845918      -0.00064948      -0.00307394      -0.00270917
Si       2.16828423       0.95205881       5.47805935      -0.00168588       0.00076254      -0.00273701
Si       3.65774377       4.87415807       1.91885437       0.00273611      -0.00068666      -0.00312539
Si       3.86523440       0.74466546       0.13924038      -0.00081368       0.00324252      -0.00290555
Si       4.87402043       3.65780136       5.19934371      -0.00086873       0.00311009       0.00236229
Si       5.08145447       1.96098624       3.41974008      -0.00301124      -0.00062809       0.00280581
