12
Lattice="5.83309949790101 0.00010598974437653938 3.184223460273898e-05 0.00010598636025858983 5.833071812199838 7.569329860057334e-06 3.8662887404579124e-05 8.829137485019937e-06 7.101753019970104" Properties=species:S:1:pos:R:3:forces:R:3 cutoff=-1.0 nneightol=1.2 n_minim_iter=9 energy=-1955.749941529066 stress="0.03464679035911551 1.3602134107557398e-06 1.4041740262539585e-06 1.3602134107557398e-06 0.03464163336839101 -1.991572628956335e-07 1.4041740262539585e-06 -1.991572628956335e-07 0.034651838292198915" free_energy=-1955.749941529066 pbc="T T T"
Si       0.45619141       0.45620745      -0.00000044      -0.00147340      -0.00133275      -0.00003578
Si      -0.45617530      -0.45620090       3.55087315       0.00097126       0.00130766      -0.00013298
Si       2.46043672       3.37279141       5.32632670       0.00145597      -0.00146266       0.00003632
Si       3.37280599       2.46038930       1.77545301      -0.00134448       0.00151155       0.00015692
Si       0.74136495       3.87357140      -0.12479928       0.00183498      -0.00049227       0.00096128
Si       0.95708675       2.17528123       1.65062510      -0.00057931      -0.00234310       0.00124603
Si       1.95964926       5.09183494       3.67571655       0.00023301      -0.00231258      -0.00117994
Si       2.17530116       0.95707013       5.45114075      -0.00229027      -0.00050478      -0.00109488
Si       3.65793950       4.87611652       1.90028703       0.00233448       0.00047567      -0.00102152
Si       3.87358195       0.74134619       0.12484963       0.00025228       0.00230225      -0.00124970
Si       4.87616123       3.65790903       5.20152103       0.00068635       0.00239911       0.00132366
Si       5.09185778       1.95961203       3.42609242      -0.00208085       0.00045191       0.00099059
