12
Lattice="5.755480829272647 -1.2516337441948534e-06 -3.7478164211728084e-06 -1.2516193274934784e-06 5.754047951413206 9.514127221915005e-06 -4.475514425338774e-06 1.1464645188908358e-05 6.964722184408585" Properties=species:S:1:pos:R:3:forces:R:3 cutoff=-1.0 nneightol=1.2 n_minim_iter=7 energy=-1956.010649381928 stress="0.012477406879912117 2.4915702608355958e-08 -1.3048849311539528e-07 2.4915702608355958e-08 0.012146044138146404 5.427878841426414e-07 -1.3048849311539528e-07 5.427878841426414e-07 0.012294155365247292" free_energy=-1956.010649381928 pbc="T T T"
Si       0.46132569       0.46119181       0.00000181      -0.00522358      -0.00226333      -0.00074465
Si      -0.46132797      -0.46119051       3.48236217       0.00519325       0.00252424      -0.00079287
Si       2.41641138       3.33822841       5.22354399       0.00517621      -0.00252839       0.00081835
Si       3.33906351       2.41583068       1.74118166      -0.00518256       0.00249137       0.00073912
Si       0.72494012       3.82852806      -0.09400123       0.00234889      -0.00359820      -0.00148291
Si       0.95172157       2.15226024       1.64718062      -0.00110558      -0.00183754       0.00072084
Si       1.92601332       5.02928752       3.57637255       0.00109711      -0.00186027      -0.00083239
Si       2.15279595       0.95150897       5.31754799      -0.00225535      -0.00333165       0.00153536
Si       3.60267978       4.80255073       1.83519188       0.00226469       0.00327090       0.00155168
Si       3.82946393       0.72476365       0.09400281      -0.00111882       0.00198101      -0.00082810
Si       4.80375342       3.60179747       5.12954020       0.00108391       0.00185044       0.00081005
Si       5.03053706       1.92552808       3.38835421      -0.00227816       0.00330142      -0.00149448
