12
Lattice="5.423787827242352 -6.973659697344757e-05 5.553733966194471e-05 -6.964847881243333e-05 5.423851690935965 0.0001825362544288882 6.648244965365134e-05 0.00022611025817283553 6.347139090299927" Properties=species:S:1:pos:R:3:forces:R:3 cutoff=-1.0 nneightol=1.2 n_minim_iter=12 energy=-1955.035071348407 stress="-0.08099246445360701 7.887783009461554e-06 -4.726909757136637e-06 7.887783009461554e-06 -0.08095891483313035 -1.2223647881973452e-06 -4.726909757136637e-06 -1.2223647881973452e-06 -0.08097162055629918" free_energy=-1955.035071348407 pbc="T T T"
Si       0.47141809       0.47160164       0.00005800       0.00560778       0.00010962      -0.00122818
Si      -0.47144579      -0.47138798       3.17354626      -0.00187623      -0.00185152      -0.00031547
Si       2.24037846       3.18358909       4.76048865      -0.00168215       0.00116923       0.00028354
Si       3.18339789       2.24043436       1.58689848       0.00156496      -0.00069887       0.00116673
Si       0.70154831       3.63614431       0.03917223      -0.00472963       0.00556486      -0.00077938
Si       0.92429735       2.01038824       1.62581931       0.00177174       0.00392775       0.00154320
Si       1.78756949       4.72236677       3.13473788      -0.00109835       0.00522071      -0.00017512
Si       2.01031701       0.92448010       4.72136190       0.00435214      -0.00014809       0.00107007
Si       3.41346179       4.49952753       1.54794471      -0.00446106       0.00046734      -0.00113314
Si       3.63625136       0.70152034      -0.03892389      -0.00211234      -0.00709149      -0.00077638
Si       4.49947504       3.41363294       4.79952525      -0.00185325      -0.00624366      -0.00044315
Si       4.72222107       1.78762996       3.21268750       0.00451640      -0.00042588       0.00078730
