12
Lattice="5.578071656022126 1.6020004453516518e-06 -1.276430972282119e-06 1.6019879313715758e-06 5.579006290104985 5.8242215825421125e-08 -1.4876655317389424e-06 5.260563342412091e-08 6.70582556585839" Properties=species:S:1:pos:R:3:forces:R:3 cutoff=-1.0 nneightol=1.2 n_minim_iter=8 energy=-1956.010077434162 stress="-0.012826438057151078 6.129959402722603e-08 -8.645199891092943e-08 6.129959402722603e-08 -0.012569580695298063 2.4204999520913583e-08 -8.645199891092943e-08 2.4204999520913583e-08 -0.012836451320918827" free_energy=-1956.010077434162 pbc="T T T"
Si       0.45819432       0.45827597      -0.00000158      -0.00376585      -0.00591690       0.00063302
Si      -0.45819605      -0.45827733       3.35291090       0.00381083       0.00593622       0.00064309
Si       2.33084092       3.24778096       5.02937129       0.00381322      -0.00593317      -0.00064720
Si       3.24723039       2.33122731       1.67645770      -0.00380929       0.00593237      -0.00064506
Si       0.70311077       3.71861456      -0.05712630      -0.00559551       0.00725126       0.00039869
Si       0.92895877       2.08627694       1.61933692       0.00567535       0.00534847      -0.00169017
Si       1.86007725       4.87578007       3.41003174      -0.00567752       0.00535384       0.00168234
Si       2.08592750       0.92911190       5.08649479       0.00557808       0.00725247      -0.00038719
Si       3.49214574       4.64989644       1.73358149      -0.00560146      -0.00725914      -0.00039717
Si       3.71799467       0.70322822       0.05711802       0.00565519      -0.00535294       0.00169072
Si       4.64911239       3.49273139       4.97224839      -0.00567297      -0.00535614      -0.00167960
Si       4.87496291       1.86039326       3.29578561       0.00558995      -0.00725633       0.00039854
