12
Lattice="5.31932181048254 9.281565487040233e-05 2.9492398423704515e-05 9.291038258533883e-05 5.319310314283966 5.573650778742251e-06 1.2129878822884746e-05 -5.007075556873876e-07 5.822630870243122" Properties=species:S:1:pos:R:3:forces:R:3 cutoff=-1.0 nneightol=1.2 n_minim_iter=14 energy=-1952.062980131685 stress="-0.19354242448637698 4.460197865767008e-07 -2.595026938195418e-06 4.460197865767008e-07 -0.19354791168735452 1.3865435347419938e-06 -2.595026938195418e-06 1.3865435347419938e-06 -0.19354134186572058" free_energy=-1952.062980131685 pbc="T T T"
Si       0.49678527       0.49699557       0.00005047       0.00168602      -0.00526737      -0.00144938
Si      -0.49681985      -0.49679670       2.91134596       0.00043550      -0.00073519      -0.00086422
Si       2.16287141       3.15647132       4.36697727       0.00131396       0.00127566       0.00011400
Si       3.15651557       2.16302136       1.45566675      -0.00001888      -0.00400468      -0.00005602
Si       0.68316077       3.61931955       0.14571366      -0.00055386       0.00602738      -0.00135610
Si       0.95983955       1.97658247       1.60124903       0.00125000      -0.00020415       0.00278059
Si       1.69999214       4.63617452       2.76558184      -0.00326191       0.00198042       0.00289955
Si       1.97662890       0.95994120       4.22134781      -0.00133783      -0.00220487      -0.00114693
Si       3.34272934       4.35939744       1.31007285       0.00282054       0.00399599      -0.00215280
Si       3.61954393       0.68318574      -0.14573078      -0.00053582      -0.00089558       0.00307735
Si       4.35961002       3.34285117       4.51270652      -0.00186780      -0.00060145      -0.00096287
Si       4.63627112       1.69986975       3.05703289       0.00007008       0.00063384      -0.00088317
