8
Lattice="6.02370363356141 9.06260126958422e-17 -6.814179480515483e-48 -3.011851816780705 5.216680371532811 3.7394422335553317e-47 5.2332658766628827e-48 -3.0140168857798295e-47 4.626183206178539" Properties=species:S:1:pos:R:3:tags:I:1 spacegroup="P 1" unit_cell=conventional n_minim_iter=1 energy=-9783.63884188794 free_energy=-9783.63884188794 pbc="T T T"
Ti       3.01185182       3.55422235       1.15654580        0
Ti      -1.57211641       4.38545397       3.46963740        1
Ti       1.57211642       4.38545397       3.46963740        2
Ti       1.43973541       0.83123684       1.15654580        3
Ti       4.58396824       0.83123684       1.15654580        4
Ti       0.00000001       1.66246847       3.46963740        5
Al       0.00000001       3.47779214       1.15654580        6
Al       3.01185182       1.73889868       3.46963740        7
8
Lattice="6.037082972170919 1.0584273404546027e-16 -6.835659932342026e-48 -3.0185414860854594 5.228267218654479 3.7464788897740774e-47 5.2052370278264957e-48 -3.0020749917255655e-47 4.605700901744875" Properties=species:S:1:pos:R:3:tags:I:1 spacegroup="P 1" unit_cell=conventional n_minim_iter=2 stress="0.03965294239511739 2.620540090263343e-16 -1.1393958513652548e-16 2.620540090263343e-16 0.03965294239511768 -1.4853799226943823e-16 -1.1393958513652548e-16 -1.4853799226943823e-16 0.040246580341805484" pbc="T T T"
Ti       3.01854149       3.56262060       1.15142522        0
Ti      -1.57604466       4.39544653       3.45427567        1
Ti       1.57604467       4.39544653       3.45427567        2
Ti       1.44249682       0.83283116       1.15142522        3
Ti       4.59458616       0.83283116       1.15142522        4
Ti       0.00000001       1.66565709       3.45427567        5
Al       0.00000001       3.48551671       1.15142522        6
Al       3.01854149       1.74276097       3.45427567        7
8
Lattice="6.042322739104396 1.4011594948527986e-16 -7.239042175639895e-48 -3.021161369552198 5.23280498992878 4.104090530465441e-47 5.193497014343716e-48 -2.770338708341961e-47 4.597716443906224" Properties=species:S:1:pos:R:3:tags:I:1 spacegroup="P 1" unit_cell=conventional n_minim_iter=3 stress="0.040071731866843416 -1.7643347978834197e-16 -1.8804850232027215e-17 -1.7643347978834197e-16 0.04007173186684263 -6.255781191109512e-17 -1.8804850232027215e-17 -6.255781191109512e-17 0.037983486385199286" pbc="T T T"
Ti       3.02116137       3.56878646       1.14942911        0
Ti      -1.58007451       4.40079834       3.44828733        1
Ti       1.58007452       4.40079834       3.44828733        2
Ti       1.44108686       0.83201712       1.14942911        3
Ti       4.60123589       0.83201712       1.14942911        4
Ti       0.00000001       1.66402901       3.44828733        5
Al       0.00000001       3.48854190       1.14942911        6
Al       3.02116137       1.74427357       3.44828733        7
8
Lattice="6.037289555271116 1.2949784865289756e-16 -7.318710775544177e-48 -3.018644777635558 5.228446124867241 4.3381132405642147e-47 4.314015493027817e-48 -2.58203149505379e-47 4.605385712723815" Properties=species:S:1:pos:R:3:tags:I:1 spacegroup="P 1" unit_cell=conventional n_minim_iter=4 stress="0.0389414853532321 7.646177655375309e-16 -2.0138436319346224e-16 7.646177655375309e-16 0.03894148535323249 -2.774042235028629e-16 -2.0138436319346224e-16 -2.774042235028629e-16 0.03894654523998506" pbc="T T T"
Ti       3.01864478       3.56901123       1.15134643        0
Ti      -1.58152747       4.39873129       3.45403928        1
Ti       1.58152748       4.39873129       3.45403928        2
Ti       1.43711731       0.82972530       1.15134643        3
Ti       4.60017225       0.82972530       1.15134643        4
Ti       0.00000001       1.65944536       3.45403928        5
Al       0.00000001       3.48563598       1.15134643        6
Al       3.01864478       1.74282061       3.45403928        7
