8
Lattice="5.958359769200153 4.57520529032819e-17 -6.655781137530427e-48 -2.9791798846000765 5.160090925014517 4.873468778427777e-47 5.1642712825745246e-48 -4.068180872655063e-47 4.623136730536318" Properties=species:S:1:pos:R:3:tags:I:1 spacegroup="P 1" unit_cell=conventional n_minim_iter=1 energy=-9783.739435536461 free_energy=-9783.739435536461 pbc="T T T"
Ti       2.97917989       3.50935115       1.15578418        0
Ti      -1.54959283       4.33472362       3.46735255        1
Ti       1.54959284       4.33472362       3.46735255        2
Ti       1.42958706       0.82537763       1.15578418        3
Ti       4.52877272       0.82537763       1.15578418        4
Ti       0.00000001       1.65075010       3.46735255        5
Al       0.00000001       3.44006578       1.15578418        6
Al       2.97917989       1.72003547       3.46735255        7
8
Lattice="5.979557233705679 9.079779742558821e-17 -7.130566404604856e-48 -2.9897786168528393 5.178448467772123 4.896866255058883e-47 5.0589601675765474e-48 -4.046837493481716e-47 4.590416891713985" Properties=species:S:1:pos:R:3:tags:I:1 spacegroup="P 1" unit_cell=conventional n_minim_iter=2 stress="0.026942702866580338 -5.805256078175826e-17 -1.2043870058478917e-16 -5.805256078175826e-17 0.026942702866581236 8.976350983007107e-17 -1.2043870058478917e-16 8.976350983007107e-17 0.026810810370553908" pbc="T T T"
Ti       2.98977862       3.52222095       1.14760422        0
Ti      -1.55543902       4.35033730       3.44281267        1
Ti       1.55543903       4.35033730       3.44281267        2
Ti       1.43433960       0.82812153       1.14760422        3
Ti       4.54521765       0.82812153       1.14760422        4
Ti       0.00000001       1.65623788       3.44281267        5
Al       0.00000001       3.45230416       1.14760422        6
Al       2.98977862       1.72615467       3.44281267        7
8
Lattice="5.979041565755515 8.871531113577619e-17 -6.468203624040555e-48 -2.9895207828777575 5.178001886227363 3.790709611499942e-47 4.7708963100582475e-48 -4.383058354327136e-47 4.5912087353299205" Properties=species:S:1:pos:R:3:tags:I:1 spacegroup="P 1" unit_cell=conventional n_minim_iter=3 stress="0.026431154105456076 -4.2558181980159253e-17 -6.145825967359115e-18 -4.2558181980159253e-17 0.026431154105456375 -3.756472097415476e-17 -6.145825967359115e-18 -3.756472097415476e-17 0.02634525325554276" pbc="T T T"
Ti       2.98952079       3.52624620       1.14780218        0
Ti      -1.55905390       4.35212663       3.44340655        1
Ti       1.55905392       4.35212663       3.44340655        2
Ti       1.43046688       0.82588562       1.14780218        3
Ti       4.54857470       0.82588562       1.14780218        4
Ti       0.00000001       1.65176605       3.44340655        5
Al       0.00000001       3.45200644       1.14780218        6
Al       2.98952079       1.72600581       3.44340655        7
8
Lattice="5.978748945996241 8.994967396242248e-17 -6.763325499610311e-48 -2.9893744729981204 5.177748470082182 3.7115349081781547e-47 4.542163300982671e-48 -4.467297833044605e-47 4.591658164226892" Properties=species:S:1:pos:R:3:tags:I:1 spacegroup="P 1" unit_cell=conventional n_minim_iter=4 stress="0.026230975827580792 9.259960255154543e-17 -8.209584235276791e-17 9.259960255154543e-17 0.026230975827580993 7.54617355955502e-17 -8.209584235276791e-17 7.54617355955502e-17 0.026234841124312125" pbc="T T T"
Ti       2.98937448       3.52769731       1.14791454        0
Ti      -1.56038376       4.35272548       3.44374362        1
Ti       1.56038377       4.35272548       3.44374362        2
Ti       1.42899071       0.82503335       1.14791454        3
Ti       4.54975824       0.82503335       1.14791454        4
Ti       0.00000001       1.65006152       3.44374362        5
Al       0.00000001       3.45183750       1.14791454        6
Al       2.98937448       1.72592134       3.44374362        7
