8
Lattice="5.958359769200155 4.57520529032819e-17 -6.655781137530429e-48 -2.9791798846000774 5.160090925014518 4.873468778427778e-47 1.1691515897752984e-48 -3.4198670532031897e-47 4.623136730536319" Properties=species:S:1:pos:R:3:tags:I:1 spacegroup="P 1" unit_cell=conventional n_minim_iter=4 stress="0.016341371058215585 -1.6342769801717124e-16 -1.958564574209133e-16 -1.6342769801717124e-16 0.01634137105821436 3.891593117188416e-16 -1.958564574209133e-16 3.891593117188416e-16 0.016348579462871198" pbc="T T T"
Ti       2.97917989       3.50935115       1.15578418        0
Ti      -1.54959283       4.33472362       3.46735255        1
Ti       1.54959284       4.33472362       3.46735255        2
Ti       1.42958706       0.82537763       1.15578418        3
Ti       4.52877272       0.82537763       1.15578418        4
Ti       0.00000001       1.65075010       3.46735255        5
Al       0.00000001       3.44006578       1.15578418        6
Al       2.97917989       1.72003547       3.46735255        7
