8
Lattice="5.648792665840619 5.847349165353986e-17 -3.3414706332221057e-48 -2.8243963329203097 4.891997949329197 2.2625878493394373e-47 2.6969497742255328e-48 -1.9529683753249782e-47 4.559223101744097" Properties=species:S:1:pos:R:3:tags:I:1 spacegroup="P 1" unit_cell=conventional n_minim_iter=1 stress="-3.3622169606021926e-05 1.9740967419311283e-16 -1.1476179544226084e-17 1.9740967419311283e-16 -3.3622169607011694e-05 1.7240846102327867e-16 -1.1476179544226084e-17 1.7240846102327867e-16 -0.00027757106176061187" pbc="T T T"
Ti       2.82439634       3.30569603       1.13980577        0
Ti      -1.45061432       4.09884944       3.41941732        1
Ti       1.45061433       4.09884944       3.41941732        2
Ti       1.37378201       0.79315831       1.13980577        3
Ti       4.27501067       0.79315831       1.13980577        4
Ti       0.00000000       1.58631172       3.41941732        5
Al       0.00000000       3.26133686       1.13980577        6
Al       2.82439634       1.63067088       3.41941732        7
