8
Lattice="6.170267850660839 1.3897741813450246e-16 -3.454028066602793e-47 -3.0851339253304193 5.343608706826693 2.1855918532043498e-47 8.300881529521173e-48 -7.093699229444743e-47 4.800931976265506" Properties=species:S:1:pos:R:3:tags:I:1 spacegroup="P 1" unit_cell=conventional n_minim_iter=4 stress="0.07845492908761958 -1.5196598433815208e-16 -1.520826446019596e-16 -1.5196598433815208e-16 0.07845492908762039 -2.432975516253532e-17 -1.520826446019596e-16 -2.432975516253532e-17 0.078444300472684" pbc="T T T"
Ti       3.08513393       3.68821100       1.20023299        0
Ti      -1.65151282       4.51591253       3.60069898        1
Ti       1.65151283       4.51591253       3.60069898        2
Ti       1.43362110       0.82770687       1.20023299        3
Ti       4.73664676       0.82770687       1.20023299        4
Ti       0.00000001       1.65540840       3.60069898        5
Al       0.00000001       3.56241115       1.20023299        6
Al       3.08513393       1.78120825       3.60069898        7
