8
Lattice="5.203754378520245 2.809792779533549e-17 -2.1883317331147756e-47 -2.6018771892601227 4.506583486853034 7.372709909442518e-47 2.100105461678708e-47 -4.798247800080727e-47 4.2703711454839635" Properties=species:S:1:pos:R:3:tags:I:1 spacegroup="P 1" unit_cell=conventional n_minim_iter=4 stress="-0.3566027555766592 -3.2666096550450997e-16 -2.0705519962041474e-15 -3.2666096550450997e-16 -0.3566027555766453 1.595809802289045e-15 -2.0705519962041474e-15 1.595809802289045e-15 -0.3566365100054159" pbc="T T T"
Ti       2.60187719       2.98813580       1.06759278        0
Ti      -1.28685901       3.74736190       3.20277836        1
Ti       1.28685901       3.74736190       3.20277836        2
Ti       1.31501818       0.75923061       1.06759278        3
Ti       3.88873620       0.75923061       1.06759278        4
Ti       0.00000000       1.51845671       3.20277836        5
Al       0.00000000       3.00439350       1.06759278        6
Al       2.60187719       1.50219901       3.20277836        7
