8
Lattice="6.122187121331376 1.2853195387474534e-16 -5.402315377958526e-48 -3.061093560665688 5.301969573794896 5.822506922945052e-47 5.552781439956127e-48 -3.2121346054269966e-47 4.677590144846392" Properties=species:S:1:pos:R:3:tags:I:1 spacegroup="P 1" unit_cell=conventional n_minim_iter=3 stress="0.050042362164082484 3.1359873553394804e-16 2.296338455702586e-17 3.1359873553394804e-16 0.050042362164083344 7.967553490572454e-18 2.296338455702586e-17 7.967553490572454e-18 0.05038452050490154" pbc="T T T"
Ti       3.06109357       3.62747223       1.16939753        0
Ti      -1.61093172       4.46472356       3.50819261        1
Ti       1.61093173       4.46472356       3.50819261        2
Ti       1.45016184       0.83725663       1.16939753        3
Ti       4.67202529       0.83725663       1.16939753        4
Ti       0.00000001       1.67450796       3.50819261        5
Al       0.00000001       3.53465169       1.16939753        6
Al       3.06109357       1.76732850       3.50819261        7
