8
Lattice="5.089315239153823 6.426365144896844e-17 -4.648193933809912e-47 -2.5446576195769115 4.407476284974486 1.0025631953607549e-47 4.370558464777331e-47 -2.7771964153990964e-47 4.320560158004753" Properties=species:S:1:pos:R:3:tags:I:1 spacegroup="P 1" unit_cell=conventional n_minim_iter=5 stress="-0.4278074317248361 5.085466467587421e-16 -1.9122833764102227e-15 5.085466467587421e-16 -0.42780743172483565 2.404699608577049e-16 -1.9122833764102227e-15 2.404699608577049e-16 -0.42853800038959694" pbc="T T T"
Ti       2.54465762       2.89379949       1.08014004        0
Ti      -1.23377123       3.65064009       3.24042012        1
Ti       1.23377124       3.65064009       3.24042012        2
Ti       1.31088639       0.75684502       1.08014004        3
Ti       3.77842886       0.75684502       1.08014004        4
Ti       0.00000000       1.51368562       3.24042012        5
Al       0.00000000       2.93832193       1.08014004        6
Al       2.54465762       1.46916317       3.24042012        7
