8
Lattice="5.403680561878545 1.8647370467671652e-17 -1.3677624466722682e-47 -2.7018402809392725 4.67972464052299 7.530210540123325e-47 1.8128736317265482e-47 -6.799321252288612e-47 4.471221814316349" Properties=species:S:1:pos:R:3:tags:I:1 spacegroup="P 1" unit_cell=conventional n_minim_iter=3 stress="-0.08731140083175598 -1.2016570056290093e-15 2.0139067864204918e-15 -1.2016570056290093e-15 -0.08731140083175302 -5.5404508733558265e-17 2.0139067864204918e-15 -5.5404508733558265e-17 -0.08729525014897115" pbc="T T T"
Ti       2.70184029       3.11672254       1.11780545        0
Ti      -1.34823669       3.89822593       3.35341636        1
Ti       1.34823670       3.89822593       3.35341636        2
Ti       1.35360359       0.78150808       1.11780545        3
Ti       4.05007699       0.78150808       1.11780545        4
Ti       0.00000000       1.56301147       3.35341636        5
Al       0.00000000       3.11982111       1.11780545        6
Al       2.70184029       1.55991290       3.35341636        7
