8
Lattice="5.625775175006898 -6.826423373599243e-18 -1.9483596060685469e-47 -2.812887587503449 4.872064217535818 4.1352447694135303e-47 1.41006924004709e-47 -4.444408711867458e-47 4.596606948090513" Properties=species:S:1:pos:R:3:tags:I:1 spacegroup="P 1" unit_cell=conventional n_minim_iter=4 stress="-0.006063292201520382 4.266006556343548e-16 -7.948622961701072e-17 4.266006556343548e-16 -0.006063292201520607 -3.890676142368946e-16 -7.948622961701072e-17 -3.890676142368946e-16 -0.006071964173302335" pbc="T T T"
Ti       2.81288759       3.28126201       1.14915173        0
Ti      -1.43520824       4.07666555       3.44745521        1
Ti       1.43520825       4.07666555       3.44745521        2
Ti       1.37767935       0.79540842       1.14915173        3
Ti       4.24809584       0.79540842       1.14915173        4
Ti       0.00000000       1.59081196       3.44745521        5
Al       0.00000000       3.24804769       1.14915173        6
Al       2.81288759       1.62402628       3.44745521        7
