8
Lattice="5.577274699728686 -6.767571967744857e-18 -1.9315625667330605e-47 -2.788637349864343 4.830061573849267 4.099594333612379e-47 1.397912865824868e-47 -4.406092937036316e-47 4.556979054206672" Properties=species:S:1:pos:R:3:tags:I:1 spacegroup="P 1" unit_cell=conventional n_minim_iter=4 stress="-0.006063292201520382 4.266006556343548e-16 -7.948622961701072e-17 4.266006556343548e-16 -0.006063292201520607 -3.890676142368946e-16 -7.948622961701072e-17 -3.890676142368946e-16 -0.006071964173302335" pbc="T T T"
Ti       2.78863735       3.25297387       1.13924476        0
Ti      -1.42283514       4.04152014       3.41773429        1
Ti       1.42283515       4.04152014       3.41773429        2
Ti       1.36580221       0.78855111       1.13924476        3
Ti       4.21147250       0.78855111       1.13924476        4
Ti       0.00000000       1.57709738       3.41773429        5
Al       0.00000000       3.22004588       1.13924476        6
Al       2.78863735       1.61002536       3.41773429        7
