8
Lattice="5.44882235469115 1.894857461376943e-17 -1.9569609527319783e-47 -2.724411177345575 4.718818579871077 6.395842220319931e-47 9.436015297916788e-48 -4.873861231046586e-47 4.523084584986423" Properties=species:S:1:pos:R:3:tags:I:1 spacegroup="P 1" unit_cell=conventional n_minim_iter=3 stress="-0.03195383870167991 2.337803872722455e-15 -2.14524281700077e-16 2.337803872722455e-15 -0.031953838701678006 -4.996615448780333e-18 -2.14524281700077e-16 -4.996615448780333e-18 -0.030776572756447837" pbc="T T T"
Ti       2.72441118       3.15694985       1.13077114        0
Ti      -1.37178909       3.93788658       3.39231344        1
Ti       1.37178910       3.93788658       3.39231344        2
Ti       1.35262209       0.78094145       1.13077114        3
Ti       4.09620027       0.78094145       1.13077114        4
Ti       0.00000000       1.56187817       3.39231344        5
Al       0.00000000       3.14588378       1.13077114        6
Al       2.72441118       1.57294425       3.39231344        7
