8
Lattice="6.144119962662094 8.793361967961675e-17 -1.34051023343312e-47 -3.072059981331047 5.320963971564469 5.82629705593406e-47 1.4375255023785652e-47 -4.124214859752207e-47 4.743068216870489" Properties=species:S:1:pos:R:3:tags:I:1 spacegroup="P 1" unit_cell=conventional n_minim_iter=4 stress="0.07036167860355458 3.1430523624413385e-17 -7.295454651222281e-17 3.1430523624413385e-17 0.0703616786035554 -9.449401117563333e-17 -7.295454651222281e-17 -9.449401117563333e-17 0.0703555323229406" pbc="T T T"
Ti       3.07205999       3.66142030       1.18576705        0
Ti      -1.63484838       4.49119480       3.55730116        1
Ti       1.63484839       4.49119480       3.55730116        2
Ti       1.43721160       0.82977983       1.18576705        3
Ti       4.70690838       0.82977983       1.18576705        4
Ti       0.00000001       1.65955432       3.55730116        5
Al       0.00000001       3.54731464       1.18576705        6
Al       3.07205999       1.77365998       3.55730116        7
