8
Lattice="5.3517188765232335 1.846805772224759e-17 -1.3546100700502703e-47 -2.6758594382616168 4.634724500981837 7.457800184576862e-47 1.7954410747569025e-47 -6.733939113671173e-47 4.428226633826157" Properties=species:S:1:pos:R:3:tags:I:1 spacegroup="P 1" unit_cell=conventional n_minim_iter=3 stress="-0.08731140083175598 -1.2016570056290093e-15 2.0139067864204918e-15 -1.2016570056290093e-15 -0.08731140083175302 -5.5404508733558265e-17 2.0139067864204918e-15 -5.5404508733558265e-17 -0.08729525014897115" pbc="T T T"
Ti       2.67585944       3.08675220       1.10705666        0
Ti      -1.33527208       3.86074067       3.32116997        1
Ti       1.33527209       3.86074067       3.32116997        2
Ti       1.34058736       0.77399311       1.10705666        3
Ti       4.01113153       0.77399311       1.10705666        4
Ti       0.00000000       1.54798158       3.32116997        5
Al       0.00000000       3.08982097       1.10705666        6
Al       2.67585944       1.54491281       3.32116997        7
