8
Lattice="5.978748945996241 8.994967396242248e-17 -6.763325499610311e-48 -2.9893744729981204 5.177748470082182 3.7115349081781547e-47 4.542163300982671e-48 -4.467297833044605e-47 4.591658164226892" Properties=species:S:1:pos:R:3:tags:I:1 spacegroup="P 1" unit_cell=conventional n_minim_iter=4 stress="0.026230975827580792 9.259960255154543e-17 -8.209584235276791e-17 9.259960255154543e-17 0.026230975827580993 7.54617355955502e-17 -8.209584235276791e-17 7.54617355955502e-17 0.026234841124312125" pbc="T T T"
Ti       2.98937448       3.52769731       1.14791454        0
Ti      -1.56038376       4.35272548       3.44374362        1
Ti       1.56038377       4.35272548       3.44374362        2
Ti       1.42899071       0.82503335       1.14791454        3
Ti       4.54975824       0.82503335       1.14791454        4
Ti       0.00000001       1.65006152       3.44374362        5
Al       0.00000001       3.45183750       1.14791454        6
Al       2.98937448       1.72592134       3.44374362        7
