8
Lattice="5.358905265810311 1.1608070558005447e-17 -2.676063799764001e-47 -2.6794526329051553 4.640948096665931 3.983840651103711e-47 9.118673527892276e-48 -8.235039647631702e-47 4.416357932559492" Properties=species:S:1:pos:R:3:tags:I:1 spacegroup="P 1" unit_cell=conventional n_minim_iter=3 stress="-0.1291443042037102 1.300918844551069e-15 2.8266066087816876e-16 1.300918844551069e-15 -0.1291443042037133 8.241255524297774e-16 2.8266066087816876e-16 8.241255524297774e-16 -0.12914686246414048" pbc="T T T"
Ti       2.67945264       3.08657783       1.10408948        0
Ti      -1.33332447       3.86376529       3.31226845        1
Ti       1.33332448       3.86376529       3.31226845        2
Ti       1.34612816       0.77719210       1.10408948        3
Ti       4.01277711       0.77719210       1.10408948        4
Ti       0.00000000       1.55437956       3.31226845        5
Al       0.00000000       3.09397004       1.10408948        6
Al       2.67945264       1.54698734       3.31226845        7
