12
Lattice="5.549751513754866 0.0003810902932521365 3.0900073732152086e-06 0.00038115927368143033 5.549284165693206 0.0007919352959841752 4.1356098532878005e-06 0.0009469279522033994 6.597825539641048" Properties=species:S:1:pos:R:3:forces:R:3 cutoff=-1.0 nneightol=1.2 n_minim_iter=8 energy=-1955.708345952956 stress="-0.04322141599811492 4.549925494882975e-05 -1.1398033861686809e-07 4.549925494882975e-05 -0.04335837592027924 0.00018155824878219063 -1.1398033861686809e-07 0.00018155824878219063 -0.043311025077510105" free_energy=-1955.708345952956 pbc="T T T"
Si       0.46794583       0.46797759       0.00001836       0.00228781       0.00210419       0.00209813
Si      -0.46792543      -0.46736567       3.29881615      -0.00218815      -0.00290131      -0.00146209
Si       2.30724773       3.24332902       4.94881469      -0.00169295       0.00112154       0.00249269
Si       3.24292917       2.30727821       1.64980761       0.00099927      -0.00387288      -0.00168458
Si       0.70634370       3.70794767      -0.01323136      -0.00299078       0.00521473      -0.00358222
Si       0.93361773       2.06891000       1.63591195       0.00213199      -0.00012248       0.00245231
Si       1.84171530       4.84381832       3.31341659      -0.00200252       0.00603922      -0.00188396
Si       2.06871383       0.93421330       4.96229229       0.00515854       0.00106804      -0.00209885
Si       3.48133021       4.61637477       1.66390978      -0.00319365      -0.00220703       0.00255727
Si       3.70849788       0.70633066       0.01394491      -0.00006784      -0.00085040      -0.00194275
Si       4.61654463       3.48171849       4.93510695      -0.00271801      -0.00546866       0.00088564
Si       4.84372139       1.84205509       3.28538214       0.00427629      -0.00012495       0.00216841
