12
Lattice="5.93056720596204 -0.00039766830796505174 9.996712338325084e-06 -0.0003975598442038855 5.931101967521982 1.771532127340299e-05 1.2924461721497656e-05 2.400659193812147e-05 7.337968333323896" Properties=species:S:1:pos:R:3:forces:R:3 cutoff=-1.0 nneightol=1.2 n_minim_iter=9 energy=-1954.586523411907 stress="0.06853608997580415 -3.0301315400600217e-06 -2.7538059430776092e-06 -3.0301315400600217e-06 0.06861453371379764 -1.0779668893674156e-07 -2.7538059430776092e-06 -1.0779668893674156e-07 0.06849763392420428" free_energy=-1954.586523411907 pbc="T T T"
Si       0.44373780       0.44374431       0.00011292      -0.00316363      -0.00412366      -0.00103147
Si      -0.44371710      -0.44369077       3.66902097       0.00322448       0.00332763      -0.00021270
Si       2.52132418       3.40912149       5.50351028       0.00295379      -0.00313661      -0.00063072
Si       3.40885734       2.52168554       1.83459491      -0.00304451       0.00216334      -0.00147844
Si       0.76836969       3.92435968      -0.19270582       0.00320014      -0.00185351       0.00365463
Si       0.95868053       2.19669475       1.64179144      -0.00158174      -0.00149483       0.00325027
Si       2.00601018       5.16221496       3.86168298       0.00345019      -0.00240358      -0.00276130
Si       2.19668763       0.95877088       5.69609081      -0.00379666      -0.00203796      -0.00236606
Si       3.73347010       4.97200421       2.02708040       0.00388946       0.00177348      -0.00198168
Si       3.92423299       0.76845587       0.19266101      -0.00412081       0.00349646      -0.00220889
Si       4.97146857       3.73392924       5.31084708       0.00204566       0.00258097       0.00240052
Si       5.16178447       2.00633937       3.47630908      -0.00305638       0.00170825       0.00336585
