4
Lattice="6.206534566762351 1.4073211634200344 1.8964259189045754e-12 3.9349488681551614 5.001779842259181 3.3164011674001506e-12 -5.070741717459158 -3.204550502840702 2.126042966402281" Properties=species:S:1:pos:R:3:tags:I:1 spacegroup="P 1" unit_cell=conventional n_minim_iter=1 energy=-2004.0104134915289 free_energy=-2004.0104134915289 pbc="T T T"
Ti       0.00000000       0.00000000       0.00000000        0
Al       5.07074172       3.20455050       0.00000000        1
Al       3.10326728       0.70366058       1.06302148        2
Al       1.96747443       2.50088992       1.06302148        3
4
Lattice="6.242860394509886 1.4403540930635168 1.9197251361800285e-12 3.9803755626563695 5.020411955104181 3.3344597575440602e-12 -5.11161797858353 -3.2303830240849396 2.1175252011417647" Properties=species:S:1:pos:R:3:tags:I:1 spacegroup="P 1" unit_cell=conventional n_minim_iter=2 stress="20.727736152174423 -0.08797620490658956 -5.958843012713445e-14 -0.08797620490658956 20.811347667145913 -6.645965353903078e-14 -5.958843012713445e-14 -6.645965353903078e-14 20.866945882827117" pbc="T T T"
Ti       0.00000000       0.00000000       0.00000000        0
Al       5.11161798       3.23038302       0.00000000        1
Al       3.12143020       0.72017705       1.05876260        2
Al       1.99018778       2.51020598       1.05876260        3
4
Lattice="6.244168389720847 1.4415409840898734 1.9206389470569705e-12 3.982008965212194 5.0210839356626575 3.3351522946385526e-12 -5.113088677466925 -3.2313124598773557 2.117220642965867" Properties=species:S:1:pos:R:3:tags:I:1 spacegroup="P 1" unit_cell=conventional n_minim_iter=3 stress="20.729977272220047 0.0009970834299586435 -1.0949267676646923e-13 0.0009970834299586435 20.72902965625704 1.9005602022101415e-13 -1.0949267676646923e-13 1.9005602022101415e-13 20.728399530649142" pbc="T T T"
Ti       0.00000000       0.00000000       0.00000000        0
Al       5.11308868       3.23131246       0.00000000        1
Al       3.12208419       0.72077049       1.05861032        2
Al       1.99100448       2.51054197       1.05861032        3
