4
Lattice="6.037398740416411 1.3139884184831676 1.821172364288577e-12 3.778056787323666 4.889073125495993 3.2344862746364014e-12 -4.90772776387044 -3.10153077199067 2.1145836897176213" Properties=species:S:1:pos:R:3:tags:I:1 spacegroup="P 1" unit_cell=conventional n_minim_iter=1 energy=-2060.2174936415345 free_energy=-2060.2174936415345 pbc="T T T"
Ti       0.00000000       0.00000000       0.00000000        0
Al       4.90772776       3.10153077       0.00000000        1
Al       3.01869937       0.65699421       1.05729184        2
Al       1.88902839       2.44453656       1.05729184        3
4
Lattice="6.076226546930246 1.3496246173743254 1.8466653572487348e-12 3.8269086282070135 4.908847727196003 3.254115079748883e-12 -4.951567587569027 -3.129236172286249 2.105201905099317" Properties=species:S:1:pos:R:3:tags:I:1 spacegroup="P 1" unit_cell=conventional n_minim_iter=2 stress="28.423819145167535 -0.11667701932747243 -8.197726824243361e-15 -0.11667701932747243 28.534707565038495 -2.4170023248206205e-13 -8.197726824243361e-15 -2.4170023248206205e-13 28.608443799654648" pbc="T T T"
Ti       0.00000000       0.00000000       0.00000000        0
Al       4.95156759       3.12923617       0.00000000        1
Al       3.03811327       0.67481231       1.05260095        2
Al       1.91345431       2.45442386       1.05260095        3
4
Lattice="6.0775111084273465 1.3508007464585916 1.8474431759362354e-12 3.828522252729987 4.909503161221325 3.254718376046748e-12 -4.953016680579067 -3.130151953841043 2.1048939254654915" Properties=species:S:1:pos:R:3:tags:I:1 spacegroup="P 1" unit_cell=conventional n_minim_iter=3 stress="28.41602975909132 -0.0009062800750581496 -5.0898748076141e-14 -0.0009062800750581496 28.416891076650376 5.844908031780311e-14 -5.0898748076141e-14 5.844908031780311e-14 28.417463817372216" pbc="T T T"
Ti       0.00000000       0.00000000       0.00000000        0
Al       4.95301668       3.13015195       0.00000000        1
Al       3.03875555       0.67540037       1.05244696        2
Al       1.91426113       2.45475158       1.05244696        3
