4
Lattice="6.244168389720847 1.4415409840898734 1.9206389470569705e-12 3.982008965212194 5.0210839356626575 3.3351522946385526e-12 -5.113088677466925 -3.2313124598773557 2.117220642965867" Properties=species:S:1:pos:R:3:tags:I:1 spacegroup="P 1" unit_cell=conventional n_minim_iter=3 stress="20.729977272220047 0.0009970834299586435 -1.0949267676646923e-13 0.0009970834299586435 20.72902965625704 1.9005602022101415e-13 -1.0949267676646923e-13 1.9005602022101415e-13 20.728399530649142" pbc="T T T"
Ti       0.00000000       0.00000000       0.00000000        0
Al       5.11308868       3.23131246       0.00000000        1
Al       3.12208419       0.72077049       1.05861032        2
Al       1.99100448       2.51054197       1.05861032        3
