4
Lattice="6.470601415807757 1.5585127733337578 2.014860775321022e-12 4.184843999880504 5.175396162958156 3.4457578239673313e-12 -5.327722707844531 -3.3669544681470573 2.139306687840745" Properties=species:S:1:pos:R:3:tags:I:1 spacegroup="P 1" unit_cell=conventional n_minim_iter=3 stress="10.343598546027216 0.0017034331156495477 2.285580195318186e-14 0.0017034331156495477 10.341979623915226 -2.918235719777354e-14 2.285580195318186e-14 -2.918235719777354e-14 10.34090310735184" pbc="T T T"
Ti       0.00000000       0.00000000       0.00000000        0
Al       5.32772271       3.36695447       0.00000000        1
Al       3.23530071       0.77925639       1.06965334        2
Al       2.09242200       2.58769808       1.06965334        3
