4
Lattice="5.079054800513546 0.8396060231186023 1.42798307211547e-12 2.938269102093211 4.2270924551470435 2.756373176882042e-12 -4.008661951303769 -2.5333492391338566 2.0036234510072175" Properties=species:S:1:pos:R:3:tags:I:1 spacegroup="P 1" unit_cell=conventional n_minim_iter=3 stress="8.317084851563173 -0.00027018505104419946 -5.265907945355233e-14 -0.00027018505104419946 8.317341632150352 1.4342672353640042e-13 -5.265907945355233e-14 1.4342672353640042e-13 8.317512380669605" pbc="T T T"
Ti       0.00000000       0.00000000       0.00000000        0
Al       4.00866195       2.53334924       0.00000000        1
Al       2.53952740       0.41980301       1.00181173        2
Al       1.46913455       2.11354623       1.00181173        3
