2
Lattice="4.6439218857256686 4.396348205731531e-18 7.014979291677246e-17 4.396348205731112e-18 4.6439218857256686 -2.956529506327393e-16 2.3219609428628343 2.3219609428628343 1.2806238377004238" Properties=species:S:1:pos:R:3 cutoff=-1.0 nneightol=1.2 n_minim_iter=1 energy=-325.5837309306547 free_energy=-325.5837309306547 pbc="T T T"
Si      -0.00000000      -1.16098047      -0.32015596
Si      -0.00000000       1.16098047       0.32015596
