2
Lattice="4.92727601205788 4.664596345028691e-18 7.443006157189682e-17 4.664596345028242e-18 4.92727601205788 -3.136925485384632e-16 2.46363800602894 2.46363800602894 1.3587625440828859" Properties=species:S:1:pos:R:3 cutoff=-1.0 nneightol=1.2 n_minim_iter=1 energy=-325.6688913838557 free_energy=-325.6688913838557 pbc="T T T"
Si      -0.00000000      -1.23181900      -0.33969064
Si      -0.00000000       1.23181900       0.33969064
