2
Lattice="4.888780095611639 4.628152697318618e-18 7.384855296057718e-17 4.628152697318185e-18 4.888780095611639 -3.112417253840888e-16 2.4443900478058196 2.4443900478058196 1.348146778041103" Properties=species:S:1:pos:R:3 cutoff=-1.0 nneightol=1.2 n_minim_iter=1 stress="0.02768356836757409 6.825125270362948e-17 7.565047664156169e-17 6.825125270362948e-17 0.027683568367573522 -2.8545296327005074e-19 7.565047664156169e-17 -2.8545296327005074e-19 0.023303107693094204" pbc="T T T"
Si      -0.00000000      -1.22219502      -0.33703669
Si      -0.00000000       1.22219503       0.33703669
