2
Lattice="4.537807314743045 1.2393695971073228e-17 -3.279371231849128e-16 1.2393695971072378e-17 4.537807314743047 4.18425971263797e-16 2.2689036573715224 2.2689036573715233 1.2294496026692654" Properties=species:S:1:pos:R:3 cutoff=-1.0 nneightol=1.2 n_minim_iter=2 stress="-0.1560434537090442 3.04691009407189e-17 1.8755405817900068e-16 3.04691009407189e-17 -0.15604345370904502 3.188805480787224e-16 1.8755405817900068e-16 3.188805480787224e-16 -0.15653208652319467" pbc="T T T"
Si      -0.00000000      -1.13445183      -0.30736240
Si      -0.00000000       1.13445183       0.30736240
