2
Lattice="5.005875864091951 -1.482181866870156e-16 2.2094333740846597e-15 -1.4821818668700052e-16 5.005875864091951 -4.452830696212876e-15 2.5029379320459753 2.5029379320459775 1.5001159242423774" Properties=species:S:1:pos:R:3 cutoff=-1.0 nneightol=1.2 n_minim_iter=1 stress="0.05482657214999539 2.6001967467174645e-17 -2.570636495503903e-19 2.6001967467174645e-17 0.054826572149995305 1.9438803181242947e-16 -2.570636495503903e-19 1.9438803181242947e-16 0.04114187054044451" pbc="T T T"
Si      -0.00000000      -1.25146896      -0.37502898
Si      -0.00000000       1.25146897       0.37502898
