2
Lattice="4.491499927336069 1.2267220860754656e-17 -3.2459059250276703e-16 1.2267220860753847e-17 4.491499927336069 4.1415602055665687e-16 2.2457499636680347 2.2457499636680347 1.2169033231339512" Properties=species:S:1:pos:R:3 cutoff=-1.0 nneightol=1.2 n_minim_iter=1 stress="-0.24230173745587855 7.317542663649788e-16 -3.631971760147115e-17 7.317542663649788e-16 -0.24230173745587716 5.937201420305519e-16 -3.631971760147115e-17 5.937201420305519e-16 -0.2369498003233341" pbc="T T T"
Si      -0.00000000      -1.12287498      -0.30422583
Si      -0.00000000       1.12287498       0.30422583
