2
Lattice="4.936820480122839 -1.4617353674547453e-16 2.1789545379840644e-15 -1.4617353674546748e-16 4.936820480122839 -4.3914044959185144e-15 2.468410240061419 2.4684102400614205 1.4794220269186715" Properties=species:S:1:pos:R:3 cutoff=-1.0 nneightol=1.2 n_minim_iter=1 stress="0.043065461878979513 -1.3372404529000291e-16 1.8634180226878912e-16 -1.3372404529000291e-16 0.04306546187897951 -2.2204046312415535e-16 1.8634180226878912e-16 -2.2204046312415535e-16 0.03705415895796959" pbc="T T T"
Si      -0.00000000      -1.23420512      -0.36985551
Si      -0.00000000       1.23420512       0.36985551
