2
Lattice="4.6439218857256686 4.396348205731531e-18 7.014979291677245e-17 4.396348205731112e-18 4.6439218857256686 -2.956529506327393e-16 2.3219609428628343 2.3219609428628343 1.2806238377004238" Properties=species:S:1:pos:R:3 cutoff=-1.0 nneightol=1.2 n_minim_iter=1 stress="-0.06604655872073263 7.860911696046515e-17 1.1055647326564304e-16 7.860911696046515e-17 -0.06604655872073473 -1.428832110168797e-16 1.1055647326564304e-16 -1.428832110168797e-16 -0.05961133845465612" pbc="T T T"
Si      -0.00000000      -1.16098047      -0.32015596
Si      -0.00000000       1.16098047       0.32015596
