4
Lattice="4.0 0.0 0.0 0.0 4.0 0.0 0.0 0.0 4.0" Properties=species:S:1:pos:R:3 n_minim_iter=1 stress="0.007598148071663921 -7.370717022016382e-19 -2.6525794454943248e-20 -7.370717022016382e-19 0.007598148071663937 6.844843606158957e-19 -2.6525794454943248e-20 6.844843606158957e-19 0.007598148071663891" pbc="T T T"
Al       0.00000000       0.00000000       0.00000000
Al       2.00000000       2.00000000       0.00000000
Al       2.00000000       0.00000000       2.00000000
Al       0.00000000       2.00000000       2.00000000
