4
Lattice="3.7132710668902233 0.0 0.0 0.0 3.7132710668902233 0.0 0.0 0.0 3.7132710668902233" Properties=species:S:1:pos:R:3 n_minim_iter=1 stress="-0.205977357840364 -2.7020178627431703e-18 -0.0 -2.7020178627431703e-18 -0.20597735784036403 -4.785654151589971e-19 -0.0 -4.785654151589971e-19 -0.20597735784036394" pbc="T T T"
Al       0.00000000       0.00000000       0.00000000
Al       1.85663553       1.85663553       0.00000000
Al       1.85663553       0.00000000       1.85663553
Al       0.00000000       1.85663553       1.85663553
