4
Lattice="4.129120461825467 0.0 0.0 0.0 4.129120461825467 0.0 0.0 0.0 4.129120461825467" Properties=species:S:1:pos:R:3 n_minim_iter=1 stress="0.04018537046383051 -1.0839853898330238e-17 2.549613909125358e-18 -1.0839853898330238e-17 0.0401853704638305 2.5133777634891268e-18 2.549613909125358e-18 2.5133777634891268e-18 0.0401853704638305" pbc="T T T"
Al       0.00000000       0.00000000       0.00000000
Al       2.06456023       2.06456023       0.00000000
Al       2.06456023       0.00000000       2.06456023
Al       0.00000000       2.06456023       2.06456023
