4
Lattice="4.308869380063768 0.0 0.0 0.0 4.308869380063768 0.0 0.0 0.0 4.308869380063768" Properties=species:S:1:pos:R:3 n_minim_iter=1 stress="0.06087713237434021 -5.425704406885363e-18 -3.851859888774471e-35 -5.425704406885363e-18 0.06087713237434021 -7.80625564189563e-19 -3.851859888774471e-35 -7.80625564189563e-19 0.06087713237434024" pbc="T T T"
Al       0.00000000       0.00000000       0.00000000
Al       2.15443469       2.15443469       0.00000000
Al       2.15443469       0.00000000       2.15443469
Al       0.00000000       2.15443469       2.15443469
