2
Lattice="2.5576621815221516 9.17590786848606e-18 2.5576621815221516 2.5576621815221516 2.5576621815221516 4.360317079351522e-17 1.7521752487415678e-16 2.5576621815221516 2.5576621815221516" Properties=species:S:1:pos:R:3:forces:R:3 n_minim_iter=1 energy=-326.0016120314958 stress="-0.13112617303221472 -6.562689156885521e-16 6.327814638364861e-16 -6.562689156885521e-16 -0.13112617303221497 1.9074943926018085e-16 6.327814638364861e-16 1.9074943926018085e-16 -0.13112617303221477" free_energy=-326.0016120314958 pbc="T T T"
Si       0.00000000      -0.00000000      -0.00000000       0.00000000       0.00000000      -0.00000000
Si       1.27883109       1.27883109       1.27883109      -0.00000000      -0.00000000       0.00000000
