4
Lattice="1.7663938274164763 -3.0594838552613868 -1.1540013253815746e-18 1.7663938274164754 3.0594838552613868 1.1540013253815638e-18 2.538034476793788e-32 -2.2682481225559092e-18 5.840056535987982" Properties=species:S:1:pos:R:3:forces:R:3 cutoff=-1.0 nneightol=1.2 n_minim_iter=3 energy=-650.812139015856 stress="-0.2651870046094902 1.4532145871509002e-16 -3.9224540943674145e-17 1.4532145871509002e-16 -0.26518700460949146 -3.7127750226710306e-16 -3.9224540943674145e-17 -3.7127750226710306e-16 -0.26531949622232837" free_energy=-650.812139015856 pbc="T T T"
Si       1.76639383       1.01982795       0.38048396      -0.00000000       0.00000000       0.00389360
Si       1.76639383      -1.01982795       3.30051223      -0.00000000       0.00000000       0.00389360
Si       1.76639383       1.01982795       2.53954430      -0.00000000      -0.00000000      -0.00389360
Si       1.76639383      -1.01982795      -0.38048396       0.00000000      -0.00000000      -0.00389360
