2
Lattice="2.9623097859469385 0.0 0.0 0.0 2.9623097859469385 0.0 0.0 0.0 4.270094720428531" Properties=species:S:1:pos:R:3:tags:I:1 spacegroup="P 1" unit_cell=conventional n_minim_iter=1 energy=-1703.8555924397801 free_energy=-1703.8555924397801 pbc="T T T"
Ti       1.48115489       1.48115489       2.13504737        0
Al       0.00000000       0.00000000       0.00000001        1
