2
Lattice="2.768546211758001 0.0 0.0 0.0 2.768546211758001 0.0 0.0 0.0 3.9907894232308414" Properties=species:S:1:pos:R:3:tags:I:1 spacegroup="P 1" unit_cell=conventional n_minim_iter=1 energy=-1704.295392786279 free_energy=-1704.295392786279 pbc="T T T"
Ti       1.38427311       1.38427311       1.99539472        0
Al       0.00000000       0.00000000       0.00000000        1
