2
Lattice="2.8139402833043965 0.0 0.0 0.0 2.8139402833043965 0.0 0.0 0.0 4.056223830587077" Properties=species:S:1:pos:R:3:tags:I:1 spacegroup="P 1" unit_cell=conventional n_minim_iter=1 energy=-1704.2664536492312 free_energy=-1704.2664536492312 pbc="T T T"
Ti       1.40697014       1.40697014       2.02811192        0
Al       0.00000000       0.00000000       0.00000000        1
