2
Lattice="2.9823259997838982 0.0 0.0 0.0 2.9823259997838982 0.0 0.0 0.0 4.298947587010427" Properties=species:S:1:pos:R:3:tags:I:1 spacegroup="P 1" unit_cell=conventional n_minim_iter=1 energy=-1703.771695268797 free_energy=-1703.771695268797 pbc="T T T"
Ti       1.49116300       1.49116300       2.14947380        0
Al       0.00000000       0.00000000       0.00000001        1
