2
Lattice="2.745280017556402 0.0 0.0 0.0 2.745280017556402 0.0 0.0 0.0 3.9572517920566743" Properties=species:S:1:pos:R:3:tags:I:1 spacegroup="P 1" unit_cell=conventional n_minim_iter=1 energy=-1704.2872894357433 free_energy=-1704.2872894357433 pbc="T T T"
Ti       1.37264001       1.37264001       1.97862590        0
Al       0.00000000       0.00000000       0.00000000        1
