2
Lattice="2.6975263020632037 0.0 0.0 0.0 2.6975263020632037 0.0 0.0 0.0 3.8884160175621556" Properties=species:S:1:pos:R:3:tags:I:1 spacegroup="P 1" unit_cell=conventional n_minim_iter=1 energy=-1704.2168087270554 free_energy=-1704.2168087270554 pbc="T T T"
Ti       1.34876315       1.34876315       1.94420801        0
Al       0.00000000       0.00000000       0.00000000        1
