2
Lattice="2.82410522 0.0 0.0 0.0 2.82410522 0.0 0.0 0.0 4.06471199" Properties=species:S:1:pos:R:3:tags:I:1 spacegroup="P 1" unit_cell=conventional n_minim_iter=1 energy=-1704.2546864205908 free_energy=-1704.2546864205908 pbc="T T T"
Ti       1.41205261       1.41205261       2.03235600        0
Al       0.00000000       0.00000000       0.00000000        1
2
Lattice="2.768546211758001 0.0 0.0 0.0 2.768546211758001 0.0 0.0 0.0 3.9907894232308405" Properties=species:S:1:pos:R:3:tags:I:1 spacegroup="P 1" unit_cell=conventional n_minim_iter=2 stress="0.0008115872491035498 2.0026619944946338e-17 -4.194144860749455e-17 2.0026619944946338e-17 0.0008115872491034335 -2.0444342984871248e-17 -4.194144860749455e-17 -2.0444342984871248e-17 -0.0009913262470981515" pbc="T T T"
Ti       1.38427311       1.38427311       1.99539472        0
Al       0.00000000       0.00000000       0.00000000        1
