2
Lattice="2.900576943531797 0.0 0.0 0.0 2.900576943531797 0.0 0.0 0.0 4.181108387626852" Properties=species:S:1:pos:R:3:tags:I:1 spacegroup="P 1" unit_cell=conventional n_minim_iter=1 stress="0.08477813365241281 -1.7259838993032028e-17 1.7582015056518144e-17 -1.7259838993032028e-17 0.08477813365241262 -1.1853847783847142e-17 1.7582015056518144e-17 -1.1853847783847142e-17 0.08326150876375253" pbc="T T T"
Ti       1.45028847       1.45028847       2.09055420        0
Al       0.00000000       0.00000000       0.00000001        1
