2
Lattice="2.648019189709125 0.0 0.0 0.0 2.648019189709125 0.0 0.0 0.0 3.817052765788257" Properties=species:S:1:pos:R:3:tags:I:1 spacegroup="P 1" unit_cell=conventional n_minim_iter=1 stress="-0.13614129137570938 -7.518268393089167e-18 -5.123440659256023e-17 -7.518268393089167e-18 -0.13614129137570904 1.2119967150928227e-17 -5.123440659256023e-17 1.2119967150928227e-17 -0.13714055375958872" pbc="T T T"
Ti       1.32400959       1.32400959       1.90852639        0
Al       0.00000000       0.00000000       0.00000000        1
