2
Lattice="2.596588284078552 0.0 0.0 0.0 2.596588284078552 0.0 0.0 0.0 3.7429164146065506" Properties=species:S:1:pos:R:3:tags:I:1 spacegroup="P 1" unit_cell=conventional n_minim_iter=1 stress="-0.21947307214589554 7.987669162668137e-17 5.82921123058742e-17 7.987669162668137e-17 -0.21947307214589534 -4.181152984675469e-17 5.82921123058742e-17 -4.181152984675469e-17 -0.2174366917203667" pbc="T T T"
Ti       1.29829414       1.29829414       1.87145821        0
Al       0.00000000       0.00000000       0.00000000        1
