2
Lattice="2.768546211758001 0.0 0.0 0.0 2.768546211758001 0.0 0.0 0.0 3.9907894232308414" Properties=species:S:1:pos:R:3:tags:I:1 spacegroup="P 1" unit_cell=conventional n_minim_iter=1 stress="0.0008115872491072661 4.55004834971805e-17 -1.0951357815381204e-17 4.55004834971805e-17 0.00081158724910715 -1.8572877468919088e-18 -1.0951357815381204e-17 -1.8572877468919088e-18 -0.0009913262471009385" pbc="T T T"
Ti       1.38427311       1.38427311       1.99539472        0
Al       0.00000000       0.00000000       0.00000000        1
