2
Lattice="2.9005769435317976 0.0 0.0 0.0 2.9005769435317976 0.0 0.0 0.0 4.181108387626853" Properties=species:S:1:pos:R:3:tags:I:1 spacegroup="P 1" unit_cell=conventional n_minim_iter=1 stress="0.0749753451233374 -4.06095771598185e-18 1.3397175883374157e-17 -4.06095771598185e-18 0.07497534512333708 2.5576301557761104e-17 1.3397175883374157e-17 2.5576301557761104e-17 0.07333909363850553" pbc="T T T"
Ti       1.45028847       1.45028847       2.09055420        0
Al       0.00000000       0.00000000       0.00000001        1
