2
Lattice="2.9823259997838982 0.0 0.0 0.0 2.9823259997838982 0.0 0.0 0.0 4.298947587010427" Properties=species:S:1:pos:R:3:tags:I:1 spacegroup="P 1" unit_cell=conventional n_minim_iter=1 stress="0.11340501346759221 -3.0920004307883763e-18 -8.886233743787427e-18 -3.0920004307883763e-18 0.11340501346759231 1.1569059553158762e-17 -8.886233743787427e-18 1.1569059553158762e-17 0.1110042380185303" pbc="T T T"
Ti       1.49116300       1.49116300       2.14947380        0
Al       0.00000000       0.00000000       0.00000001        1
