2
Lattice="2.9623097859469394 0.0 0.0 0.0 2.9623097859469394 0.0 0.0 0.0 4.270094720428532" Properties=species:S:1:pos:R:3:tags:I:1 spacegroup="P 1" unit_cell=conventional n_minim_iter=1 stress="0.10053493884014755 2.4182621470140897e-17 -1.1413910489934019e-18 2.4182621470140897e-17 0.10053493884014765 -3.6862199556633316e-18 -1.1413910489934019e-18 -3.6862199556633316e-18 0.09938031318591732" pbc="T T T"
Ti       1.48115489       1.48115489       2.13504737        0
Al       0.00000000       0.00000000       0.00000001        1
