22
Lattice="8.983668415450333 -3.3485699100061725 -2.7166984258066345 -7.538545498172941 10.592218158240735 -0.18693490062095267 -6.462102999188035 -1.081088786139101 13.817100868155288" Properties=species:S:1:pos:R:3 unique_starting_index=18 config_type=initial n_minim_iter=1 energy=-3639.027426218901 free_energy=-3639.027426218901 pbc="T T T"
Si      -1.74415212       7.87308666      -0.61881109
Si      -1.07023194       0.55995382       6.78524390
Si      -5.25772871      -0.50841185      11.06979526
Si       0.43999076      -1.17080074      11.67422223
Si      -9.08775433       3.37978021      12.87936790
Si       6.12304745       0.63983182      -0.62099977
Si       5.30462526      -1.02198508      -1.37591311
Si      -1.91884161       0.78703838      10.55899131
Si      -2.42163819      -0.94984932      11.36546555
Si      -8.15947278       3.78527001       8.86722737
Si       0.23616214       0.50265476       4.24191061
Si      -6.44696327       5.90343528       7.46666555
Si      -4.84394335      -0.79188560       9.37284202
Si      -2.80255641       6.26124570      -0.06949889
Si      -0.31501930       1.84265011       5.44704039
Si      -1.16474414       6.78699886       0.96024919
Si      -2.22923213       1.50987786       3.80566891
Si       4.05652356      -5.32849192       8.08182157
Si      -0.35591740       2.17490495       3.55911158
Si      -6.45734006       4.79143021       8.53243010
Si      -6.04720798       4.70817584       6.69686690
Si      -2.84848161      -0.59318588       9.47371094
22
Lattice="8.98314003975204 -3.348723804944915 -2.7167020495668286 -7.538418710353999 10.591773221002086 -0.18683361948989138 -6.461516255089376 -1.0805709763194564 13.817103249585944" Properties=species:S:1:pos:R:3 unique_starting_index=18 config_type=initial n_minim_iter=2 stress="-0.0008386106030405878 -0.00018044941598307975 -1.4883430446430027e-06 -0.00018044941598307975 -6.503940716918723e-05 -9.410745183149888e-05 -1.4883430446430027e-06 -9.410745183149888e-05 -0.0007658411129960311" pbc="T T T"
Si      -1.74434340       7.87259681      -0.61870875
Si      -1.07013318       0.56007044       6.78525353
Si      -5.25726652      -0.50801857      11.06979969
Si       0.44006639      -1.17058042      11.67425907
Si      -9.08717222       3.38007860      12.87940958
Si       6.12257134       0.63952126      -0.62096354
Si       5.30430108      -1.02213399      -1.37589127
Si      -1.91865375       0.78720216      10.55903511
Si      -2.42137071      -0.94952582      11.36547498
Si      -8.15898332       3.78544850       8.86728336
Si       0.23614572       0.50267642       4.24192899
Si      -6.44667802       5.90338630       7.46673349
Si      -4.84350144      -0.79151712       9.37284372
Si      -2.80260960       6.26091742      -0.06943156
Si      -0.31504448       1.84259815       5.44710304
Si      -1.16492197       6.78658495       0.96033828
Si      -2.22910560       1.50990862       3.80569410
Si       4.05650334      -5.32815517       8.08180392
Si      -0.35596077       2.17481737       3.55915296
Si      -6.45700801       4.79147469       8.53249857
Si      -6.04691155       4.70817457       6.69692209
Si      -2.84820480      -0.59290935       9.47372167
22
Lattice="8.983956642725332 -3.34870496752635 -2.71730841604594 -7.539306937161106 10.590818860949723 -0.18644368890524582 -6.461895007922486 -1.079645979047618 13.819744527795654" Properties=species:S:1:pos:R:3 unique_starting_index=18 config_type=initial n_minim_iter=3 stress="0.0005858920981386762 -0.00030584555064640836 0.0005517818123965346 -0.00030584555064640836 -0.000790321120252193 0.00014125529726621128 0.0005517818123965346 0.00014125529726621128 0.00027216450475257023" pbc="T T T"
Si      -1.74471602       7.87176048      -0.61844284
Si      -1.07019025       0.56047577       6.78652800
Si      -5.25758157      -0.50731013      11.07191765
Si       0.44024079      -1.16992825      11.67654650
Si      -9.08797326       3.38054778      12.88201685
Si       6.12302570       0.63918726      -0.62101837
Si       5.30486437      -1.02223040      -1.37609761
Si      -1.91863598       0.78763509      10.56116782
Si      -2.42151023      -0.94878335      11.36761093
Si      -8.15967777       3.78564516       8.86926445
Si       0.23615919       0.50286825       4.24275238
Si      -6.44722108       5.90331726       7.46839792
Si      -4.84376475      -0.79090974       9.37465274
Si      -2.80306880       6.26030213      -0.06918460
Si      -0.31510227       1.84261600       5.44836764
Si      -1.16517527       6.78590845       0.96084645
Si      -2.22930818       1.50996692       3.80653167
Si       4.05716284      -5.32721131       8.08320257
Si      -0.35599667       2.17478535       3.55995023
Si      -6.45750184       4.79160425       8.53440038
Si      -6.04741430       4.70811960       6.69841263
Si      -2.84834835      -0.59237294       9.47553970
22
Lattice="8.983261506597417 -3.348572840265045 -2.7193401895402785 -7.537861270828919 10.591431386553447 -0.1850019916434351 -6.463567207022206 -1.0798392187924173 13.823185695142628" Properties=species:S:1:pos:R:3 unique_starting_index=18 config_type=initial n_minim_iter=4 stress="-0.000476245030842899 3.944452807369453e-05 1.943139103302087e-05 3.944452807369453e-05 8.783175496156819e-05 -0.0001786646176886585 1.943139103302087e-05 -0.0001786646176886585 0.0009508206672264921" pbc="T T T"
Si      -1.74399314       7.87238216      -0.61793892
Si      -1.07123258       0.56081499       6.78770873
Si      -5.25888135      -0.50742125      11.07466071
Si       0.43816021      -1.16980374      11.67845301
Si      -9.08914619       3.38060851      12.88576321
Si       6.12243655       0.63943886      -0.62216634
Si       5.30462053      -1.02211989      -1.37716066
Si      -1.91996448       0.78772807      10.56333145
Si      -2.42335560      -0.94870105      11.36982018
Si      -8.16011100       3.78571787       8.87244212
Si       0.23538425       0.50312742       4.24340768
Si      -6.44728917       5.90379773       7.47078375
Si      -4.84475857      -0.79115627       9.37712246
Si      -2.80251889       6.26072883      -0.06857093
Si      -0.31594321       1.84282146       5.44954360
Si      -1.16490997       6.78641629       0.96129799
Si      -2.22964943       1.51005554       3.80760618
Si       4.05531558      -5.32714194       8.08380047
Si      -0.35643798       2.17508920       3.56064461
Si      -6.45781065       4.79205086       8.53713186
Si      -6.04750049       4.70833591       6.70065917
Si      -2.84970823      -0.59250835       9.47760073
22
Lattice="8.984039539356944 -3.348660508267257 -2.719850626616757 -7.538264153698331 10.591383074410352 -0.18380906352660398 -6.465033261513879 -1.0790995593486734 13.821837868955132" Properties=species:S:1:pos:R:3 unique_starting_index=18 config_type=initial n_minim_iter=5 stress="0.0003428364755780717 0.00022718843997181996 -0.0006605538757403777 0.00022718843997181996 -0.0007355503488165307 0.0005554735279917452 -0.0006605538757403777 0.0005554735279917452 -0.0007924693093703277" pbc="T T T"
Si      -1.74401834       7.87229323      -0.61714152
Si      -1.07186459       0.56133301       6.78683972
Si      -5.26004677      -0.50681358      11.07358030
Si       0.43727070      -1.16915125      11.67684622
Si      -9.09078397       3.38125730      12.88495312
Si       6.12285977       0.63937986      -0.62251814
Si       5.30516981      -1.02221941      -1.37741929
Si      -1.92081927       0.78823968      10.56216699
Si      -2.42446486      -0.94801181      11.36839314
Si      -8.16127347       3.78620287       8.87219237
Si       0.23506600       0.50345636       4.24293231
Si      -6.44812163       5.90426511       7.47056989
Si      -4.84576849      -0.79072836       9.37628119
Si      -2.80271076       6.26071225      -0.06798833
Si      -0.31639725       1.84310744       5.44905919
Si      -1.16504303       6.78641740       0.96163431
Si      -2.23009228       1.51022163       3.80737376
Si       4.05512371      -5.32650750       8.08214914
Si      -0.35673443       2.17531789       3.56033066
Si      -6.45879248       4.79258973       8.53687010
Si      -6.04828253       4.70865284       6.70052108
Si      -2.85058676      -0.59206591       9.47654231
22
Lattice="8.98429119757991 -3.3497388451685883 -2.7188633197845102 -7.539168238459144 10.593775501381032 -0.18477697659202577 -6.464164335478095 -1.0794633627531214 13.820307743230732" Properties=species:S:1:pos:R:3 unique_starting_index=18 config_type=initial n_minim_iter=6 stress="0.00021075249096202432 -0.000544761349132788 8.254955667743421e-05 -0.000544761349132788 0.0005527703570424364 0.00025520216388653553 8.254955667743421e-05 0.00025520216388653553 -0.0006982838906601987" pbc="T T T"
Si      -1.74471056       7.87368455      -0.61733267
Si      -1.07159387       0.56139967       6.78601652
Si      -5.25934770      -0.50699732      11.07227557
Si       0.43803698      -1.16997100      11.67595163
Si      -9.09052480       3.38186032      12.88304648
Si       6.12286118       0.63900310      -0.62208561
Si       5.30544400      -1.02282063      -1.37693941
Si      -1.92017862       0.78785504      10.56111597
Si      -2.42385266      -0.94840710      11.36713624
Si      -8.16104353       3.78717444       8.87083264
Si       0.23529598       0.50351345       4.24273231
Si      -6.44795093       5.90556806       7.46908296
Si      -4.84518171      -0.79110397       9.37529790
Si      -2.80331406       6.26200787      -0.06846383
Si      -0.31619929       1.84324326       5.44858519
Si      -1.16549007       6.78751280       0.96122628
Si      -2.22997031       1.51039221       3.80685672
Si       4.05650249      -5.32777756       8.08197270
Si      -0.35676842       2.17559199       3.55990630
Si      -6.45869693       4.79362666       8.53569001
Si      -6.04812334       4.70953862       6.69935485
Si      -2.84989296      -0.59255999       9.47553854
22
Lattice="8.982995935807173 -3.347057722339704 -2.718298268900259 -7.536536909740533 10.590817746351494 -0.1864387605248607 -6.4638728855474055 -1.082725397811714 13.820404365569217" Properties=species:S:1:pos:R:3 unique_starting_index=18 config_type=initial n_minim_iter=7 stress="3.2345891728751715e-05 0.00021588949550937036 7.979391932067926e-05 0.00021588949550937036 -0.00034239538518424046 -0.00038529946105444644 7.979391932067926e-05 -0.00038529946105444644 -0.0007447004638820245" pbc="T T T"
Si      -1.74332097       7.87214199      -0.61824085
Si      -1.07169642       0.56030328       6.78569931
Si      -5.25895986      -0.50957519      11.07216559
Si       0.43760977      -1.17157840      11.67595648
Si      -9.08950134       3.37749966      12.88233293
Si       6.12245505       0.64002854      -0.62215973
Si       5.30509199      -1.02187705      -1.37682520
Si      -1.91995473       0.78529463      10.56091049
Si      -2.42407715      -0.95032966      11.36687734
Si      -8.15953935       3.78406532       8.87042387
Si       0.23533693       0.50325330       4.24301505
Si      -6.44583758       5.90262735       7.46771897
Si      -4.84494025      -0.79374669       9.37555546
Si      -2.80206281       6.26054278      -0.06949626
Si      -0.31575219       1.84236888       5.44823771
Si      -1.16406428       6.78595097       0.96036088
Si      -2.22943760       1.50884010       3.80670017
Si       4.05602574      -5.32677832       8.08272852
Si      -0.35659725       2.17471162       3.55954047
Si      -6.45739034       4.79061537       8.53531376
Si      -6.04637936       4.70651105       6.69861982
Si      -2.84960286      -0.59488385       9.47544095
22
Lattice="8.982621300757316 -3.3475862417206725 -2.72018768775618 -7.535913883172886 10.591235049098493 -0.18400179972626404 -6.46483323772652 -1.0806046861699639 13.82312279300258" Properties=species:S:1:pos:R:3 unique_starting_index=18 config_type=initial n_minim_iter=8 stress="-0.00035056326266534436 0.00033892076214590914 0.000323028485037438 0.00033892076214590914 0.00024303964881060001 0.0010852471819507146 0.000323028485037438 0.0010852471819507146 -0.0001407165975550226" pbc="T T T"
Si      -1.74340320       7.87217872      -0.61671636
Si      -1.07247195       0.56160684       6.78678393
Si      -5.25966059      -0.50772961      11.07429828
Si       0.43618485      -1.16978312      11.67743419
Si      -9.09018545       3.37941502      12.88574608
Si       6.12200800       0.63987547      -0.62277030
Si       5.30487668      -1.02246417      -1.37794585
Si      -1.92119896       0.78675613      10.56296207
Si      -2.42509691      -0.94850195      11.36861911
Si      -8.15979972       3.78601466       8.87357367
Si       0.23486686       0.50432639       4.24406420
Si      -6.44575664       5.90430172       7.47018182
Si      -4.84548865      -0.79261391       9.37758319
Si      -2.80196752       6.26079189      -0.06822519
Si      -0.31622714       1.84360680       5.44939425
Si      -1.16409824       6.78620885       0.96187647
Si      -2.22960180       1.50921161       3.80795699
Si       4.05556023      -5.32514610       8.08271685
Si      -0.35715306       2.17542829       3.56048227
Si      -6.45788567       4.79242380       8.53846825
Si      -6.04628798       4.70763796       6.70112742
Si      -2.85024541      -0.59375169       9.47700864
22
Lattice="8.983994354176595 -3.348237008079629 -2.722255572854926 -7.5373712377328035 10.591738962147959 -0.18323706750686944 -6.468078910537036 -1.081021096751487 13.826427460514708" Properties=species:S:1:pos:R:3 unique_starting_index=18 config_type=initial n_minim_iter=9 stress="0.00040561526882269453 -0.0007503172401625598 -0.0008783519821124936 -0.0007503172401625598 -0.00011298946766064059 -0.00016343397109390003 -0.0008783519821124936 -0.00016343397109390003 0.00021728427775182405" pbc="T T T"
Si      -1.74455021       7.87192094      -0.61685942
Si      -1.07420874       0.56135743       6.78757937
Si      -5.26223497      -0.50788867      11.07680900
Si       0.43351729      -1.17081939      11.67873831
Si      -9.09380091       3.37895997      12.88896411
Si       6.12218855       0.63897830      -0.62431358
Si       5.30552100      -1.02311694      -1.37946685
Si      -1.92410911       0.78582962      10.56473221
Si      -2.42755408      -0.94912428      11.37054168
Si      -8.16262362       3.78650349       8.87655997
Si       0.23387452       0.50434707       4.24488600
Si      -6.44799394       5.90443762       7.47168080
Si      -4.84761964      -0.79318528       9.38008462
Si      -2.80299139       6.26077936      -0.06814882
Si      -0.31760539       1.84345961       5.44994812
Si      -1.16520630       6.78578494       0.96187882
Si      -2.23074652       1.50867922       3.80900793
Si       4.05526682      -5.32549381       8.08324268
Si      -0.35839722       2.17517492       3.56080630
Si      -6.46066723       4.79261359       8.54097388
Si      -6.04820882       4.70744160       6.70302519
Si      -2.85225317      -0.59460602       9.47871009
22
Lattice="8.982953608140418 -3.3469286207900755 -2.7220515601361623 -7.53551430875818 10.590661281055082 -0.18374340754908808 -6.4677878204033314 -1.0825009418776061 13.826221560786696" Properties=species:S:1:pos:R:3 unique_starting_index=18 config_type=initial n_minim_iter=10 stress="-7.295054490805444e-05 0.00010753144219019509 -2.134022817040034e-05 0.00010753144219019509 2.4284363106001928e-05 -7.976345717871225e-05 -2.134022817040034e-05 -7.976345717871225e-05 -0.00024435202782474124" pbc="T T T"
Si      -1.74400377       7.87128074      -0.61696741
Si      -1.07398491       0.56135499       6.78678841
Si      -5.26180808      -0.50871612      11.07641893
Si       0.43292346      -1.17146418      11.67828521
Si      -9.09277516       3.37681680      12.88826176
Si       6.12156704       0.63932940      -0.62443978
Si       5.30492224      -1.02267035      -1.37992783
Si      -1.92449005       0.78469775      10.56457961
Si      -2.42717094      -0.94997931      11.37021638
Si      -8.16202737       3.78577549       8.87691479
Si       0.23395524       0.50488060       4.24542987
Si      -6.44626886       5.90352061       7.47057575
Si      -4.84722511      -0.79482162       9.38017374
Si      -2.80252731       6.25989364      -0.06850425
Si      -0.31732258       1.84363413       5.44975652
Si      -1.16444045       6.78503558       0.96186721
Si      -2.23053024       1.50749570       3.80925035
Si       4.05547488      -5.32435262       8.08325369
Si      -0.35835140       2.17508600       3.56057572
Si      -6.45960494       4.79204355       8.54116273
Si      -6.04663396       4.70603273       6.70288438
Si      -2.85185067      -0.59609629       9.47818109
22
Lattice="8.98314744549375 -3.347244106829975 -2.722625453904577 -7.535592777950385 10.591163253404808 -0.18289317067267594 -6.468543623717167 -1.0819321623083975 13.826275520437903" Properties=species:S:1:pos:R:3 unique_starting_index=18 config_type=initial n_minim_iter=11 stress="0.00028671169191082365 0.0002936204662177071 -9.627569582560073e-05 0.0002936204662177071 0.00026925734368189844 -1.772422408171026e-05 -9.627569582560073e-05 -1.772422408171026e-05 0.0001272769717070525" pbc="T T T"
Si      -1.74490226       7.87145201      -0.61625338
Si      -1.07503101       0.56256109       6.78601140
Si      -5.26208154      -0.50730675      11.07618364
Si       0.43181265      -1.17153365      11.67779411
Si      -9.09402175       3.37767854      12.88806020
Si       6.12112981       0.63853367      -0.62495928
Si       5.30459896      -1.02354265      -1.38107511
Si      -1.92551093       0.78464056      10.56462177
Si      -2.42651901      -0.94962033      11.37014287
Si      -8.16199856       3.78790153       8.87839853
Si       0.23395713       0.50621448       4.24626721
Si      -6.44621856       5.90431183       7.46999317
Si      -4.84729924      -0.79530644       9.38040613
Si      -2.80339758       6.25885148      -0.06802070
Si      -0.31756910       1.84489814       5.44982088
Si      -1.16538338       6.78433740       0.96231787
Si      -2.23083521       1.50686166       3.81000025
Si       4.05649462      -5.32313526       8.08259532
Si      -0.35906027       2.17552559       3.56056977
Si      -6.46010201       4.79400673       8.54233898
Si      -6.04625487       4.70608981       6.70390592
Si      -2.85180903      -0.59679501       9.47737477
22
Lattice="8.983509155810832 -3.348399551356139 -2.720573477071999 -7.537253524917288 10.59238321413796 -0.18423879210111727 -6.465738174870954 -1.0808393005298704 13.82416987577326" Properties=species:S:1:pos:R:3 unique_starting_index=18 config_type=initial n_minim_iter=12 stress="0.00021095121029361926 0.00010899192844478472 0.00018228753233018774 0.00010899192844478472 -0.00029040582548044337 -0.00018983626585115885 0.00018228753233018774 -0.00018983626585115885 0.00046308301174494864" pbc="T T T"
Si      -1.74703715       7.87142398      -0.61555926
Si      -1.07423582       0.56360873       6.78497228
Si      -5.25938286      -0.50516759      11.07420636
Si       0.43438116      -1.17163794      11.67693229
Si      -9.09277486       3.37919357      12.88490300
Si       6.12072503       0.63676587      -0.62388248
Si       5.30441669      -1.02520476      -1.38020748
Si      -1.92387419       0.78443197      10.56367879
Si      -2.42270921      -0.94889947      11.36896598
Si      -8.16081944       3.79081119       8.87763846
Si       0.23526801       0.50747356       4.24707931
Si      -6.44528054       5.90543475       7.46738046
Si      -4.84480356      -0.79536119       9.37885122
Si      -2.80439617       6.25878711      -0.06818074
Si      -0.31630847       1.84658523       5.44940868
Si      -1.16715041       6.78398982       0.96190843
Si      -2.23038687       1.50619038       3.80981426
Si       4.06018227      -5.32265652       8.08303514
Si      -0.35919398       2.17587035       3.56039226
Si      -6.45855378       4.79708099       8.54124918
Si      -6.04493777       4.70658618       6.70327417
Si      -2.84912212      -0.59730604       9.47540708
22
Lattice="8.983505315193536 -3.352512545220128 -2.719116841960413 -7.539737478684137 10.598664983805595 -0.1840697966517557 -6.462574342935351 -1.0775397953381771 13.821510908927799" Properties=species:S:1:pos:R:3 unique_starting_index=18 config_type=initial n_minim_iter=13 stress="7.477459958844613e-05 -9.759176761794492e-05 0.00017811521720333728 -9.759176761794492e-05 0.0002252443445879803 -0.0002307435395021573 0.00017811521720333728 -0.0002307435395021573 0.00036224699164197664" pbc="T T T"
Si      -1.75025698       7.87516054      -0.61399258
Si      -1.07367333       0.56583926       6.78369749
Si      -5.25630063      -0.50088985      11.07181109
Si       0.43673153      -1.17068326      11.67491296
Si      -9.09152263       3.38446667      12.88199158
Si       6.11945012       0.63383579      -0.62301308
Si       5.30406085      -1.02868231      -1.37908393
Si      -1.92244041       0.78604021      10.56232156
Si      -2.41910950      -0.94672725      11.36704625
Si      -8.15959526       3.79780541       8.87696279
Si       0.23650224       0.50932738       4.24816322
Si      -6.44490117       5.91053404       7.46533012
Si      -4.84165593      -0.79384081       9.37675161
Si      -2.80677193       6.26126302      -0.06769121
Si      -0.31548141       1.84978105       5.44897633
Si      -1.16932626       6.78651704       0.96279784
Si      -2.23039814       1.50655514       3.80942390
Si       4.06355887      -5.32405320       8.08246519
Si      -0.35966347       2.17746788       3.56027007
Si      -6.45736510       4.80418905       8.54048310
Si      -6.04396228       4.71040966       6.70327873
Si      -2.84640721      -0.59652961       9.47290216
22
Lattice="8.981398793834547 -3.352982518716907 -2.719964275684822 -7.537402747566394 10.600342455214554 -0.18248814900358662 -6.461047459365792 -1.0759467058240793 13.82370875327126" Properties=species:S:1:pos:R:3 unique_starting_index=18 config_type=initial n_minim_iter=14 stress="-7.061131238034711e-05 0.00010523544817810528 0.00024097048552795694 0.00010523544817810528 0.0002579769207842778 -7.296815651656526e-05 0.00024097048552795694 -7.296815651656526e-05 0.0006427514427134267" pbc="T T T"
Si      -1.75000862       7.87611116      -0.61206816
Si      -1.07371564       0.56757890       6.78462812
Si      -5.25449582      -0.49856596      11.07338245
Si       0.43653503      -1.16904338      11.67609635
Si      -9.08958341       3.38639690      12.88468061
Si       6.11781509       0.63315178      -0.62312961
Si       5.30289679      -1.02900567      -1.37956211
Si      -1.92206857       0.78721530      10.56408734
Si      -2.41792888      -0.94525801      11.36876364
Si      -8.15695850       3.80114694       8.87976633
Si       0.23690020       0.51080722       4.24994715
Si      -6.44271642       5.91256108       7.46691729
Si      -4.84010889      -0.79332578       9.37788100
Si      -2.80624422       6.26181829      -0.06676370
Si      -0.31501802       1.85202298       5.45033989
Si      -1.16875497       6.78778239       0.96423543
Si      -2.23013311       1.50645871       3.81040994
Si       4.06244062      -5.32324757       8.08347576
Si      -0.35952980       2.17853531       3.56118539
Si      -6.45532198       4.80769390       8.54301797
Si      -6.04180001       4.71157189       6.70596720
Si      -2.84473579      -0.59590385       9.47379781
22
Lattice="8.979523755171709 -3.3534563795526737 -2.722320607163538 -7.535296037772858 10.602164933777042 -0.1812855945303104 -6.461739440149679 -1.0762461912515269 13.829125259188013" Properties=species:S:1:pos:R:3 unique_starting_index=18 config_type=initial n_minim_iter=15 stress="-0.0002193832166109212 4.925203472824918e-05 9.291531229281386e-05 4.925203472824918e-05 0.0002780684363949379 -0.00020896347606780678 9.291531229281386e-05 -0.00020896347606780678 0.0006222052835373487" pbc="T T T"
Si      -1.75076350       7.87702950      -0.61136018
Si      -1.07501396       0.56888093       6.78593695
Si      -5.25413131      -0.49732396      11.07722846
Si       0.43402317      -1.16975692      11.67859837
Si      -9.08969184       3.38681749      12.89015670
Si       6.11607225       0.63191162      -0.62440216
Si       5.30183691      -1.03031910      -1.38122245
Si      -1.92436134       0.78641892      10.56716099
Si      -2.41903081      -0.94577733      11.37234695
Si      -8.15580652       3.80446723       8.88506331
Si       0.23651315       0.51175417       4.25288751
Si      -6.44168674       5.91368370       7.46938585
Si      -4.83991804      -0.79432912       9.38083372
Si      -2.80563667       6.26193367      -0.06625079
Si      -0.31594299       1.85341848       5.45265338
Si      -1.16903359       6.78808043       0.96510605
Si      -2.23039381       1.50571712       3.81198484
Si       4.05929132      -5.32380622       8.08613204
Si      -0.36059207       2.17868557       3.56219908
Si      -6.45454323       4.81124311       8.54713416
Si      -6.04063754       4.71145584       6.71046337
Si      -2.84366845      -0.59689578       9.47622328
22
Lattice="8.978746005877445 -3.353708821516021 -2.723884757266932 -7.534467072828177 10.602656854121348 -0.1804322262767739 -6.462464494791355 -1.076143549381741 13.832605902265373" Properties=species:S:1:pos:R:3 unique_starting_index=18 config_type=initial n_minim_iter=16 stress="-0.00025323778326078817 3.126022492145076e-07 9.897909333719267e-06 3.126022492145076e-07 0.00020413189955309589 -0.0001809910572464635 9.897909333719267e-06 -0.0001809910572464635 0.0006856201591881973" pbc="T T T"
Si      -1.75171086       7.87659183      -0.61047846
Si      -1.07617947       0.56974485       6.78685216
Si      -5.25397338      -0.49616011      11.07946239
Si       0.43213142      -1.17068767      11.68035957
Si      -9.09007995       3.38725853      12.89346181
Si       6.11548089       0.63106138      -0.62502244
Si       5.30158012      -1.03166407      -1.38274588
Si      -1.92611764       0.78606834      10.56904231
Si      -2.42013415      -0.94617822      11.37444386
Si      -8.15544869       3.80713992       8.88891255
Si       0.23618105       0.51241951       4.25510847
Si      -6.44129694       5.91432077       7.47081428
Si      -4.83917529      -0.79487034       9.38246896
Si      -2.80583247       6.26114925      -0.06600550
Si      -0.31661070       1.85463672       5.45401229
Si      -1.16939399       6.78800195       0.96558362
Si      -2.23099684       1.50483594       3.81295454
Si       4.05721530      -5.32361122       8.08810063
Si      -0.36121182       2.17853210       3.56282158
Si      -6.45422313       4.81413035       8.54985854
Si      -6.04015313       4.71091668       6.71371986
Si      -2.84328846      -0.59760611       9.47758910
22
Lattice="8.979230513787982 -3.353203134164414 -2.723402290843611 -7.534340224316207 10.602335411519105 -0.18021053733876252 -6.463052859396736 -1.0763665883002125 13.829835088498044" Properties=species:S:1:pos:R:3 unique_starting_index=18 config_type=initial n_minim_iter=17 stress="-0.0002598402582764539 0.00013369064130799475 -7.436495668395472e-05 0.00013369064130799475 0.00021567925409176538 -0.00013611684165531704 -7.436495668395472e-05 -0.00013611684165531704 0.00023521149613629465" pbc="T T T"
Si      -1.75234757       7.87589745      -0.61003379
Si      -1.07652528       0.57026899       6.78521590
Si      -5.25392397      -0.49564815      11.07656384
Si       0.43199587      -1.17126553      11.67754044
Si      -9.09048251       3.38674719      12.89056874
Si       6.11603263       0.63031349      -0.62501338
Si       5.30209022      -1.03187929      -1.38270883
Si      -1.92666713       0.78593257      10.56653697
Si      -2.42064451      -0.94684646      11.37176669
Si      -8.15549388       3.80901736       8.88839455
Si       0.23620663       0.51290845       4.25543883
Si      -6.44102520       5.91467662       7.46870244
Si      -4.83832927      -0.79561020       9.37985393
Si      -2.80615659       6.26034148      -0.06567658
Si      -0.31662542       1.85581976       5.45291526
Si      -1.16929814       6.78746792       0.96558052
Si      -2.23095467       1.50472835       3.81237180
Si       4.05659598      -5.32271398       8.08720160
Si      -0.36139901       2.17816102       3.56213179
Si      -6.45429308       4.81607095       8.54857643
Si      -6.03996225       4.70992838       6.71347531
Si      -2.84295545      -0.59833700       9.47510853
22
Lattice="8.980935769255204 -3.3537768548597238 -2.7215396329486383 -7.536592420721301 10.602787372821705 -0.1811182911195417 -6.4627002457517175 -1.0760576424902233 13.824974776801447" Properties=species:S:1:pos:R:3 unique_starting_index=18 config_type=initial n_minim_iter=18 stress="0.0001722712600387847 -2.7961762338523466e-05 0.0001869146176761981 -2.7961762338523466e-05 -0.00019745437100705574 -7.87335922595487e-05 0.0001869146176761981 -7.87335922595487e-05 0.00014621448850800692" pbc="T T T"
Si      -1.75460100       7.87527094      -0.60966313
Si      -1.07598551       0.57103539       6.78244624
Si      -5.25306544      -0.49443817      11.07130146
Si       0.43379148      -1.17265264      11.67322497
Si      -9.09120501       3.38665339      12.88491714
Si       6.11749310       0.62836202      -0.62426770
Si       5.30266159      -1.03337104      -1.38215268
Si      -1.92599263       0.78560561      10.56236306
Si      -2.42015229      -0.94821718      11.36750049
Si      -8.15569009       3.81341712       8.88734894
Si       0.23643833       0.51329749       4.25578092
Si      -6.44133570       5.91627328       7.46434687
Si      -4.83654660      -0.79644197       9.37517561
Si      -2.80788819       6.25960435      -0.06512155
Si      -0.31656066       1.85745546       5.45117753
Si      -1.17048476       6.78670039       0.96512559