10
Lattice="5.7163116210666365 0.8704406488047749 2.0855697168449454e-15 -1.7381935303140774 4.798688299396197 -4.191943280759412e-14 -1.56650930821928e-14 7.951055656581878e-14 9.751452096080259" Properties=species:S:1:pos:R:3 unique_starting_index=14 config_type=initial n_minim_iter=1 energy=-1637.6345383506812 free_energy=-1637.6345383506812 pbc="T T T"
Si       1.05025373       2.60005366       0.67033150
Si       2.92786435       3.06907529       0.67033150
Si       2.36997908       1.30956438       1.44777043
Si       1.60813900       4.35956457       1.44777043
Si       2.21116255       1.19888928       6.09155274
Si       1.76695554       4.47023967       6.09155274
Si       1.56527624       3.74353836       3.35254644
Si       2.41284185       1.92559058       3.35254644
Si      -0.18994402       4.12394566       6.32334968
Si       4.16806211       1.54518328       6.32334968
10
Lattice="5.7160736691907905 0.8707095595152482 2.084583124945423e-15 -1.7376560114492077 4.79711599203137 -4.190461331708159e-14 -1.5662988929494763e-14 7.951434123846234e-14 9.751522568623667" Properties=species:S:1:pos:R:3 unique_starting_index=14 config_type=initial n_minim_iter=2 stress="-0.0030181888622276354 -0.0007922117992288136 -1.6640718703902537e-15 -0.0007922117992288136 -0.0020939229206177372 1.4163203330541309e-15 -1.6640718703902537e-15 1.4163203330541309e-15 -0.0018092989420495035" pbc="T T T"
Si       1.05046501       2.59936404       0.67036094
Si       2.92795265       3.06846151       0.67036094
Si       2.36994734       1.30942893       1.44775105
Si       1.60847032       4.35839662       1.44775105
Si       2.21114906       1.19865480       6.09158839
Si       1.76726859       4.46917075       6.09158839
Si       1.56551892       3.74257879       3.35258786
Si       2.41289874       1.92524676       3.35258786
Si      -0.18956873       4.12276409       6.32339178
Si       4.16798639       1.54506146       6.32339178
10
Lattice="5.717966145619535 0.8716516735156289 2.0825060119896053e-15 -1.7374087587911644 4.796906957564524 -4.1896543520221974e-14 -1.5664047399155527e-14 7.954445938153602e-14 9.753618091938757" Properties=species:S:1:pos:R:3 unique_starting_index=14 config_type=initial n_minim_iter=3 stress="0.002420534253634073 0.0020340816036818767 -1.9317894696266312e-15 0.0020340816036818767 -1.9573826044650776e-05 2.8552100060035306e-15 -1.9317894696266312e-15 2.8552100060035306e-15 0.004762312856006326" pbc="T T T"
Si       1.05126455       2.59943950       0.67054968
Si       2.92929284       3.06911913       0.67054968
Si       2.37076792       1.30993629       1.44798744
Si       1.60978946       4.35862234       1.44798744
Si       2.21195065       1.19875856       6.09283538
Si       1.76860673       4.46980007       6.09283538
Si       1.56645762       3.74302378       3.35340609
Si       2.41409977       1.92553485       3.35340609
Si      -0.18908737       4.12297497       6.32474493
Si       4.16964476       1.54558366       6.32474493
10
Lattice="5.718286165030358 0.8714651278380736 2.1013907230930943e-15 -1.7377115383674766 4.797227889475785 -4.19078486318678e-14 -1.563157501083384e-14 7.95228920238377e-14 9.751688676315181" Properties=species:S:1:pos:R:3 unique_starting_index=14 config_type=initial n_minim_iter=4 stress="0.0031211675861651266 0.00014471987775994808 -4.27569960515276e-15 0.00014471987775994808 -0.0008341101830394172 -4.7235349894704e-15 -4.27569960515276e-15 -4.7235349894704e-15 -0.0013542476488696865" pbc="T T T"
Si       1.05127473       2.59942925       0.67047142
Si       2.92929989       3.06926376       0.67047142
Si       2.37076632       1.31006748       1.44772554
Si       1.60980831       4.35862553       1.44772554
Si       2.21202518       1.19846504       6.09155670
Si       1.76854944       4.47022798       6.09155670
Si       1.56621676       3.74334878       3.35275625
Si       2.41435786       1.92534424       3.35275625
Si      -0.18933503       4.12343089       6.32347478
Si       4.16990965       1.54526212       6.32347478
10
Lattice="5.717257855836329 0.87148324242702 2.101107575052199e-15 -1.7374554803152005 4.797699626445966 -4.1913129053896674e-14 -1.5629428251960593e-14 7.952470086382625e-14 9.752236611322457" Properties=species:S:1:pos:R:3 unique_starting_index=14 config_type=initial n_minim_iter=5 stress="3.7965779854495634e-06 4.0576289485592425e-05 -4.04572382540978e-15 4.0576289485592425e-05 -2.877172007589777e-06 -9.203962704306976e-15 -4.04572382540978e-15 -9.203962704306976e-15 0.0008305050181731325" pbc="T T T"
Si       1.05106803       2.59962469       0.67053730
Si       2.92873434       3.06955818       0.67053730
Si       2.37033100       1.31017956       1.44779317
Si       1.60947138       4.35900331       1.44779317
Si       2.21166814       1.19845613       6.09183820
Si       1.76813423       4.47072674       6.09183820
Si       1.56578912       3.74372103       3.35300824
Si       2.41401325       1.92546184       3.35300824
Si      -0.18935133       4.12396488       6.32381278
Si       4.16915371       1.54521799       6.32381278
10
Lattice="5.716380592317826 0.8725801450012726 2.0957439698485747e-15 -1.7364606319637175 4.79896528899258 -4.192463098266259e-14 -1.561516165036293e-14 7.949498696808583e-14 9.748889441520676" Properties=species:S:1:pos:R:3 unique_starting_index=14 config_type=initial n_minim_iter=6 stress="0.00073066076192857 0.00023340973282885512 -7.235667288884234e-15 0.00023340973282885512 -0.0007574752839542607 -2.2597076475384552e-15 -7.235667288884234e-15 -2.2597076475384552e-15 -5.351736494016828e-05" pbc="T T T"
Si       1.05114937       2.60076652       0.67057759
Si       2.92877059       3.07077892       0.67057759
Si       2.37078810       1.31071163       1.44746002
Si       1.60913186       4.36083380       1.44746002
Si       2.21149436       1.19898724       6.08899318
Si       1.76842560       4.47255820       6.08899318
Si       1.56531843       3.74469050       3.35228979
Si       2.41460153       1.92685494       3.35228979
Si      -0.18914189       4.12635677       6.32152993
Si       4.16906185       1.54518866       6.32152993
10
Lattice="5.70954864575721 0.8781259876125731 2.0675941362383836e-15 -1.7309515045878017 4.807002742815079 -4.199593779354457e-14 -1.5540454599694108e-14 7.935604838355053e-14 9.733283839742024" Properties=species:S:1:pos:R:3 unique_starting_index=14 config_type=initial n_minim_iter=7 stress="-0.0009553786949498866 -0.0015027419791058879 -9.949312424086426e-15 -0.0015027419791058879 0.00021121750536392948 -1.4608148701273122e-15 -9.949312424086426e-15 -1.4608148701273122e-15 -0.0007683582424377055" pbc="T T T"
Si       1.05172857       2.60766078       0.67163828
Si       2.92686856       3.07746795       0.67163828
Si       2.37145554       1.31592760       1.44522852
Si       1.60714160       4.36920113       1.44522852
Si       2.20935350       1.20330385       6.07505989
Si       1.76924364       4.48182488       6.07505989
Si       1.56202455       3.75000363       3.34941876
Si       2.41657259       1.93512510       3.34941876
Si      -0.18853931       4.13965390       6.31088216
Si       4.16713645       1.54547483       6.31088216
10
Lattice="5.709156323050804 0.87933354801923 2.0574899191336775e-15 -1.729876813569031 4.807385732769837 -4.199881683769855e-14 -1.553882500296386e-14 7.935046691082338e-14 9.732919731795883" Properties=species:S:1:pos:R:3 unique_starting_index=14 config_type=initial n_minim_iter=8 stress="-0.0021916908435420817 0.0016005443476536135 -8.709551189361744e-15 0.0016005443476536135 0.002028615613352125 2.3369201552285414e-15 -8.709551189361744e-15 2.3369201552285414e-15 -0.0027866094027095196" pbc="T T T"
Si       1.05208156       2.60825617       0.67174181
Si       2.92719795       3.07846311       0.67174181
Si       2.37161380       1.31669499       1.44535257
Si       1.60766571       4.37002429       1.44535257
Si       2.20941903       1.20401289       6.07453643
Si       1.76986048       4.48270639       6.07453643
Si       1.56230869       3.75067803       3.34931089
Si       2.41697082       1.93604125       3.34931089
Si      -0.18786912       4.14063490       6.31061808
Si       4.16714863       1.54608438       6.31061808
10
Lattice="5.70649337262105 0.8868496730458504 1.9794594122556733e-15 -1.7231408153825065 4.809903078118276 -4.199900181391912e-14 -1.5587596914372162e-14 7.949277653501304e-14 9.749022932197697" Properties=species:S:1:pos:R:3 unique_starting_index=14 config_type=initial n_minim_iter=9 stress="-0.0018871190836555582 -0.0011520475199847883 -9.386853976543903e-15 -0.0011520475199847883 0.0009173695413524452 8.157786856373625e-15 -9.386853976543903e-15 8.157786856373625e-15 -0.0005722910581792797" pbc="T T T"
Si       1.05339410       2.61264334       0.67500476
Si       2.92995846       3.08410941       0.67500476
Si       2.37422593       1.32324903       1.45125293
Si       1.60912663       4.37350372       1.45125293
Si       2.21023611       1.20991087       6.07948841
Si       1.77311644       4.48684188       6.07948841
Si       1.56084670       3.75331078       3.35478080
Si       2.42250585       1.94344197       3.35478080
Si      -0.18475053       4.15196336       6.32056844
Si       4.16810308       1.54478939       6.32056844
10
Lattice="5.704862175776373 0.8919208841110015 1.9409026237706573e-15 -1.7183549116447017 4.809687991484581 -4.1985805730158203e-14 -1.559549435125429e-14 7.958306794912634e-14 9.758836229850015" Properties=species:S:1:pos:R:3 unique_starting_index=14 config_type=initial n_minim_iter=10 stress="-0.001856786310471153 -0.0007631232793900874 -9.369480236952912e-15 -0.0007631232793900874 0.0014074803017163542 1.5618778261300266e-14 -9.369480236952912e-15 1.5618778261300266e-14 -0.00017166818785930603" pbc="T T T"
Si       1.05483825       2.61489486       0.67729425
Si       2.93166901       3.08671401       0.67729425
Si       2.37622752       1.32673128       1.45442201
Si       1.61027974       4.37487760       1.45442201
Si       2.21097947       1.21389401       6.08251746
Si       1.77552779       4.48771486       6.08251746
Si       1.56004631       3.75529416       3.35806224
Si       2.42646095       1.94631472       3.35806224
Si      -0.18253332       4.15680434       6.32679837
Si       4.16904058       1.54480454       6.32679837
10
Lattice="5.703022802213979 0.891102350056908 1.942739906848818e-15 -1.71847685526067 4.809649350305853 -4.198426618486752e-14 -1.560279358564407e-14 7.960389751414519e-14 9.761192439807457" Properties=species:S:1:pos:R:3 unique_starting_index=14 config_type=initial n_minim_iter=11 stress="-0.0011188377529932534 -0.00032179202764580887 -9.770960750762692e-15 -0.00032179202764580887 0.0004366444544857993 1.480410813079794e-14 -9.770960750762692e-15 1.480410813079794e-14 6.064203890496678e-05" pbc="T T T"
Si       1.05402883       2.61386299       0.67879823
Si       2.93051711       3.08688870       0.67879823
Si       2.37537449       1.32614436       1.45546050
Si       1.60917146       4.37460734       1.45546050
Si       2.21058058       1.21452248       6.08159085
Si       1.77396536       4.48622922       6.08159085
Si       1.55757587       3.75432138       3.35886060
Si       2.42697007       1.94643032       3.35886060
Si      -0.18464851       4.15888608       6.32870577
Si       4.16919445       1.54186561       6.32870577
10
Lattice="5.701811482981217 0.8892787449109225 1.9500567390436274e-15 -1.719777223719551 4.810554530816216 -4.1990329404038485e-14 -1.562379494829615e-14 7.966223282608968e-14 9.767949542217963" Properties=species:S:1:pos:R:3 unique_starting_index=14 config_type=initial n_minim_iter=12 stress="0.0035635740787698217 0.0012110837880949434 -9.665202384909787e-15 0.0012110837880949434 0.00013546010476529467 1.607416374298474e-14 -9.665202384909787e-15 1.607416374298474e-14 0.0011611275036323304" pbc="T T T"
Si       1.05211692       2.61292324       0.68303968
Si       2.92991734       3.08691004       0.68303968
Si       2.37475095       1.32562196       1.45825683
Si       1.60728330       4.37421132       1.45825683
Si       2.21323875       1.21526767       6.07895165
Si       1.76879550       4.48456560       6.07895165
Si       1.55247360       3.75229831       3.36106964
Si       2.42956066       1.94753496       3.36106964
Si      -0.19093909       4.16446542       6.33449164
Si       4.17297335       1.53536785       6.33449164
10
Lattice="5.709726569818934 0.874006532167883 2.0907116176396896e-15 -1.7347603950147956 4.808950670593461 -4.2003013373905053e-14 -1.561593347378184e-14 7.96523103145206e-14 9.766921847387598" Properties=species:S:1:pos:R:3 unique_starting_index=14 config_type=initial n_minim_iter=13 stress="0.0009393649304505971 0.0010908804849105072 -6.331119873293531e-15 0.0010908804849105072 0.00020261397415610572 1.168344174851529e-14 -6.331119873293531e-15 1.168344174851529e-14 -0.0008563233950373304" pbc="T T T"
Si       1.04736424       2.60445152       0.69054360
Si       2.92760193       3.07850569       0.69054360
Si       2.37158281       1.31390678       1.45742825
Si       1.60338337       4.36905042       1.45742825
Si       2.22200531       1.21142460       6.06812775
Si       1.75296087       4.47153260       6.06812775
Si       1.54734035       3.74307835       3.35884842
Si       2.42762582       1.93987885       3.35884842
Si      -0.20632496       4.16419486       6.33897648
Si       4.18129113       1.51876234       6.33897648
10
Lattice="5.709326735548174 0.8745473300022347 2.075738380515192e-15 -1.7344000458613014 4.810364025462621 -4.2008799316151947e-14 -1.5646451736944274e-14 7.972172858735095e-14 9.774929198483822" Properties=species:S:1:pos:R:3 unique_starting_index=14 config_type=initial n_minim_iter=14 stress="-6.345452301758767e-05 0.00013503287001382223 -8.307915055314612e-15 0.00013503287001382223 0.0004514624809815242 1.3027742378027813e-14 -8.307915055314612e-15 1.3027742378027813e-14 -9.49142071184417e-05" pbc="T T T"
Si       1.04798418       2.60594521       0.69312734
Si       2.92694251       3.07896615       0.69312734
Si       2.37133841       1.31414103       1.45956706
Si       1.60358828       4.37077032       1.45956706
Si       2.22259126       1.21261125       6.06955303
Si       1.75233542       4.47230010       6.06955303
Si       1.54850929       3.74442494       3.36084122
Si       2.42641740       1.94048641       3.36084122
Si      -0.20636338       4.16789177       6.34552248
Si       4.18129006       1.51701959       6.34552248
10
Lattice="5.709256313550119 0.8761543107483474 2.0580035132138285e-15 -1.7332649629569181 4.811909586518736 -4.201743647878929e-14 -1.5662151982719885e-14 7.976233712207397e-14 9.779725214431558" Properties=species:S:1:pos:R:3 unique_starting_index=14 config_type=initial n_minim_iter=15 stress="-0.0006577404880234972 -0.0005099830428204259 -7.279461954444347e-15 -0.0005099830428204259 1.9518164864250315e-05 1.0342787982933756e-14 -7.279461954444347e-15 1.0342787982933756e-14 0.00023903516935942955" pbc="T T T"
Si       1.04826436       2.60824915       0.69610168
Si       2.92772698       3.07981475       0.69610168
Si       2.37095597       1.31478541       1.46100666
Si       1.60503537       4.37327849       1.46100666
Si       2.22326175       1.21415601       6.06680762
Si       1.75272960       4.47390788       6.06680762
Si       1.55197974       3.74731452       3.36244589
Si       2.42401160       1.94074937       3.36244589
Si      -0.20500614       4.17247815       6.35104585
Si       4.18099749       1.51558575       6.35104585
10
Lattice="5.706054352927738 0.877283704897366 2.0410964362974977e-15 -1.731621503468474 4.813737064540019 -4.2028710998878086e-14 -1.567325293151879e-14 7.979605543529154e-14 9.783809141331483" Properties=species:S:1:pos:R:3 unique_starting_index=14 config_type=initial n_minim_iter=16 stress="4.930959281631851e-05 -0.00040731098059922197 -9.666332239106226e-15 -0.00040731098059922197 0.0002932644747701272 9.49701874917372e-15 -9.666332239106226e-15 9.49701874917372e-15 0.00037427004889267713" pbc="T T T"
Si       1.04715184       2.61057950       0.69931657
Si       2.92728101       3.08044127       0.69931657
Si       2.36894171       1.31513526       1.46240566
Si       1.60549114       4.37588551       1.46240566
Si       2.22209852       1.21509988       6.06191116
Si       1.75233432       4.47592089       6.06191116
Si       1.55509927       3.75072523       3.36417570
Si       2.41933357       1.94029554       3.36417570
Si      -0.20427563       4.17691918       6.35708910
Si       4.17870848       1.51410159       6.35708910
10
Lattice="5.703061830503889 0.8775700042282532 2.0378418642064553e-15 -1.7305432139344157 4.814209934657032 -4.2033463753268334e-14 -1.5666052226534828e-14 7.979220038450458e-14 9.783677686245083" Properties=species:S:1:pos:R:3 unique_starting_index=14 config_type=initial n_minim_iter=17 stress="-0.00017901688405209276 -0.00020692204884796163 -9.719670135363771e-15 -0.00020692204884796163 -4.9564444560303184e-05 1.7245144564738804e-15 -9.719670135363771e-15 1.7245144564738804e-15 0.00013735683957440389" pbc="T T T"
Si       1.04578383       2.61121714       0.70004976
Si       2.92673479       3.08056279       0.70004976
Si       2.36740414       1.31525920       1.46249761
Si       1.60511448       4.37652074       1.46249761
Si       2.22011671       1.21476732       6.05875441
Si       1.75240190       4.47701262       6.05875441
Si       1.55620930       3.75217982       3.36458802
Si       2.41630932       1.93960012       3.36458802
Si      -0.20343070       4.17726367       6.35876729
Si       4.17594931       1.51451626       6.35876729
10
Lattice="5.699242454803763 0.8764998566361024 2.0462449405274653e-15 -1.730310118035284 4.814406456506065 -4.2038956327227905e-14 -1.5656359524242452e-14 7.979173921201119e-14 9.784213962979768" Properties=species:S:1:pos:R:3 unique_starting_index=14 config_type=initial n_minim_iter=18 stress="0.0005373167427641161 0.0006097456816095284 -1.0543293100476512e-14 0.0006097456816095284 0.00021488153983945487 9.04521200845129e-16 -1.0543293100476512e-14 9.04521200845129e-16 -0.00012143596794588934" pbc="T T T"
Si       1.04360195       2.61053180       0.70092060
Si       2.92533038       3.08037451       0.70092060
Si       2.36575510       1.31484764       1.46279952
Si       1.60317723       4.37605867       1.46279952
Si       2.21733625       1.21338890       6.05551115
Si       1.75159608       4.47751741       6.05551115
Si       1.55495102       3.75209199       3.36503862
Si       2.41398132       1.93881432       3.36503862
Si      -0.20333764       4.17600348       6.36137082
Si       4.17226997       1.51490283       6.36137082
10
Lattice="5.699934002821484 0.8746429681573087 2.0690846827522344e-15 -1.731957778879502 4.813609009285802 -4.204001636701183e-14 -1.5644238182921e-14 7.978608698169906e-14 9.784213445317752" Properties=species:S:1:pos:R:3 unique_starting_index=14 config_type=initial n_minim_iter=19 stress="-0.0010057866447795386 -0.00031983222838387153 -1.0777577807616905e-14 -0.00031983222838387153 -0.0008953223342491511 7.094843531124224e-16 -1.0777577807616905e-14 7.094843531124224e-16 -0.0003382826890447158" pbc="T T T"
Si       1.04338600       2.60828895       0.69985203
Si       2.92459022       3.07996303       0.69985203
Si       2.36673395       1.31426013       1.46250656
Si       1.60124227       4.37399185       1.46250656
Si       2.21536419       1.21056083       6.05662721
Si       1.75261204       4.47769115       6.05662721
Si       1.55240582       3.74975751       3.36464069
Si       2.41557040       1.93849447       3.36464069
Si      -0.20123607       4.17032139       6.36201325
Si       4.16921229       1.51793058       6.36201325
10
Lattice="5.7004419864395235 0.8734964921641375 2.078463830474962e-15 -1.7331087056656276 4.813832460925668 -4.204421227092985e-14 -1.565118454749616e-14 7.98140015276759e-14 9.787820516012845" Properties=species:S:1:pos:R:3 unique_starting_index=14 config_type=initial n_minim_iter=20 stress="0.0002787361395206671 0.00010647002205823065 -1.1513767900045448e-14 0.00010647002205823065 0.00036788640913123415 9.961430636089896e-15 -1.1513767900045448e-14 9.961430636089896e-15 2.8231223684277208e-05" pbc="T T T"
Si       1.04318412       2.60760610       0.70152875
Si       2.92414916       3.07972285       0.70152875
Si       2.36688346       1.31361599       1.46362168
Si       1.60044982       4.37371296       1.46362168
Si       2.21560331       1.21002789       6.05582140
Si       1.75172997       4.47730106       6.05582140
Si       1.55114063       3.74881020       3.36551327
Si       2.41619265       1.93851875       3.36551327
Si      -0.20159794       4.17037415       6.36577053
Si       4.16893122       1.51695480       6.36577053
10
Lattice="5.700542291312685 0.8733916343994399 2.083042352535137e-15 -1.7332405115476504 4.813919674781283 -4.2048133547369065e-14 -1.5645778822285565e-14 7.981652281127045e-14 9.788582353713544" Properties=species:S:1:pos:R:3 unique_starting_index=14 config_type=initial n_minim_iter=21 stress="0.00012581201613609254 5.115864180415127e-05 -9.708721672171846e-15 5.115864180415127e-05 0.0001482038110006929 4.099796214475738e-15 -9.708721672171846e-15 4.099796214475738e-15 4.370973800680269e-05" pbc="T T T"
Si       1.04321775       2.60771045       0.70199441
Si       2.92408403       3.07960086       0.70199441
Si       2.36674432       1.31346376       1.46393930
Si       1.60055746       4.37384755       1.46393930
Si       2.21557067       1.20992102       6.05525644
Si       1.75173110       4.47739029       6.05525644
Si       1.55128584       3.74886063       3.36580147
Si       2.41601593       1.93845068       3.36580147
Si      -0.20133432       4.17045903       6.36666134
Si       4.16863610       1.51685228       6.36666134
