6
Lattice="4.399691924912911 -2.686406031749614e-16 5.608100439190002e-13 2.540195546411606e-16 4.1602340456148506 6.864419501796657e-14 -9.321114617377104e-13 -1.2049521802390815e-13 7.312642339049303" Properties=species:S:1:pos:R:3 unique_starting_index=12 config_type=initial n_minim_iter=9 energy=-975.5269856087613 free_energy=-975.5269856087613 pbc="T T T"
Si       1.40955665       2.08011702       5.76143012
Si       1.40955665       2.08011702       1.55121222
Si       1.40955665       1.08034002       3.65632117
Si       1.40955665       3.07989402       3.65632117
Si       0.40771629      -0.00000000       0.00000000
Si       2.41139701      -0.00000000       0.00000000
