10
Lattice="7.164663957229093 1.330916462399743 4.67816351047215e-15 -1.4046992387956714 7.15056419441368 -3.3781029665801417e-15 -2.8799823592167155 -4.240740328406707 5.4913485045804675" Properties=species:S:1:pos:R:3 unique_starting_index=26 config_type=initial n_minim_iter=16 energy=-1638.060129048192 free_energy=-1638.060129048192 pbc="T T T"
Si       3.35203423       7.01847559       0.78540915
Si       2.40792991       1.46300422       0.78540915
Si       2.40794508       1.46302655       4.70593935
Si      -2.40794565      -1.46302739       4.70593935
Si       5.63519942       5.46785684       1.06027858
Si       0.12476473       3.01362297       1.06027858
Si       0.12471501       3.01354975       4.43106993
Si      -0.12471558      -3.01355060       4.43106993
Si       4.40164065       0.10904663       2.74567425
Si       2.76302274       1.22186899       2.74567425
