20
Lattice="5.3650130837031575 -2.981770441145113e-16 -6.970553157234633e-14 2.830245743962591e-16 5.092379090252129 5.055390273080271e-14 2.651419412546201e-13 -2.025890350692325e-13 20.407131999174414" Properties=species:S:1:pos:R:3 unique_starting_index=4 config_type=initial n_minim_iter=1 energy=-3269.6782249323423 free_energy=-3269.6782249323423 pbc="T T T"
Si       2.30059910       2.78219712      13.12655995
Si       2.30059910       2.31018197       7.28057205
Si       1.70667932       1.06530842      12.28632132
Si       1.70667932       4.02707067       8.12081068
Si       3.06441398       0.23600758      17.48413805
Si       3.06441398       4.85637151       2.92299395
Si       3.65833377       3.61149797      18.32437668
Si       3.65833377       1.48088112       2.08275532
Si       2.65268917       5.05577379       4.87185528
Si       2.65268917       0.03660530      15.53527671
Si       2.38975218       3.58092150      16.77767440
Si       2.38975218       1.51145759       3.62945760
Si       2.71232392       2.50958424       5.33171071
Si       2.71232392       2.58279485      15.07542128
Si       2.97526090       1.03473196      13.83302360
Si       2.97526090       4.05764713       6.57410840
Si       4.77958465       2.37012818      19.42283496
Si       4.77958465       2.72225091       0.98429704
Si       0.58542844       5.26844046       9.21926896
Si       0.58542844      -0.17606137      11.18786304
20
Lattice="5.365058411334845 -2.981795633365558e-16 -6.970612049666254e-14 2.8302940269169655e-16 5.092465964371722 5.056580677056777e-14 2.6514247874079097e-13 -2.0254533779364608e-13 20.407173367775655" Properties=species:S:1:pos:R:3 unique_starting_index=4 config_type=initial n_minim_iter=2 stress="-3.7032940006581614e-05 3.91668014439225e-15 1.0454038362977866e-17 3.91668014439225e-15 0.00015511142338302174 1.156575067117797e-14 1.0454038362977866e-17 1.156575067117797e-14 0.00036279110010063894" pbc="T T T"
Si       2.30061768       2.78224661      13.12658661
Si       2.30061768       2.31021935       7.28058676
Si       1.70669285       1.06532675      12.28634648
Si       1.70669285       4.02713922       8.12082689
Si       3.06444073       0.23601363      17.48417344
Si       3.06444073       4.85645234       2.92299993
Si       3.65836556       3.61155973      18.32441357
Si       3.65836556       1.48090624       2.08275979
Si       2.65271334       5.05585781       4.87186867
Si       2.65271334       0.03660815      15.53530469
Si       2.38977206       3.58098019      16.77770597
Si       2.38977206       1.51148578       3.62946740
Si       2.71234507       2.50962483       5.33171801
Si       2.71234507       2.58284114      15.07545536
Si       2.97528635       1.03474721      13.83305409
Si       2.97528635       4.05771876       6.57411928
Si       4.77962573       2.37016756      19.42287426
Si       4.77962573       2.72229841       0.98429911
Si       0.58543268       5.26853139       9.21928757
Si       0.58543268      -0.17606543      11.18788579
20
Lattice="5.365104650057938 -2.981821331952986e-16 -6.970672125843525e-14 2.830310578054892e-16 5.092495744354235 5.051797799777749e-14 2.651380739704407e-13 -2.027341559232552e-13 20.406834346609998" Properties=species:S:1:pos:R:3 unique_starting_index=4 config_type=initial n_minim_iter=3 stress="-5.367922320927554e-05 2.9259422754772115e-15 4.3158345500675846e-15 2.9259422754772115e-15 0.0001688851429347906 1.2762317430235841e-14 4.3158345500675846e-15 1.2762317430235841e-14 -0.0002830810227039142" pbc="T T T"
Si       2.30063581       2.78226475      13.12636894
Si       2.30063581       2.31023100       7.28046541
Si       1.70670584       1.06533373      12.28614337
Si       1.70670584       4.02716201       8.12069098
Si       3.06446884       0.23601687      17.48388258
Si       3.06446884       4.85647887       2.92295177
Si       3.65839881       3.61158161      18.32410815
Si       3.65839881       1.48091414       2.08272620
Si       2.65273988       5.05588352       4.87179430
Si       2.65273988       0.03661222      15.53504005
Si       2.38979315       3.58099816      16.77742196
Si       2.38979315       1.51149758       3.62941239
Si       2.71236477       2.50963565       5.33162287
Si       2.71236477       2.58286009      15.07521147
Si       2.97531150       1.03475029      13.83282956
Si       2.97531150       4.05774545       6.57400479
Si       4.77966776       2.37017998      19.42255120
Si       4.77966776       2.72231576       0.98428315
Si       0.58543689       5.26856363       9.21913403
Si       0.58543689      -0.17606789      11.18770032
20
Lattice="5.365194621572857 -2.981871336379734e-16 -6.970789022338951e-14 2.830277464792974e-16 5.092436164622356 5.0519330455371797e-14 2.6513897047942446e-13 -2.0272703887830504e-13 20.40690334805536" Properties=species:S:1:pos:R:3 unique_starting_index=4 config_type=initial n_minim_iter=4 stress="7.929692582975763e-05 3.796584110488625e-15 -4.201501310220018e-17 3.796584110488625e-15 -1.0704322761462452e-05 1.1973083994417986e-14 -4.201501310220018e-17 1.1973083994417986e-14 -9.74841125682659e-05" pbc="T T T"
Si       2.30066979       2.78223392      13.12641279
Si       2.30066979       2.31020224       7.28049055
Si       1.70672936       1.06532401      12.28618730
Si       1.70672936       4.02711215       8.12071604
Si       3.06452483       0.23601584      17.48394223
Si       3.06452483       4.85642032       2.92296112
Si       3.65846526       3.61154209      18.32416772
Si       3.65846526       1.48089407       2.08273563
Si       2.65279297       5.05581734       4.87182571
Si       2.65279297       0.03661882      15.53507764
Si       2.38983449       3.58095344      16.77746783
Si       2.38983449       1.51148272       3.62943552
Si       2.71240165       2.50959926       5.33162597
Si       2.71240165       2.58283691      15.07527738
Si       2.97536014       1.03473536      13.83288719
Si       2.97536014       4.05770081       6.57401615
Si       4.77974951       2.37014832      19.42261064
Si       4.77974951       2.72228784       0.98429271
Si       0.58544511       5.26850593       9.21915897
Si       0.58544511      -0.17606976      11.18774438
20
Lattice="5.365062483658976 -2.9817978966845028e-16 -6.970617340678823e-14 2.830293153379137e-16 5.092464392640469 5.051965286545357e-14 2.651393317285528e-13 -2.027271465244766e-13 20.406931152251907" Properties=species:S:1:pos:R:3 unique_starting_index=4 config_type=initial n_minim_iter=5 stress="-0.00010333451075541913 3.4949742763333135e-15 7.192360959121505e-15 3.4949742763333135e-15 3.5326770080854946e-05 1.3899051618839716e-14 7.192360959121505e-15 1.3899051618839716e-14 -9.227527466176685e-05" pbc="T T T"
Si       2.30060234       2.78225505      13.12643681
Si       2.30060234       2.31020934       7.28049434
Si       1.70667778       1.06533197      12.28621830
Si       1.70667778       4.02713243       8.12071285
Si       3.06446014       0.23602285      17.48395992
Si       3.06446014       4.85644154       2.92297123
Si       3.65838470       3.61156416      18.32417843
Si       3.65838470       1.48090023       2.08275272
Si       2.65274965       5.05583805       4.87184887
Si       2.65274965       0.03662635      15.53508228
Si       2.38978544       3.58098139      16.77748993
Si       2.38978544       1.51148301       3.62944122
Si       2.71231284       2.50960585       5.33161671
Si       2.71231284       2.58285854      15.07531445
Si       2.97527704       1.03474919      13.83290679
Si       2.97527704       4.05771520       6.57402436
Si       4.77963429       2.37015364      19.42262355
Si       4.77963429       2.72231075       0.98430760
Si       0.58542819       5.26854295       9.21915797
Si       0.58542819      -0.17607856      11.18777318
20
Lattice="5.365185184372745 -2.981866091366551e-16 -6.970776760951323e-14 2.830324050650117e-16 5.092519985204126 5.0520252121366623e-14 2.651397712667521e-13 -2.0272729384334326e-13 20.406964982109272" Properties=species:S:1:pos:R:3 unique_starting_index=4 config_type=initial n_minim_iter=6 stress="9.22012780521491e-05 2.2040565815856424e-15 9.715849384939004e-15 2.2040565815856424e-15 1.4016955996156576e-05 9.601156405356989e-15 9.715849384939004e-15 9.601156405356989e-15 -5.9821453946132585e-05" pbc="T T T"
Si       2.30057049       2.78232835      13.12652637
Si       2.30057049       2.31019163       7.28043862
Si       1.70661834       1.06536892      12.28632953
Si       1.70661834       4.02715106       8.12063545
Si       3.06461469       0.23606836      17.48392111
Si       3.06461469       4.85645162       2.92304388
Si       3.65856684       3.61162892      18.32411794
Si       3.65856684       1.48089107       2.08284704
Si       2.65298109       5.05588939       4.87190036
Si       2.65298109       0.03663059      15.53506463
Si       2.38988962       3.58114609      16.77751328
Si       2.38988962       1.51137390       3.62945170
Si       2.71220409       2.50962940       5.33158213
Si       2.71220409       2.58289059      15.07538285
Si       2.97529556       1.03488609      13.83293419
Si       2.97529556       4.05763389       6.57403079
Si       4.77977050       2.37012516      19.42264527
Si       4.77977050       2.72239483       0.98431971
Si       0.58541468       5.26865482       9.21916278
Si       0.58541468      -0.17613484      11.18780220
20
Lattice="5.3646549744333365 -2.9815714109435446e-16 -6.970087879766976e-14 2.8303836702839426e-16 5.0926272570823015 5.0523418373242626e-14 2.6514974055338273e-13 -2.027264875990229e-13 20.407732286396353" Properties=species:S:1:pos:R:3 unique_starting_index=4 config_type=initial n_minim_iter=7 stress="-2.0237016321947235e-05 -1.116708444861127e-15 1.4137672283924804e-14 -1.116708444861127e-15 -2.7807309073148283e-05 -2.3013194538623476e-15 1.4137672283924804e-14 -2.3013194538623476e-15 0.00013331136391692134" pbc="T T T"
Si       2.30002000       2.78255669      13.12715004
Si       2.30002000       2.31007057       7.28058225
Si       1.70602378       1.06542842      12.28697311
Si       1.70602378       4.02719884       8.12075917
Si       3.06463498       0.23624306      17.48444839
Si       3.06463498       4.85638419       2.92328390
Si       3.65863119       3.61174205      18.32462532
Si       3.65863119       1.48088521       2.08310697
Si       2.65325571       5.05598190       4.87223624
Si       2.65325571       0.03664535      15.53549604
Si       2.38972775       3.58154745      16.77812945
Si       2.38972775       1.51107981       3.62960283
Si       2.71139927       2.50966828       5.33162990
Si       2.71139927       2.58295898      15.07610239
Si       2.97492723       1.03523382      13.83346898
Si       2.97492723       4.05739344       6.57426331
Si       4.77930360       2.37012178      19.42343318
Si       4.77930360       2.72250547       0.98429911
Si       0.58535137       5.26881910       9.21956703
Si       0.58535137      -0.17619184      11.18816525
20
Lattice="5.363898240870506 -2.9811508330746224e-16 -6.969104685235434e-14 2.830434137686171e-16 5.092718061615573 5.0532095056533346e-14 2.651683080284492e-13 -2.0270950136007084e-13 20.409161365902914" Properties=species:S:1:pos:R:3 unique_starting_index=4 config_type=initial n_minim_iter=8 stress="-0.00010466460131796179 -3.91555782433311e-15 8.331550324447485e-15 -3.91555782433311e-15 -0.0001152779725401929 -2.198089117100515e-15 8.331550324447485e-15 -2.198089117100515e-15 0.0005194631637052292" pbc="T T T"
Si       2.29901785       2.78285279      13.12820801
Si       2.29901785       2.30986527       7.28095336
Si       1.70508242       1.06568067      12.28826527
Si       1.70508242       4.02703739       8.12089609
Si       3.06488039       0.23649376      17.48553404
Si       3.06488039       4.85622430       2.92362733
Si       3.65881582       3.61203971      18.32547677
Si       3.65881582       1.48067836       2.08368459
Si       2.65386319       5.05602436       4.87281551
Si       2.65386319       0.03669370      15.53634586
Si       2.38948618       3.58208746      16.77937216
Si       2.38948618       1.51063060       3.62978920
Si       2.71003505       2.50966533       5.33176518
Si       2.71003505       2.58305273      15.07739619
Si       2.97441206       1.03572843      13.83436989
Si       2.97441206       4.05698963       6.57479148
Si       4.77864434       2.37007194      19.42495019
Si       4.77864434       2.72264612       0.98421117
Si       0.58525390       5.26900515       9.22036951
Si       0.58525390      -0.17628709      11.18879185
20
Lattice="5.3620617339323315 -2.9801301380608745e-16 -6.966718583088728e-14 2.8307656310827515e-16 5.093314508070752 5.054424642969193e-14 2.6519938920022267e-13 -2.0270828276712696e-13 20.411553584848242" Properties=species:S:1:pos:R:3 unique_starting_index=4 config_type=initial n_minim_iter=9 stress="1.0884278136530617e-05 -6.908856370145223e-15 2.092015251752074e-14 -6.908856370145223e-15 -0.00017536930703228307 -1.2440522143589547e-14 2.092015251752074e-14 -1.2440522143589547e-14 0.002073073775404641" pbc="T T T"
Si       2.29454277       2.78457402      13.13062872
Si       2.29454277       2.30874049       7.28092486
Si       1.70065675       1.06706121      12.29183318
Si       1.70065675       4.02625330       8.11972040
Si       3.06751896       0.23791677      17.48670166
Si       3.06751896       4.85539774       2.92485193
Si       3.66140499       3.61371847      18.32549719
Si       3.66140499       1.47959604       2.08605639
Si       2.65818122       5.05639871       4.87406813
Si       2.65818122       0.03691580      15.53748546
Si       2.38896369       3.58472646      16.78171545
Si       2.38896369       1.50858804       3.62983814
Si       2.70388051       2.50974146       5.33170866
Si       2.70388051       2.58357305      15.07984492
Si       2.97309804       1.03806921      13.83561493
Si       2.97309804       4.05524530       6.57593866
Si       4.77690750       2.36997397      19.42730489
Si       4.77690750       2.72334054       0.98424870
Si       0.58515423       5.26999779       9.22152809
Si       0.58515423      -0.17668328      11.19002549
20
Lattice="5.363957264739344 -2.9811836373986126e-16 -6.969181372656125e-14 2.8304093025678787e-16 5.092673376507435 5.054366088601969e-14 2.6519381492574015e-13 -2.0268085331944426e-13 20.41112455066895" Properties=species:S:1:pos:R:3 unique_starting_index=4 config_type=initial n_minim_iter=10 stress="0.00031027458657465336 -1.4668381647928282e-14 2.8090678137029485e-14 -1.4668381647928282e-14 -0.00016110364250971902 -2.8244995170920664e-14 2.8090678137029485e-14 -2.8244995170920664e-14 0.0022245280488999595" pbc="T T T"
Si       2.29371199       2.78508981      13.13062835
Si       2.29371199       2.30758357       7.28049620
Si       1.69959191       1.06725235      12.29257217
Si       1.69959191       4.02542102       8.11855238
Si       3.07024527       0.23875312      17.48605848
Si       3.07024527       4.85392026       2.92506607
Si       3.66436535       3.61358904      18.32411466
Si       3.66436535       1.47908434       2.08700989
Si       2.66140830       5.05567945       4.87439960
Si       2.66140830       0.03699393      15.53672495
Si       2.39015688       3.58521194      16.78191823
Si       2.39015688       1.50746144       3.62920632
Si       2.70254897       2.50934276       5.33116267
Si       2.70254897       2.58333062      15.07996188
Si       2.97380038       1.03887525      13.83476860
Si       2.97380038       4.05379812       6.57635595
Si       4.77849307       2.36962992      19.42689122
Si       4.77849307       2.72304346       0.98423333
Si       0.58546419       5.26938014       9.22132894
Si       0.58546419      -0.17670677      11.18979561
20
Lattice="5.363739759134569 -2.9810627519929334e-16 -6.96889877607035e-14 2.830272950766665e-16 5.092428042665698 5.05424230808731e-14 2.651933771477892e-13 -2.0267571590640999e-13 20.411090856292308" Properties=species:S:1:pos:R:3 unique_starting_index=4 config_type=initial n_minim_iter=11 stress="0.00020247825734797986 -1.560037297939466e-14 4.03583481035038e-14 -1.560037297939466e-14 -9.803130127965034e-05 -3.1150364361089716e-14 4.03583481035038e-14 -3.1150364361089716e-14 0.0016686628649724875" pbc="T T T"
Si       2.29330099       2.78524882      13.13063586
Si       2.29330099       2.30717922       7.28045499
Si       1.69923994       1.06729784      12.29271188
Si       1.69923994       4.02513020       8.11837897
Si       3.07043877       0.23903480      17.48600042
Si       3.07043877       4.85339324       2.92509043
Si       3.66449982       3.61351186      18.32392440
Si       3.66449982       1.47891618       2.08716645
Si       2.66165646       5.05546505       4.87443174
Si       2.66165646       0.03696299      15.53665912
Si       2.39013381       3.58517524      16.78191851
Si       2.39013381       1.50725280       3.62917234
Si       2.70208330       2.50925103       5.33111369
Si       2.70208330       2.58317701      15.07997716
Si       2.97360595       1.03896122      13.83471777
Si       2.97360595       4.05346682       6.57637308
Si       4.77837909       2.36945432      19.42687425
Si       4.77837909       2.72297372       0.98421661
Si       0.58536067       5.26918774       9.22132882
Si       0.58536067      -0.17675970      11.18976204
20
Lattice="5.363271411444561 -2.9808024534109074e-16 -6.96829027010432e-14 2.8299163988294003e-16 5.091786509104949 5.054176010131285e-14 2.651969801140178e-13 -2.0265559744096648e-13 20.411368165144577" Properties=species:S:1:pos:R:3 unique_starting_index=4 config_type=initial n_minim_iter=12 stress="-1.0550036006482564e-05 -1.3760110268097375e-14 5.122870031454462e-14 -1.3760110268097375e-14 2.8709340248310113e-05 -3.406834799040289e-14 5.122870031454462e-14 -3.406834799040289e-14 -5.2602766445872625e-05" pbc="T T T"
Si       2.29255014       2.78536036      13.13106700
Si       2.29255014       2.30642615       7.28030117
Si       1.69844203       1.06740949      12.29304649
Si       1.69844203       4.02437702       8.11832167
Si       3.07072128       0.23946711      17.48598525
Si       3.07072128       4.85231940       2.92538292
Si       3.66482938       3.61330274      18.32400576
Si       3.66482938       1.47848377       2.08736241
Si       2.66213108       5.05465807       4.87458553
Si       2.66213108       0.03712844      15.53678263
Si       2.39006191       3.58493744      16.78235398
Si       2.39006191       1.50684907       3.62901418
Si       2.70114033       2.50876481       5.33109855
Si       2.70114033       2.58302170      15.08026961
Si       2.97320950       1.03904419      13.83469827
Si       2.97320950       4.05274232       6.57666990
Si       4.77822636       2.36901737      19.42722052
Si       4.77822636       2.72276914       0.98414765
Si       0.58504506       5.26866239       9.22153644
Si       0.58504506      -0.17687588      11.18983173
20
Lattice="5.363433977971398 -2.9808928047403205e-16 -6.968501486479604e-14 2.830559181221407e-16 5.092943048822255 5.0557142750242275e-14 2.651299328332818e-13 -2.0258874088772317e-13 20.406207749173834" Properties=species:S:1:pos:R:3 unique_starting_index=4 config_type=initial n_minim_iter=13 stress="-0.000258841619377337 -1.6047878082271634e-14 5.979839537182964e-14 -1.6047878082271634e-14 0.0001469392589597248 -3.429983352264654e-14 5.979839537182964e-14 -3.429983352264654e-14 -0.002268088483697456" pbc="T T T"
Si       2.29159211       2.78632551      13.12762103
Si       2.29159211       2.30661754       7.27858672
Si       1.69728296       1.06834426      12.28978765
Si       1.69728296       4.02459879       8.11642010
Si       3.07184187       0.23985398      17.48169060
Si       3.07184187       4.85308907       2.92451715
Si       3.66615101       3.61481579      18.31952397
Si       3.66615101       1.47812726       2.08668378
Si       2.66288121       5.05562165       4.87354930
Si       2.66288121       0.03732140      15.53265845
Si       2.39079154       3.58648558      16.77842911
Si       2.39079154       1.50645747       3.62777864
Si       2.70055277       2.50915012       5.32955457
Si       2.70055277       2.58379292      15.07665318
Si       2.97264244       1.04001405      13.83088252
Si       2.97264244       4.05292900       6.57532523
Si       4.77906278       2.36958523      19.42210949
Si       4.77906278       2.72335782       0.98409826
Si       0.58437120       5.26982935       9.21900562
Si       0.58437120      -0.17688630      11.18720213
20
Lattice="5.362993988476786 -2.980648267094467e-16 -6.967929825215593e-14 2.8301621259546775e-16 5.092228638795392 5.0542800635858587e-14 2.6503616904245117e-13 -2.0254615341336764e-13 20.398991048386403" Properties=species:S:1:pos:R:3 unique_starting_index=4 config_type=initial n_minim_iter=14 stress="-7.642302149167556e-06 -8.125367765048992e-15 6.588779141160805e-14 -8.125367765048992e-15 -0.00018876611091053617 -3.150681276910147e-14 6.588779141160805e-14 -3.150681276910147e-14 0.0004983931234704459" pbc="T T T"
Si       2.28714433       2.78853286      13.12300194
Si       2.28714433       2.30369578       7.27598911
Si       1.69205201       1.07107543      12.28465000
Si       1.69205201       4.02115320       8.11434105
Si       3.07584966       0.24241854      17.47548464
Si       3.07584966       4.84981010       2.92350641
Si       3.67094198       3.61718975      18.31383657
Si       3.67094198       1.47503888       2.08515448
Si       2.66495697       5.05368966       4.87215837
Si       2.66495697       0.03853898      15.52683268
Si       2.39379289       3.58803635      16.77413489
Si       2.39379289       1.50419229       3.62485616
Si       2.69803702       2.50757534       5.32733715
Si       2.69803702       2.58465330      15.07165389
Si       2.96920110       1.04192203      13.82435168
Si       2.96920110       4.05030661       6.57463937
Si       4.78271579       2.36938691      19.41478761
Si       4.78271579       2.72284173       0.98420344
Si       0.58027820       5.26895605       9.21529209
Si       0.58027820      -0.17672741      11.18369896
20
Lattice="5.363872922724563 -2.9811367617390914e-16 -6.969071790351601e-14 2.829975115429121e-16 5.091892156180049 5.0525663643756295e-14 2.650770987903057e-13 -2.026326995698783e-13 20.402141280911685" Properties=species:S:1:pos:R:3 unique_starting_index=4 config_type=initial n_minim_iter=15 stress="0.00013619068101646355 -5.5146677542792814e-15 5.847976556639735e-14 -5.5146677542792814e-15 0.0003016343985524972 -3.4993339825318834e-14 5.847976556639735e-14 -3.4993339825318834e-14 -0.00020300562649100022" pbc="T T T"
Si       2.28600166       2.78882519      13.12502278
Si       2.28600166       2.30306696       7.27711850
Si       1.69037740       1.07184784      12.28601281
Si       1.69037740       4.02004432       8.11612847
Si       3.07787126       0.24287911      17.47818914
Si       3.07787126       4.84901304       2.92395214
Si       3.67349552       3.61779392      18.31719911
Si       3.67349552       1.47409824       2.08494217
Si       2.66402118       5.05213144       4.87196719
Si       2.66402118       0.03976072      15.53017409
Si       2.39733403       3.58750072      16.77672015
Si       2.39733403       1.50439144       3.62542113
Si       2.69985175       2.50618536       5.32910345
Si       2.69985175       2.58570680      15.07303783
Si       2.96653889       1.04155464      13.82649177
Si       2.96653889       4.05033752       6.57564951
Si       4.78700727       2.37113768      19.41761002
Si       4.78700727       2.72075448       0.98453126
Si       0.57686565       5.26670055       9.21653938
Si       0.57686565      -0.17480840      11.18560190
20
Lattice="5.363526842253629 -2.9809444169111496e-16 -6.968622141435246e-14 2.8299863104667245e-16 5.091912299086554 5.052457028122401e-14 2.651320596381067e-13 -2.02679857665438e-13 20.406371442577377" Properties=species:S:1:pos:R:3 unique_starting_index=4 config_type=initial n_minim_iter=16 stress="0.0001055405837521753 -3.3530180421689677e-15 5.752513174386846e-14 -3.3530180421689677e-15 0.0003865922533070937 -2.9712901407695573e-14 5.752513174386846e-14 -2.9712901407695573e-14 8.64720576641653e-05" pbc="T T T"
Si       2.28280861       2.78988202      13.12817931
Si       2.28280861       2.30203028       7.27819213
Si       1.68677847       1.07291981      12.28945387
Si       1.68677847       4.01899249       8.11691757
Si       3.08071823       0.24392587      17.48137785
Si       3.08071823       4.84798643       2.92499359
Si       3.67674837       3.61887596      18.32010329
Si       3.67674837       1.47303634       2.08626815
Si       2.66565274       5.05114131       4.87275189
Si       2.66565274       0.04077099      15.53361955
Si       2.39971951       3.58858410      16.78036296
Si       2.39971951       1.50332820       3.62600848
Si       2.69787410       2.50518516       5.33043383
Si       2.69787410       2.58672714      15.07593761
Si       2.96380734       1.04262795      13.82919420
Si       2.96380734       4.04928435       6.57717724
Si       4.78929735       2.37233255      19.42163816
Si       4.78929735       2.71957975       0.98473328
Si       0.57422949       5.26553590       9.21845244
Si       0.57422949      -0.17362360      11.18791900
20
Lattice="5.363238382014565 -2.9807840962929394e-16 -6.968247356248561e-14 2.829966352831793e-16 5.091876389892792 5.052418218470736e-14 2.65155986129002e-13 -2.0269825623460417e-13 20.40821298848923" Properties=species:S:1:pos:R:3 unique_starting_index=4 config_type=initial n_minim_iter=17 stress="9.077108139792181e-06 -2.5380712786539177e-15 5.979059273234902e-14 -2.5380712786539177e-15 4.157844490761679e-05 -2.6709211127120212e-14 5.979059273234902e-14 -2.6709211127120212e-14 5.061058826908927e-05" pbc="T T T"
Si       2.28083659       2.79045003      13.12958901
Si       2.28083659       2.30142636       7.27862398
Si       1.68457113       1.07337753      12.29128963
Si       1.68457113       4.01849886       8.11692336
Si       3.08240180       0.24451183      17.48273048
Si       3.08240180       4.84736456       2.92548251
Si       3.67866725       3.61931573      18.32102985
Si       3.67866725       1.47256066       2.08718313
Si       2.66692796       5.05058350       4.87316975
Si       2.66692796       0.04129289      15.53504324
Si       2.40078973       3.58930721      16.78200007
Si       2.40078973       1.50256918       3.62621292
Si       2.69631042       2.50464531       5.33093675
Si       2.69631042       2.58723108      15.07727624
Si       2.96244866       1.04336901      13.83031941
Si       2.96244866       4.04850738       6.57789357
Si       4.79039774       2.37277354      19.42339940
Si       4.79039774       2.71910285       0.98481358
Si       0.57284064       5.26504105       9.21929291
Si       0.57284064      -0.17316466      11.18892008
