63
Lattice="10.989396633524017 0.0 0.0 0.0 10.989396633524017 0.0 0.0 0.0 10.989396633524017" Properties=species:S:1:pos:R:3:forces:R:3 cutoff=-1.0 nneightol=1.2 vacancies=0 relax_radial_0=0.13 relax_symm_break_0=0.01 bulk_struct_test=bulk_Si_diamond supercell_a1_in_bulk_lattice_coords="2 2 -2" n_minim_iter=0 energy=-10276.41660521269 stress="0.012663624268537262 6.890165240709566e-07 -4.154053975291217e-05 6.890165240709566e-07 0.012667020197650597 -8.35951172373368e-05 -4.154053975291217e-05 -8.35951172373368e-05 0.012668163949566583" free_energy=-10276.41660521269 pbc="T T T"
Si       2.71979059       2.71979287       0.01614506      -0.00140376      -0.00161156      -0.00315811
Si       2.72041790       0.01555399       2.72043112      -0.00180930      -0.00197378      -0.00216520
Si       0.01499000       2.72099180       2.72100171      -0.00079443      -0.00235504      -0.00249807
Si       1.29710994       1.29833500       1.29966283      -0.00026875      -0.00155174      -0.00299632
Si       4.11862206       4.11852486       1.37268683      -0.00136951      -0.00121019      -0.00283237
Si       4.11834784       1.37346611       4.11813913      -0.00117821      -0.00338859      -0.00092188
Si       1.37423393       4.11794273       4.11783125      -0.00398765      -0.00086296      -0.00076685
Si       0.00049525       0.00024809       5.49470070       0.00156184       0.00077541       0.00001585
Si       2.74516167       2.74474477       5.49853652      -0.00051709      -0.00098378      -0.00005377
Si       2.71789743      -0.01596874       8.27147470      -0.00037326       0.00309166       0.00081133
Si      -0.01580541       2.71593249       8.27344149       0.00300318       0.00049340      -0.00026725
Si       1.37111916       1.37089372       6.88051653       0.00252891       0.00313028      -0.00528814
Si       4.12014623       4.11944249       6.87065345       0.00048376       0.00109161      -0.00169136
Si       4.10928484       1.37057772       9.61903664       0.00537760       0.00331621      -0.00386322
Si       1.37095019       4.10906511       9.61888867       0.00264997       0.00532343      -0.00379332
Si       0.00049567       5.49490286      -0.00000194       0.00156063       0.00063859      -0.00000646
Si       2.71857547       8.27076293      -0.01534561      -0.00082992       0.00142124       0.00189461
Si       2.74572562       5.49818991       2.74486724      -0.00104744       0.00039845      -0.00186333
Si      -0.01495951       8.27462494       2.71472681       0.00167442      -0.00063900       0.00087139
Si       1.37160282       6.87993261       1.37113198       0.00180168      -0.00404999       0.00300424
Si       4.11000558       9.61897965       1.37063645       0.00428686      -0.00382473       0.00330117
Si       4.12055760       6.87098904       4.11911967       0.00007667      -0.00192763       0.00132361
Si       1.37141332       9.61867349       4.10960902       0.00195270      -0.00367581       0.00408738
Si       0.00093454       5.49619808       5.49470255       0.00205727      -0.00121415       0.00004554
Si       2.74544310       8.24527387       5.49173669      -0.00071392       0.00194056      -0.00021301
Si       2.74489238       5.49141235       8.24535984      -0.00018859       0.00021323       0.00112202
Si       0.01420922       8.26959469       8.26962496       0.00042225       0.00209240       0.00195864
Si       1.37423843       6.87308141       6.87295155      -0.00428984      -0.00013589      -0.00005513
Si       4.11750384       9.61752660       6.87211104      -0.00081465       0.00246552       0.00044244
Si       4.11725733       6.87248762       9.61672326      -0.00061185       0.00015370       0.00304127
Si       1.29223783       9.69319757       9.69463747       0.00230200       0.00195688       0.00037647
Si       5.49510993       0.00024844      -0.00000242       0.00127472       0.00077429      -0.00000512
Si       8.27194697       2.71733364      -0.01452998       0.00100342      -0.00046956       0.00061708
Si       8.27384213      -0.01430690       2.71544924       0.00002368       0.00048386       0.00036815
Si       5.49782087       2.74587764       2.74543612       0.00090868      -0.00201280      -0.00236142
Si       6.87932382       1.37186805       1.37162235      -0.00287195       0.00168822       0.00228736
Si       9.61877683       4.11050177       1.37106889      -0.00375311       0.00319948       0.00271665
Si       9.61861965       1.37147296       4.11032417      -0.00367248       0.00203418       0.00305075
Si       6.87132818       4.12025526       4.11952144      -0.00220833       0.00033032       0.00097157
Si       5.49770771       0.00046704       5.49470277      -0.00243318       0.00103258       0.00004631
Si       8.24549063       2.74529372       5.49263803       0.00246620      -0.00139674      -0.00063615
Si       8.27134972       0.01395735       8.27144332       0.00134928       0.00052573       0.00103969
Si       5.49199865       2.74420552       8.24562998       0.00030442      -0.00033620       0.00079907
Si       6.87431740       1.37345800       6.87403963      -0.00086749      -0.00397182      -0.00064190
Si       9.61837714       4.11624006       6.87327893       0.00211025      -0.00009063      -0.00011874
Si       9.69656971       1.28853917       9.69956276       0.00105162       0.00361957      -0.00222620
Si       6.87403057       4.11576550       9.61673532      -0.00072660       0.00029455       0.00332164
Si       5.49770793       5.49619869       0.00001936      -0.00243518      -0.00121682      -0.00008464
Si       8.27319325       8.27325628       0.01370176       0.00042538       0.00024957       0.00067376
Si       8.24578014       5.49322141       2.74456202       0.00216423      -0.00059777      -0.00144439
Si       5.49290550       8.24583476       2.74402352      -0.00007717       0.00131132      -0.00090418
Si       6.87543148       6.87528385       1.37264836      -0.00146484      -0.00131709      -0.00366897
Si       9.70141341       9.70296665       1.28502298      -0.00153252      -0.00323086       0.00476202
Si       9.61840660       6.87479658       4.11474027       0.00236847      -0.00099635       0.00079113
Si       6.87517169       9.61756853       4.11451191      -0.00131654       0.00300172       0.00097080
Si       5.49534178       5.49502175       5.49468726      -0.00065559      -0.00033600       0.00007778
Si       8.24524149       8.24475814       5.49585182       0.00266863       0.00236129       0.00114849
Si       8.24494116       5.49641510       8.24399286       0.00296119       0.00119626       0.00235751
Si       5.49694435       8.24415318       8.24368843       0.00130451       0.00295279       0.00265813
Si       6.87093940       6.87019774       6.86945185      -0.00189299      -0.00126198      -0.00060998
Si       9.61833999       9.61811077       6.87838231      -0.00314858      -0.00263239      -0.00212721
Si       9.61816346       6.87852131       9.61768503      -0.00302930      -0.00196222      -0.00193966
Si       6.87862620       9.61772654       9.61747772      -0.00184037      -0.00232422      -0.00175153
