4
Lattice="3.713271066890223 0.0 0.0 0.0 3.713271066890223 0.0 0.0 0.0 3.713271066890223" Properties=species:S:1:pos:R:3 n_minim_iter=1 stress="-0.13570220303628563 -1.8103353887629787e-18 -2.918067422902292e-18 -1.8103353887629787e-18 -0.13570220303628577 2.710505431213762e-18 -2.918067422902292e-18 2.710505431213762e-18 -0.1357022030362857" pbc="T T T"
Al       0.00000000       0.00000000       0.00000000
Al       1.85663553       1.85663553       0.00000000
Al       1.85663553       0.00000000       1.85663553
Al       0.00000000       1.85663553       1.85663553
