4
Lattice="4.129120461825467 0.0 0.0 0.0 4.129120461825467 0.0 0.0 0.0 4.129120461825467" Properties=species:S:1:pos:R:3 n_minim_iter=1 stress="0.03942396342630793 5.665707275112357e-19 -1.6968319691292913e-17 5.665707275112357e-19 0.03942396342630793 6.801520860960652e-18 -1.6968319691292913e-17 6.801520860960652e-18 0.03942396342630801" pbc="T T T"
Al       0.00000000       0.00000000       0.00000000
Al       2.06456023       2.06456023       0.00000000
Al       2.06456023       0.00000000       2.06456023
Al       0.00000000       2.06456023       2.06456023
