10
Lattice="4.5045199999999985 5.23776317547883e-31 7.022053829075839e-48 -2.2522599999999993 5.382791424257629 -1.3538285596031932e-47 5.552249569978363e-32 -1.3269605361111794e-31 7.90849" Properties=species:S:1:pos:R:3:forces:R:3 unique_starting_index=448 config_type=initial n_minim_iter=1 energy=-1556.1393176077315 stress="-1.0272159700540027 -0.846538351860721 -0.522894828704323 -1.9002549324427907e-12 -2.4390349783351163e-12 4.22250697042415e-13" pbc="T T T"
Si       0.79999938       1.96089224       0.82831547      11.09474266     -12.52535306     -12.83593968
Si       1.45226108       3.42190026       0.82831547     -11.09474266      12.52535306     -12.83593968
Si      -0.79999892       1.96089224       0.82831547     -11.09474266     -12.52535306     -12.83593968
Si       3.05225938       3.42190026       0.82831547      11.09474266      12.52535306     -12.83593968
Si      -0.79999937       1.96089224       2.42831688       2.72461044     -13.29627484       6.46864037
Si       3.05225983       3.42190026       2.42831688      -2.72461044      13.29627484       6.46864037
Si       0.79999983       1.96089224       2.42831688      -2.72461044     -13.29627484       6.46864037
Si       1.45226063       3.42190026       2.42831688       2.72461044      13.29627484       6.46864037
Si       2.25226023       1.90272311       3.13969742       0.00000000      -2.90257209      12.73459861
Si       0.00000023       3.48006939       3.13969742       0.00000000       2.90257209      12.73459861
10
Lattice="4.594127467832355 -4.074781896844725e-18 -2.749555446276994e-33 -2.2970637339161777 5.47088282797167 -2.4482810567201918e-33 5.179965697247491e-32 -1.4048457827341686e-31 7.988186028041919" Properties=species:S:1:pos:R:3:forces:R:3 unique_starting_index=448 config_type=initial n_minim_iter=2 energy=-1563.5203980789963 stress="-0.8686808037562191 -0.7277246965381399 -0.45523902232249713 3.617032358466363e-14 1.5625716925145738e-13 8.846843324643056e-13" pbc="T T T"
Si       0.81704514       1.99170994       0.83536610       8.52333852     -10.58768576     -11.72694070
Si       1.48001905       3.47917398       0.83536610      -8.52333852      10.58768576     -11.72694070
Si      -0.81704468       1.99170994       0.83536610      -8.52333852     -10.58768575     -11.72694070
Si       3.11410887       3.47917398       0.83536610       8.52333852      10.58768576     -11.72694070
Si      -0.81563571       1.99163159       2.45344108       3.00406602     -10.94692569       6.33883307
Si       3.11269991       3.47925233       2.45344108      -3.00406602      10.94692569       6.33883307
Si       0.81563617       1.99163159       2.45344108      -3.00406602     -10.94692569       6.33883307
Si       1.48142802       3.47925233       2.45344108       3.00406602      10.94692569       6.33883307
Si       2.29706396       1.93356688       3.17262331      -0.00000000      -2.17304001      10.77621525
Si       0.00000023       3.53731704       3.17262331      -0.00000000       2.17304001      10.77621525
10
Lattice="5.387175694538644 1.660054114648748e-16 -2.6914127865006824e-32 -2.693587847269322 6.251634854306256 -2.3728111695546935e-32 1.9129304525147203e-32 -2.087712463787108e-31 8.68342418649943" Properties=species:S:1:pos:R:3:forces:R:3 unique_starting_index=448 config_type=initial n_minim_iter=3 energy=-1601.8624950231383 stress="-0.20360462615378078 -0.11667419871481219 -0.22931777895419972 5.704109531816769e-13 4.096205992253215e-13 3.9909591437255333e-13" pbc="T T T"
Si       0.96757744       2.26453664       0.89619596       2.28263696      -4.28299328      -8.62913023
Si       1.72601095       3.98709946       0.89619596      -2.28263696       4.28299328      -8.62913023
Si      -0.96757690       2.26453664       0.89619596      -2.28263696      -4.28299328      -8.62913023
Si       3.66116528       3.98709946       0.89619596       2.28263696       4.28299328      -8.62913023
Si      -0.95308697       2.26405993       2.67339090       3.16806600      -4.52368275       6.81025628
Si       3.64667536       3.98757618       2.67339090      -3.16806600       4.52368275       6.81025628
Si       0.95308751       2.26405993       2.67339090      -3.16806600      -4.52368275       6.81025628
Si       1.74050087       3.98757618       2.67339090       3.16806600       4.52368275       6.81025628
Si       2.69358812       2.20716500       3.45965927      -0.00000000       0.72989134       3.63774791
Si       0.00000027       4.04447110       3.45965927      -0.00000000      -0.72989134       3.63774791
10
Lattice="5.836050006873682 7.90581640324922e-16 -5.748265988117759e-32 -2.91802500343684 6.545025663304014 -7.026085382978745e-32 -2.8803110467724565e-32 -3.0531317336626754e-31 9.50251228369436" Properties=species:S:1:pos:R:3:forces:R:3 unique_starting_index=448 config_type=initial n_minim_iter=4 energy=-1612.4302051343038 stress="-0.10439698980326895 -0.04678423242608115 -0.11509797577739589 9.29127010713265e-13 5.16594386575445e-13 -1.534310990866961e-12" pbc="T T T"
Si       1.05295261       2.36268225       0.96543025      -0.03759039      -3.56970194      -4.75889763
Si       1.86507298       4.18234472       0.96543025       0.03759039       3.56970194      -4.75889763
Si      -1.05295203       2.36268225       0.96543025       0.03759039      -3.56970194      -4.75889763
Si       3.97097761       4.18234472       0.96543025      -0.03759039       3.56970194      -4.75889763
Si      -1.02590280       2.36172631       2.93764243       1.67392396      -3.72063361       3.52040454
Si       3.94392838       4.18330066       2.93764243      -1.67392396       3.72063361       3.52040454
Si       1.02590338       2.36172631       2.93764243      -1.67392396      -3.72063361       3.52040454
Si       1.89212221       4.18330066       2.93764243       1.67392396       3.72063361       3.52040454
Si       2.91802529       2.31213324       3.79245198      -0.00000000       0.35543669       2.47698618
Si       0.00000029       4.23289373       3.79245198       0.00000000      -0.35543669       2.47698618
10
Lattice="6.635244807722468 7.349570644458865e-16 -1.030569235474095e-31 -3.317622403861233 6.932496065587318 -1.4244329263403538e-31 -9.794632016856834e-32 -4.4434114690373045e-31 10.946862994177625" Properties=species:S:1:pos:R:3:forces:R:3 unique_starting_index=448 config_type=initial n_minim_iter=5 energy=-1620.6504523346055 stress="-0.014001743008387208 -0.02083695008940703 -0.008069268184481369 -6.63485835191689e-13 -1.6587829947085802e-12 -4.267598421498202e-13" pbc="T T T"
Si       1.19690207       2.48362144       1.08536493      -1.50518801      -1.72381625      -0.31044045
Si       2.12072100       4.44887601       1.08536493       1.50518801       1.72381625      -0.31044045
Si      -1.19690140       2.48362144       1.08536493       1.50518801      -1.72381625      -0.31044045
Si       4.51452447       4.44887601       1.08536493      -1.50518801       1.72381625      -0.31044045
Si      -1.15557107       2.48180838       3.40398539       0.10748024      -2.05849183       0.00803603
Si       4.47319414       4.45068907       3.40398539      -0.10748024       2.05849183       0.00803603
Si       1.15557173       2.48180838       3.40398539      -0.10748024      -2.05849183       0.00803603
Si       2.16205133       4.45068907       3.40398539       0.10748024       2.05849183       0.00803603
Si       3.31762274       2.45089846       4.38284547       0.00000000       0.30373325       0.60480883
Si       0.00000033       4.48159900       4.38284547       0.00000000      -0.30373325       0.60480884
10
Lattice="6.824318639385153 4.917485183533717e-16 -1.1879995528000153e-31 -3.412159319692576 7.228509830153893 -1.613971906432073e-31 -1.2574010941549706e-31 -4.993798338223965e-31 11.125561789505454" Properties=species:S:1:pos:R:3:forces:R:3 unique_starting_index=448 config_type=initial n_minim_iter=6 energy=-1621.2065362388587 stress="0.013030556703980498 -0.005963248015049449 -0.0009716354091573048 -4.134497619252755e-13 4.695416771919453e-13 -7.313570122238002e-13" pbc="T T T"
Si       1.21762225       2.57778966       1.10067361      -1.19618435      -0.52102000      -0.06161335
Si       2.19453775       4.65072162       1.10067361       1.19618435       0.52102000      -0.06161335
Si      -1.21762157       2.57778966       1.10067361       1.19618435      -0.52102000      -0.06161335
Si       4.62978157       4.65072162       1.10067361      -1.19618435       0.52102000      -0.06161335
Si      -1.18754366       2.57359250       3.45961509      -0.00256127      -0.71918201       0.07364876
Si       4.59970366       4.65491878       3.45961509       0.00256127       0.71918201       0.07364876
Si       1.18754434       2.57359250       3.45961509       0.00256127      -0.71918201       0.07364876
Si       2.22461566       4.65491878       3.45961509      -0.00256127       0.71918201       0.07364876
Si       3.41215966       2.55764389       4.45908528      -0.00000000       0.89012467      -0.02407081
Si       0.00000034       4.67086739       4.45908528      -0.00000000      -0.89012467      -0.02407081
10
Lattice="6.674451283086778 7.392373236519513e-16 -1.277254088680353e-31 -3.3372256415433887 7.302340684759754 -1.691068126198787e-31 -1.3700053311729234e-31 -5.227304317769256e-31 11.14399846454406" Properties=species:S:1:pos:R:3:forces:R:3 unique_starting_index=448 config_type=initial n_minim_iter=7 energy=-1621.3598322811752 stress="-0.002699182563278678 -0.005278905549221529 -0.0013969028779502804 -1.7618568926067752e-12 3.948322520247977e-13 -5.402404873635939e-13" pbc="T T T"
Si       1.18254467       2.60117154       1.10211834      -0.63644165      -0.41010588      -0.01180698
Si       2.15468164       4.70117061       1.10211834       0.63644165       0.41010587      -0.01180698
Si      -1.18254400       2.60117154       1.10211834       0.63644165      -0.41010588      -0.01180698
Si       4.51977031       4.70117061       1.10211834      -0.63644165       0.41010588      -0.01180698
Si      -1.16148213       2.59581056       3.46580150      -0.26364742      -0.70454878      -0.14988166
Si       4.49870844       4.70653158       3.46580150       0.26364742       0.70454877      -0.14988166
Si       1.16148280       2.59581056       3.46580150       0.26364742      -0.70454878      -0.14988166
Si       2.17574351       4.70653158       3.46580150      -0.26364742       0.70454878      -0.14988166
Si       3.33722597       2.58880243       4.46632647      -0.00000000       0.86101248       0.32337727
Si       0.00000033       4.71353971       4.46632647       0.00000000      -0.86101248       0.32337727
10
Lattice="6.701332733011865 4.501745248888942e-16 -1.325649593794284e-31 -3.3506663665059326 7.359970317206203 -1.7649115162292899e-31 -1.4571833796991856e-31 -5.4137831841286015e-31 11.167203957540965" Properties=species:S:1:pos:R:3:forces:R:3 unique_starting_index=448 config_type=initial n_minim_iter=8 energy=-1621.4102121837423 stress="0.001518058019797168 -0.0024286265166007493 -0.0005967976331623262 -8.589310743156541e-13 6.130196281540231e-13 1.9991990685453498e-13" pbc="T T T"
Si       1.18346101       2.61961422       1.10434891      -0.58019727      -0.24195939       0.01576143
Si       2.16720602       4.74035757       1.10434891       0.58019727       0.24195939       0.01576143
Si      -1.18346034       2.61961422       1.10434891       0.58019727      -0.24195939       0.01576143
Si       4.53412738       4.74035757       1.10434891      -0.58019727       0.24195939       0.01576143
Si      -1.16775338       2.61271354       3.47220081      -0.22630160      -0.52334757      -0.13464189
Si       4.51842042       4.74725825       3.47220081       0.22630160       0.52334757      -0.13464189
Si       1.16775405       2.61271354       3.47220081       0.22630160      -0.52334757      -0.13464189
Si       2.18291298       4.74725825       3.47220081      -0.22630160       0.52334757      -0.13464189
Si       3.35066670       2.61361181       4.47739093      -0.00000000       0.90157636       0.23776091
Si       0.00000033       4.74635998       4.47739093       0.00000000      -0.90157636       0.23776091
10
Lattice="6.683176493903524 6.767990220248839e-16 -1.3583005100656365e-31 -3.341588246951762 7.3919846877843165 -1.804009912895848e-31 -1.5051869997218589e-31 -5.5200951182222445e-31 11.179121000334101" Properties=species:S:1:pos:R:3:forces:R:3 unique_starting_index=448 config_type=initial n_minim_iter=9 energy=-1621.4448439461307 stress="-1.1074479192864186e-05 -0.001370217325048 -0.0005295998267600659 4.971035589168169e-13 -5.035652343441076e-13 1.8110302219330248e-13" pbc="T T T"
Si       1.17609927       2.62953484       1.10562949      -0.42506787      -0.16905226       0.02824584
Si       2.16548965       4.76245133       1.10562949       0.42506787       0.16905226       0.02824584
Si      -1.17609860       2.62953484       1.10562949       0.42506787      -0.16905226       0.02824584
Si       4.51768752       4.76245133       1.10562949      -0.42506787       0.16905226       0.02824584
Si      -1.16621029       2.62088974       3.47503413      -0.24606876      -0.46039816      -0.16708781
Si       4.50779921       4.77109642       3.47503413       0.24606877       0.46039816      -0.16708781
Si       1.16621096       2.62088974       3.47503413       0.24606876      -0.46039816      -0.16708781
Si       2.17537795       4.77109642       3.47503413      -0.24606877       0.46039816      -0.16708781
Si       3.34158858       2.63047347       4.48370885      -0.00000000       0.91238153       0.27768394
Si       0.00000033       4.76151270       4.48370885       0.00000000      -0.91238153       0.27768394
10
Lattice="6.68342208539818 1.4904066637312802e-15 -1.3800726921244259e-31 -3.3417110426990893 7.425669743777732 -1.8271087379889499e-31 -1.5378813530370402e-31 -5.593446788881293e-31 11.198783387419498" Properties=species:S:1:pos:R:3:forces:R:3 unique_starting_index=448 config_type=initial n_minim_iter=10 energy=-1621.4895808277372 stress="0.000788742442191852 0.00023373226898179165 -0.00022083586860863707 -1.817361999069913e-12 7.025758229868492e-14 2.81984966783407e-12" pbc="T T T"
Si       1.17052049       2.63959335       1.10791382      -0.28960233      -0.07092266       0.04470421
Si       2.17119122       4.78607788       1.10791382       0.28960233       0.07092267       0.04470421
Si      -1.17051982       2.63959335       1.10791382       0.28960233      -0.07092267       0.04470421
Si       4.51223153       4.78607788       1.10791382      -0.28960233       0.07092266       0.04470421
Si      -1.16950768       2.62759268       3.47913672      -0.21181388      -0.35926914      -0.17926628
Si       4.51121939       4.79807855       3.47913672       0.21181388       0.35926914      -0.17926628
Si       1.16950835       2.62759268       3.47913672       0.21181388      -0.35926914      -0.17926628
Si       2.17220336       4.79807855       3.47913672      -0.21181388       0.35926914      -0.17926628
Si       3.34171138       2.65284544       4.49493458      -0.00000000       0.94055137       0.26912413
Si       0.00000033       4.77282579       4.49493458      -0.00000000      -0.94055137       0.26912413
10
Lattice="6.661742775605455 1.0879034899980988e-15 -1.3968162775402834e-31 -3.330871387802727 7.418523761613221 -1.8546773122833946e-31 -1.5566078432734872e-31 -5.634231325957337e-31 11.208975276336465" Properties=species:S:1:pos:R:3:forces:R:3 unique_starting_index=448 config_type=initial n_minim_iter=11 energy=-1621.533387739841 stress="-0.0015115907515672064 0.0002527759524592902 -0.0005410719032476278 -2.6840641291298823e-12 3.508523421805019e-13 3.504757709698154e-13" pbc="T T T"
Si       1.16201382       2.63605379       1.10958711      -0.13569105      -0.06890939       0.03929345
Si       2.16885824       4.78247145       1.10958711       0.13569105       0.06890939       0.03929345
Si      -1.16201315       2.63605379       1.10958711       0.13569105      -0.06890939       0.03929345
Si       4.49288520       4.78247145       1.10958711      -0.13569105       0.06890939       0.03929345
Si      -1.16915883       2.62000151       3.47963643      -0.20209481      -0.35858253      -0.20351125
Si       4.50003088       4.79852374       3.47963643       0.20209481       0.35858253      -0.20351125
Si       1.16915950       2.62000151       3.47963643       0.20209481      -0.35858253      -0.20351125
Si       2.16171256       4.79852374       3.47963643      -0.20209481       0.35858253      -0.20351125
Si       3.33087172       2.66354605       4.50302863       0.00000000       0.95542244       0.32843561
Si       0.00000033       4.75497920       4.50302863      -0.00000000      -0.95542244       0.32843561
10
Lattice="6.679392085408721 1.6463983815891317e-15 -1.4088554961667037e-31 -3.3396960427043596 7.415242142678984 -1.89226406335127e-31 -1.581032667813723e-31 -5.689716667613452e-31 11.219596083912387" Properties=species:S:1:pos:R:3:forces:R:3 unique_starting_index=448 config_type=initial n_minim_iter=12 energy=-1621.55223396121 stress="0.0007777521492373934 0.0007195544766141815 -0.00021749009245483606 -2.9208116336470103e-13 1.4330308282721137e-12 1.2747417509295415e-12" pbc="T T T"
Si       1.16415216       2.63447432       1.11088812      -0.17078213      -0.04870774       0.04764236
Si       2.17554455       4.78076930       1.11088812       0.17078213       0.04870774       0.04764236
Si      -1.16415149       2.63447432       1.11088812       0.17078213      -0.04870774       0.04764236
Si       4.50384820       4.78076930       1.11088812      -0.17078213       0.04870774       0.04764236
Si      -1.17365671       2.61669136       3.48164046      -0.15938717      -0.32383783      -0.18694097
Si       4.51335342       4.79855227       3.48164046       0.15938717       0.32383783      -0.18694097
Si       1.17365738       2.61669136       3.48164046       0.15938717      -0.32383783      -0.18694097
Si       2.16603933       4.79855227       3.48164046      -0.15938717       0.32383783      -0.18694097
Si       3.33969638       2.66809951       4.50938210      -0.00000000       0.97259873       0.27859722
Si       0.00000033       4.74714412       4.50938210      -0.00000000      -0.97259873       0.27859722
10
Lattice="6.672945330937149 2.0461516262292646e-15 -1.42483535290186e-31 -3.3364726654685732 7.4086204704827185 -1.9305108263905479e-31 -1.6057887883411747e-31 -5.749380685520263e-31 11.222626121240909" Properties=species:S:1:pos:R:3:forces:R:3 unique_starting_index=448 config_type=initial n_minim_iter=13 energy=-1621.565117684229 stress="7.66529152173552e-05 0.0005782318061533462 -0.00032581208569381156 -8.675285648695062e-13 7.199681966162975e-14 4.4554292930515334e-13" pbc="T T T"
Si       1.16219038       2.63191545       1.11140243      -0.13839693      -0.05793768       0.04529740
Si       2.17428295       4.77670650       1.11140243       0.13839693       0.05793768       0.04529740
Si      -1.16218972       2.63191545       1.11140243       0.13839693      -0.05793768       0.04529740
Si       4.49866305       4.77670650       1.11140243      -0.13839693       0.05793768       0.04529740
Si      -1.17330618       2.61298285       3.48173988      -0.16214616      -0.33153680      -0.19339920
Si       4.50977951       4.79563911       3.48173988       0.16214616       0.33153680      -0.19339920
Si       1.17330685       2.61298285       3.48173988       0.16214616      -0.33153680      -0.19339920
Si       2.16316648       4.79563911       3.48173988      -0.16214616       0.33153680      -0.19339920
Si       3.33647300       2.66983711       4.51185306       0.00000000       0.97469971       0.29620359
Si       0.00000033       4.73878484       4.51185306      -0.00000000      -0.97469971       0.29620359
10
Lattice="6.672277150047353 1.4087524610465504e-15 -1.44314067848802e-31 -3.336138575023676 7.403026182036656 -1.9767506239568197e-31 -1.6362188489624145e-31 -5.822526117434074e-31 11.227403873925631" Properties=species:S:1:pos:R:3:forces:R:3 unique_starting_index=448 config_type=initial n_minim_iter=14 energy=-1621.5784421307562 stress="9.981620512025426e-05 0.0005750873514678786 -0.00032920741414576947 5.633727598945619e-13 -2.638111146885329e-13 -2.6547806795510174e-13" pbc="T T T"
Si       1.16135895       2.62966984       1.11209045      -0.12469780      -0.06045445       0.04552378
Si       2.17478029       4.77335782       1.11209045       0.12469780       0.06045445       0.04552378
Si      -1.16135829       2.62966984       1.11209045       0.12469780      -0.06045445       0.04552378
Si       4.49749753       4.77335782       1.11209045      -0.12469780       0.06045445       0.04552378
Si      -1.17402646       2.60953208       3.48230474      -0.15610131      -0.32922005      -0.19418071
Si       4.51016570       4.79349558       3.48230474       0.15610131       0.32922005      -0.19418071
Si       1.17402713       2.60953208       3.48230474       0.15610131      -0.32922005      -0.19418071
Si       2.16211212       4.79349558       3.48230474      -0.15610131       0.32922005      -0.19418071
Si       3.33613891       2.67216543       4.51517893      -0.00000000       0.97932386       0.29731386
Si       0.00000033       4.73086223       4.51517893       0.00000000      -0.97932386       0.29731386
10
Lattice="6.667340266056333 2.1447010080233683e-15 -1.4690705507479574e-31 -3.3336701330281655 7.37152289241745 -2.055799171612691e-31 -1.6713395090052282e-31 -5.910192378566755e-31 11.254845994954724" Properties=species:S:1:pos:R:3:forces:R:3 unique_starting_index=448 config_type=initial n_minim_iter=15 energy=-1621.653312438508 stress="0.00015715162667621568 0.000496782118003708 -0.0003595935304751247 -2.3786198065868955e-12 -6.820781433040553e-13 -1.9330080004887823e-12" pbc="T T T"
Si       1.15684401       2.61695689       1.11603847      -0.04950950      -0.07620538       0.04637924
Si       2.17682679       4.75456747       1.11603847       0.04950950       0.07620538       0.04637924
Si      -1.15684334       2.61695689       1.11603847       0.04950950      -0.07620538       0.04637924
Si       4.49051414       4.75456747       1.11603847      -0.04950950       0.07620538       0.04637924
Si      -1.17773406       2.59013619       3.48557040      -0.13076785      -0.31666319      -0.19859501
Si       4.51140486       4.78138818       3.48557040       0.13076785       0.31666319      -0.19859501
Si       1.17773473       2.59013619       3.48557040       0.13076785      -0.31666319      -0.19859501
Si       2.15593607       4.78138818       3.48557040      -0.13076785       0.31666320      -0.19859501
Si       3.33367047       2.68545757       4.53424695      -0.00000000       0.99388309       0.30443155
Si       0.00000033       4.68606680       4.53424695       0.00000000      -0.99388309       0.30443155
10
Lattice="6.6551863791020756 2.2163941853929416e-15 -1.5174039568991771e-31 -3.327593189551036 7.329128232418959 -2.191012553996088e-31 -1.7363258319483938e-31 -6.072769351867308e-31 11.301932683825871" Properties=species:S:1:pos:R:3:forces:R:3 unique_starting_index=448 config_type=initial n_minim_iter=16 energy=-1621.7674140552415 stress="0.0003491933146698575 0.0002256002025754606 -0.000399023812410552 3.548603918006413e-13 -7.951067376978825e-13 -1.761579466372378e-12" pbc="T T T"
Si       1.15246274       2.59892398       1.12268741       0.02143398      -0.10475747       0.04800485
Si       2.17513111       4.73020572       1.12268741      -0.02143398       0.10475747       0.04800485
Si      -1.15246208       2.59892398       1.12268741      -0.02143398      -0.10475747       0.04800485
Si       4.48005593       4.73020572       1.12268741       0.02143398       0.10475747       0.04800485
Si      -1.18158932       2.56284678       3.49167549      -0.13667239      -0.29136578      -0.20501720
Si       4.50918318       4.76628291       3.49167549       0.13667239       0.29136578      -0.20501720
Si       1.18158999       2.56284678       3.49167549       0.13667239      -0.29136578      -0.20501720
Si       2.14600386       4.76628291       3.49167549      -0.13667239       0.29136578      -0.20501720
Si       3.32759352       2.70891049       4.56621207      -0.00000000       0.97049419       0.31402469
Si       0.00000033       4.62021921       4.56621207       0.00000000      -0.97049419       0.31402469
10
Lattice="6.603162359017347 1.683485096069446e-15 -1.6155073324696965e-31 -3.301581179508672 7.292062543408698 -2.409727469867656e-31 -1.8521772269892445e-31 -6.3645100599508615e-31 11.403740486556323" Properties=species:S:1:pos:R:3:forces:R:3 unique_starting_index=448 config_type=initial n_minim_iter=17 energy=-1621.9693205319838 stress="-0.0007165110683098189 -0.00020442704318324683 -0.0006316197841448023 -3.2627030858684537e-13 -3.1171385692963277e-13 3.7298563120404307e-13" pbc="T T T"
Si       1.14534636       2.57790291       1.13683344       0.15960560      -0.13196748       0.04833676
Si       2.15623548       4.71416109       1.13683344      -0.15960559       0.13196748       0.04833676
Si      -1.14534570       2.57790291       1.13683344      -0.15960560      -0.13196748       0.04833676
Si       4.44692754       4.71416109       1.13683344       0.15960559       0.13196748       0.04833676
Si      -1.18442010       2.52797570       3.50590510      -0.20202546      -0.21298839      -0.22675036
Si       4.48600194       4.76408830       3.50590510       0.20202546       0.21298839      -0.22675036
Si       1.18442076       2.52797570       3.50590510       0.20202546      -0.21298839      -0.22675036
Si       2.11716108       4.76408830       3.50590510      -0.20202546       0.21298839      -0.22675036
Si       3.30158151       2.76818937       4.63372556       0.00000000       0.79975314       0.35682720
Si       0.00000033       4.52387463       4.63372556       0.00000000      -0.79975314       0.35682720
10
Lattice="6.696407298356521 9.45506908906689e-16 -1.739856798485958e-31 -3.34820364917826 7.321294619582316 -2.7392797276085447e-31 -2.0636767061070527e-31 -6.883306000104348e-31 11.54557825435654" Properties=species:S:1:pos:R:3:forces:R:3 unique_starting_index=448 config_type=initial n_minim_iter=18 energy=-1621.9968350676147 stress="0.017419712802058205 0.0034136858021043314 0.0026666613996696948 -2.4416265416250415e-12 8.133507020405898e-13 3.0585129802033107e-15" pbc="T T T"
Si       1.17391653       2.57957062       1.15459983      -0.28022591       0.02752405       0.14106737
Si       2.17428779       4.74172547       1.15459983       0.28022590      -0.02752405       0.14106737
Si      -1.17391586       2.57957062       1.15459983       0.28022591       0.02752405       0.14106737
Si       4.52212018       4.74172547       1.15459983      -0.28022590      -0.02752405       0.14106737
Si      -1.21683676       2.52412252       3.53249814       0.04178522       0.13282253      -0.10571587
Si       4.56504108       4.79717357       3.53249814      -0.04178522      -0.13282253      -0.10571587
Si       1.21683743       2.52412252       3.53249814      -0.04178522       0.13282253      -0.10571587
Si       2.13136689       4.79717357       3.53249814       0.04178522      -0.13282253      -0.10571587
Si       3.34820398       2.83180716       4.71813137      -0.00000000       0.72958992      -0.07070300
Si       0.00000033       4.48948893       4.71813137       0.00000000      -0.72958992      -0.07070300
10
Lattice="6.544153717015989 1.0222877172658924e-15 -1.9429728624362349e-31 -3.272076858507994 7.288371393751342 -3.1223388032762354e-31 -2.3526322281140807e-31 -7.579752866129836e-31 11.505000450218002" Properties=species:S:1:pos:R:3:forces:R:3 unique_starting_index=448 config_type=initial n_minim_iter=19 energy=-1622.117062014222 stress="-0.0007897493570293108 -0.0007189096953482662 -0.0011589671055098202 -1.5086627064464303e-12 -5.4380392850359457e-14 -2.287965602285088e-13" pbc="T T T"
Si       1.14581399       2.56808874       1.15124072       0.15370926      -0.15501161       0.02499753
Si       2.12626352       4.72028411       1.15124072      -0.15370926       0.15501161       0.02499753
Si      -1.14581334       2.56808874       1.15124072      -0.15370926      -0.15501161       0.02499753
Si       4.41789085       4.72028411       1.15124072       0.15370926       0.15501161       0.02499753
Si      -1.18895953       2.51334231       3.51955921      -0.18214329      -0.16113502      -0.20965321
Si       4.46103704       4.77503054       3.51955921       0.18214329       0.16113502      -0.20965321
Si       1.18896018       2.51334231       3.51955921       0.18214329      -0.16113502      -0.20965321
Si       2.08311733       4.77503054       3.51955921      -0.18214329       0.16113502      -0.20965321
Si       3.27207719       2.82220682       4.70119889      -0.00000000       0.60926496       0.36931136
Si       0.00000033       4.46616604       4.70119889       0.00000000      -0.60926496       0.36931136
