18
Lattice="5.203240203506996 1.3188617657635033 0.14011393961848745 4.172585495737182 8.648825614796536 -1.9152846073564156 2.4675856911941216 -0.35518065951687916 11.844506251055495" Properties=species:S:1:pos:R:3:forces:R:3 unique_starting_index=194 config_type=initial n_minim_iter=1 energy=-2924.639372209463 stress="0.00043249669720263096 4.161033307231919e-05 0.001236727874590528 4.161033307231919e-05 0.00448912694534448 -0.0011941883640845836 0.001236727874590528 -0.0011941883640845836 0.00035451700106440214" free_energy=-2924.639372209463 pbc="T T T"
Si       5.86059652       1.33115981       1.43018031      -0.30785060      -0.05406625      -0.11360786
Si       6.94086575       5.82510546      11.65603756      -0.44024367      -0.09599691       0.10818649
Si       5.14647168       3.36710376       2.78496358      -0.20865378       0.18267886       0.31584861
Si       3.40634992       2.17833433       9.64247494       0.18262905       0.12043053       0.71294264
Si       8.04631420       7.74474904       6.05458046       0.45017355      -0.68184837       0.24956332
Si       7.67429148       8.71275184       2.00588267      -0.21711216      -0.23788878       0.02723417
Si       3.91620801       2.36715606       0.44099944       0.52618337      -0.31040888      -0.01812679
Si       2.27516811       1.78412612       5.50683813      -0.42961429      -0.13239743      -0.20846990
Si       5.24476672       5.98980541       2.02532815       0.39150539      -0.00489821       0.58278514
Si       5.10485341       8.45285484       1.83521406      -0.11272012      -0.35301060      -0.26192451
Si       2.56809747       1.12314763       1.93402679       0.18681794       0.36782187      -0.44897057
Si       5.67998523       4.77251315       5.49082291      -0.24824090       0.28954081      -0.19921717
Si       7.22722173       4.47785218       3.43812300      -0.32814448       0.41608826       0.07999283
Si       3.31896000       4.36927469       1.54023334      -0.44394713       0.42450284      -0.28431707
Si       6.73035373       6.93273047       4.18945076      -0.06361912      -0.06439304       0.16979717
Si       9.46256186       8.46279426       4.26674838       0.39894186      -0.01692635       0.03032065
Si       5.85783874       2.12687675       7.11493470       0.20596460      -0.17831411      -0.36267960
Si       4.46415576       2.41928881       5.09835269       0.45793049       0.32908575      -0.37935757
18
Lattice="5.1949086218128375 1.2988125063293439 0.1235133869302096 4.173243708361449 8.51043082648193 -1.8958236311003354 2.4146291688626103 -0.302799894983643 11.818808492124063" Properties=species:S:1:pos:R:3:forces:R:3 unique_starting_index=194 config_type=initial n_minim_iter=2 energy=-2924.680515893927 stress="-0.0048379899943060255 0.000704456362887909 -9.627945725151499e-05 0.000704456362887909 -0.004369337216889923 5.105909841598347e-05 -9.627945725151499e-05 5.105909841598347e-05 -0.005836006513843518" free_energy=-2924.680515893927 pbc="T T T"
Si       5.84364593       1.31559271       1.40852838      -0.29017574      -0.16294195      -0.13190491
Si       6.87802145       5.78239594      11.63744217      -0.38576231      -0.11348371       0.06381676
Si       5.12532523       3.32817992       2.77603063      -0.23408812       0.19824669       0.27071492
Si       3.36217784       2.18455151       9.63088468       0.23039137       0.24098403       0.55386739
Si       8.01155693       7.64629714       6.04666916       0.48402024      -0.70685541       0.21752981
Si       7.65188390       8.58683120       2.00656063      -0.16570412      -0.34467854       0.10712898
Si       3.91223725       2.33045868       0.43344992       0.47737296      -0.25273020      -0.11995171
Si       2.24544236       1.77801371       5.49644752      -0.34955818      -0.15480401      -0.19128297
Si       5.23070300       5.90700602       2.02933379       0.40840397      -0.12682475       0.55791708
Si       5.08770904       8.32968993       1.84362389      -0.08505863      -0.26681643      -0.24200485
Si       2.55753244       1.11628875       1.92219677       0.21199681       0.29973703      -0.46802395
Si       5.64628731       4.72396288       5.47827796      -0.31399452       0.36900640      -0.09056430
Si       7.19928631       4.42622531       3.42244232      -0.29732176       0.40605294       0.07129019
Si       3.30378545       4.31231432       1.53996854      -0.50205870       0.52080870      -0.40258243
Si       6.70160092       6.84374002       4.18542505      -0.02539610       0.04629047       0.23715402
Si       9.43272971       8.35103363       4.25630556       0.31985389      -0.16739081       0.11434794
Si       5.82087044       2.12117295       7.08790220       0.21137517      -0.11899715      -0.22066146
Si       4.43945099       2.40503266       5.08056985       0.30570378       0.33439669      -0.32679050
18
Lattice="5.24127826539391 1.276397830073538 0.10322269464223574 4.207476675349018 8.404605016237012 -1.896320429921041 2.372591230858111 -0.240228039519007 11.94912356441988" Properties=species:S:1:pos:R:3:forces:R:3 unique_starting_index=194 config_type=initial n_minim_iter=3 energy=-2924.736438210088 stress="0.001114285246307031 0.0008504800557300858 -0.002064058094649465 0.0008504800557300858 -0.0036401426646488406 0.0011083568532018813 -0.002064058094649465 0.0011083568532018813 0.0053102735026788715" free_energy=-2924.736438210088 pbc="T T T"
Si       5.88435413       1.29737298       1.39869382      -0.20789510       0.00466354      -0.02690047
Si       6.86146054       5.77139457      11.77514151      -0.28212689      -0.21596871       0.19437888
Si       5.14903009       3.30218864       2.80447379      -0.22859905       0.17300611       0.28153006
Si       3.33960594       2.21038065       9.75275436       0.17861634       0.11686558       0.45973462
Si       8.04707644       7.57487779       6.12141678       0.61493916      -0.62589480       0.03551229
Si       7.69434729       8.49075279       2.03600646      -0.24694372      -0.33448345       0.10601723
Si       3.95067171       2.29708358       0.42869781       0.40200868      -0.15550179       0.03988028
Si       2.22674166       1.78310766       5.55806830      -0.25100161      -0.16721526      -0.19143528
Si       5.26422592       5.84668969       2.06607290       0.36072591      -0.25694840       0.34245605
Si       5.10868163       8.23936451       1.87904321      -0.08973283      -0.09372258      -0.24075856
Si       2.57223894       1.11549290       1.93057860       0.13162477       0.28855018      -0.51945073
Si       5.65656051       4.69907907       5.53741000      -0.29238015       0.42326961      -0.08398843
Si       7.23556402       4.39187450       3.44982149      -0.34351564       0.35459306       0.03645614
Si       3.31139719       4.27681999       1.55895254      -0.33711875       0.38181631      -0.60178727
Si       6.72848972       6.78293022       4.23970252      -0.04375930       0.06292578       0.29616065
Si       9.48901145       8.26931355       4.30227027       0.22933813      -0.18706419       0.26076936
Si       5.83628030       2.12436354       7.14926132       0.23338590       0.07033103      -0.16835147
Si       4.45538282       2.40432692       5.12574979       0.17243414       0.16077800      -0.22022333
18
Lattice="5.288915933350278 1.2309831359835648 0.11772397644929167 4.171359464969155 8.37229675246963 -1.8338637899040147 2.4290373796102407 -0.218222235673564 11.825763161719689" Properties=species:S:1:pos:R:3:forces:R:3 unique_starting_index=194 config_type=initial n_minim_iter=4 energy=-2924.875265030524 stress="0.004771884235720993 -0.001346537408646979 -0.00042363401030138186 -0.001346537408646979 -0.000988843437030341 0.0042569366240124435 -0.00042363401030138186 0.0042569366240124435 -0.002439751018661581" free_energy=-2924.875265030524 pbc="T T T"
Si       5.92939013       1.24830599       1.39673004       0.04367403       0.04040377       0.08478073
Si       6.89389400       5.75540587      11.69266346      -0.14682728      -0.30975857       0.18249588
Si       5.17202681       3.27914598       2.81202150      -0.34132435       0.22938819       0.08726444
Si       3.38743561       2.22610736       9.69197750       0.24118763       0.07009294      -0.00748719
Si       8.10481226       7.50603894       6.11009116       0.48220665      -0.40956664       0.28251613
Si       7.69601908       8.42854599       2.06704858      -0.29214219      -0.27576829       0.07726330
Si       3.99713300       2.25493253       0.43980268       0.40132165       0.29349191      -0.10342547
Si       2.23140554       1.77952706       5.50147720       0.04953510      -0.06924528      -0.45676854
Si       5.29119321       5.81063488       2.10086364       0.28140628      -0.21072083       0.30516638
Si       5.08859423       8.20117879       1.89082603      -0.10518637       0.02617409      -0.15608853
Si       2.60355025       1.11489236       1.89797167      -0.15841760      -0.00278708      -0.12015524
Si       5.67581760       4.69067808       5.50282741      -0.25438982       0.35029587       0.04792252
Si       7.26848923       4.36310001       3.44868509      -0.32014374       0.24761212      -0.05063117
Si       3.29227435       4.27802847       1.54783699      -0.07779256       0.12176160      -0.47791785
Si       6.74791332       6.74795558       4.24575176       0.04099891       0.09424776       0.27782769
Si       9.54352259       8.20682237       4.31414736       0.27290386      -0.19346776       0.19468939
Si       5.90898005       2.09660589       7.08090033      -0.05141410       0.04209681       0.08358671
Si       4.51045324       2.39818945       5.07528967      -0.06559611      -0.04425062      -0.25103918
18
Lattice="5.242762311004732 1.2178398692789971 0.11183900996558577 4.113200316900528 8.388559806187237 -1.9324626412251287 2.4299093422985707 -0.3617393474728596 11.867285753412153" Properties=species:S:1:pos:R:3:forces:R:3 unique_starting_index=194 config_type=initial n_minim_iter=5 energy=-2925.00319229274 stress="0.0007382650399393487 -0.0020791559790295337 -0.0003001395912344849 -0.0020791559790295337 -0.0010951212687619958 0.0005949690576373758 -0.0003001395912344849 0.0005949690576373758 -0.0014824243389816268" free_energy=-2925.00319229274 pbc="T T T"
Si       5.86936562       1.21682294       1.39251237       0.19680963      -0.05940916       0.11820035
Si       6.82629517       5.59889164      11.67630072      -0.17090240      -0.21759400       0.40011699
Si       5.11408044       3.24533796       2.80240682      -0.46004068       0.17886305       0.01576804
Si       3.38035963       2.11277513       9.72385400       0.30270408      -0.13008987      -0.36376507
Si       8.05537100       7.39030293       6.06092909       0.58246927      -0.29760062       0.18525007
Si       7.60444047       8.37785816       1.98839193      -0.27512518      -0.16024837      -0.14128117
Si       3.98269957       2.23383052       0.41848551       0.14818535       0.36924999      -0.12589922
Si       2.20410546       1.70504780       5.48821515       0.20048002       0.04537550      -0.50804903
Si       5.25508356       5.77112569       2.06917028       0.20513479      -0.11254554       0.11288419
Si       5.02498222       8.16191709       1.79528994      -0.15374016       0.03592238      -0.23749786
Si       2.58852199       1.09990092       1.87431224      -0.08842546      -0.05632967       0.10643854
Si       5.61337104       4.63234222       5.46722540      -0.24059889       0.34638646       0.12181905
Si       7.18765176       4.32596303       3.42097516      -0.13336432       0.19107195      -0.08182968
Si       3.23922015       4.27262678       1.48659520       0.00739483       0.00402999      -0.23498325
Si       6.68131813       6.68718372       4.20000758       0.17789890       0.19193804       0.31835503
Si       9.46826749       8.13316200       4.25044229       0.00530308      -0.18766409       0.19597068
Si       5.87591104       1.99793068       7.07585597      -0.12342306       0.01625345       0.15951609
Si       4.48955444       2.34020181       5.05371210      -0.18075980      -0.15760948      -0.04101376
18
Lattice="5.2398775042883825 1.2669878947906268 0.12130338416422597 4.174194988926869 8.448938865847346 -1.9474000118620478 2.448652335487951 -0.37158833483105513 11.888633098559483" Properties=species:S:1:pos:R:3:forces:R:3 unique_starting_index=194 config_type=initial n_minim_iter=6 energy=-2925.0767030711013 stress="0.0010571339325367002 0.0006352320532097111 0.0002984721199240023 0.0006352320532097111 -0.00011688756694032994 -0.00017975805200954687 0.0002984721199240023 -0.00017975805200954687 -0.0007976592664575349" free_energy=-2925.0767030711013 pbc="T T T"
Si       5.86157680       1.26551227       1.40392094       0.59392434      -0.09229976       0.22714938
Si       6.87109770       5.63406022      11.70294728      -0.16248062      -0.09733462       0.51565898
Si       5.12114139       3.30011029       2.82018124      -0.41062653       0.18097013      -0.00831726
Si       3.42564203       2.12524219       9.75334457       0.27985681      -0.29641569      -0.59925421
Si       8.14330784       7.43551352       6.07706819       0.61470182      -0.16191828       0.12239619
Si       7.65314321       8.44708532       1.98691243      -0.27690014      -0.12671822      -0.22588566
Si       4.01273885       2.27054879       0.41965282      -0.18272007       0.44422187      -0.14229166
Si       2.21791719       1.70999344       5.48024502       0.31736313       0.07129554      -0.47812214
Si       5.31552097       5.82004785       2.08831396       0.12588899      -0.12945333      -0.07911641
Si       5.08450038       8.21226989       1.77516083      -0.10452489       0.00044816      -0.24462409
Si       2.60055271       1.13066854       1.86504947      -0.17613135      -0.13382977       0.15271291
Si       5.63993961       4.69567411       5.47218005      -0.26179650       0.32505277       0.16479480
Si       7.20196296       4.40719767       3.43188798      -0.09098688       0.06230315      -0.18149836
Si       3.25862785       4.32165596       1.46668816       0.01620829       0.00215634      -0.14193051
Si       6.73548733       6.75355445       4.21626167       0.24418607       0.28988272       0.36670742
Si       9.53921088       8.21845779       4.26384877      -0.13385124      -0.08637967       0.20220120
Si       5.90074136       2.03363920       7.08632552      -0.11262612      -0.07287617       0.21326611
Si       4.51993889       2.37921923       5.05234352      -0.27948512      -0.17910517       0.13615330
18
Lattice="5.169495210613991 1.2686620148159307 0.12244822273539117 4.112737852655026 8.480005780074443 -1.9658591344723568 2.4191748867778387 -0.385028142394458 11.962819766650687" Properties=species:S:1:pos:R:3:forces:R:3 unique_starting_index=194 config_type=initial n_minim_iter=7 energy=-2925.1770190254792 stress="-0.0026809744972571296 -0.0005980078335919544 -0.0009369705451655207 -0.0005980078335919544 0.0026961317571552994 0.0005748938677856355 -0.0009369705451655207 0.0005748938677856355 0.0018562912932180715" free_energy=-2925.1770190254792 pbc="T T T"
Si       5.78588632       1.25887835       1.41592589       0.70381393      -0.22423907       0.24669959
Si       6.74797904       5.62603557      11.80119532      -0.20217345       0.02909802       0.51880276
Si       5.01802075       3.32645400       2.85488671      -0.42730432       0.05252649      -0.11182887
Si       3.40605687       2.12132012       9.82700155       0.16400412      -0.38423057      -0.79892720
Si       8.09067647       7.40291529       6.12785467       0.61759330      -0.08129769       0.03194832
Si       7.52052653       8.44925932       1.98964296      -0.12758848      -0.04448729      -0.27726455
Si       3.98593649       2.27955012       0.41353149      -0.49588359       0.61594522      -0.10938700
Si       2.17918269       1.70390074       5.47761350       0.35476951       0.10810878      -0.37176320
Si       5.27264958       5.82486398       2.12901743       0.03026849      -0.05248608      -0.41905330
Si       5.00037523       8.22413415       1.75343670      -0.18061242      -0.00810129      -0.20576897
Si       2.56980331       1.14693679       1.85265918      -0.04775253      -0.10552595       0.35880152
Si       5.53434747       4.74087017       5.50139455      -0.28909191       0.25392658       0.26791598
Si       7.07855225       4.44566524       3.44890345       0.13724485      -0.08271588      -0.21539662
Si       3.18768039       4.36068318       1.43862242       0.04824898      -0.17716490      -0.06574615
Si       6.64889336       6.78176090       4.26790319       0.44199684       0.34687927       0.39402926
Si       9.42552924       8.22831473       4.30196983      -0.40479649       0.10909676       0.19953022
Si       5.83054672       2.02466514       7.12158214      -0.07119528      -0.14357837       0.27497178
Si       4.46954792       2.39025551       5.06502803      -0.25154156      -0.21175405       0.28243643
18
Lattice="5.182116839648181 1.2830653311866471 0.1455929929550795 4.144261056122779 8.46178612715151 -2.0164309787675516 2.4984426892713087 -0.47425591456990107 12.001340043407872" Properties=species:S:1:pos:R:3:forces:R:3 unique_starting_index=194 config_type=initial n_minim_iter=8 energy=-2925.284061769568 stress="0.0001057457622492558 0.0010575001351202185 0.002203994308550004 0.0010575001351202185 0.0020250057577449825 -0.002384915869325503 0.002203994308550004 -0.002384915869325503 0.0028890478258111743" free_energy=-2925.284061769568 pbc="T T T"
Si       5.82003443       1.25600323       1.45168774       0.67345654      -0.08861492       0.04087748
Si       6.82895255       5.50581651      11.84926144      -0.20902693       0.24082874       0.57245326
Si       5.02134487       3.32192418       2.87822228      -0.38210210       0.00212587      -0.18645752
Si       3.50968132       2.03307918       9.84770354       0.08051774      -0.40210441      -0.77014278
Si       8.23683212       7.29381221       6.14372310       0.48411483      -0.03394443      -0.14552078
Si       7.55594054       8.39084262       1.96076902      -0.09768591      -0.06565223      -0.36034524
Si       4.02268536       2.29180894       0.41147357      -0.47543994       0.30613125      -0.01096835
Si       2.22232682       1.65205255       5.44752779       0.35124884       0.17747286      -0.11558854
Si       5.34871056       5.78152198       2.13922811      -0.01169360      -0.01322235      -0.58568203
Si       5.04282613       8.16731841       1.68991281      -0.10771142      -0.10450150      -0.21684548
Si       2.59252548       1.14721325       1.84646062      -0.03273578      -0.06180173       0.32585289
Si       5.56865344       4.72445600       5.50705476      -0.32639544       0.19918103       0.28909874
Si       7.10837296       4.44514186       3.45647011       0.23722932      -0.25467125      -0.21708939
Si       3.19935644       4.35616835       1.39088263      -0.01379934      -0.20148456       0.13065603
Si       6.72817357       6.74632748       4.29185622       0.48794143       0.49510803       0.46832823
Si       9.51345612       8.17222796       4.31706515      -0.43171187       0.09476621       0.12183934
Si       5.89879459       1.96952695       7.15096431       0.02671553      -0.11946704       0.16428117
Si       4.52367061       2.35703174       5.06957408      -0.25292190      -0.17014955       0.49525298
18
Lattice="5.1698198156236925 1.303267993464986 0.11044637932322265 4.180977395515648 8.46587069133745 -2.0570851906199 2.4149089337793463 -0.48572044748515353 11.972452758772892" Properties=species:S:1:pos:R:3:forces:R:3 unique_starting_index=194 config_type=initial n_minim_iter=9 energy=-2925.4016049067973 stress="0.000590694992539418 0.0011788119729943623 -0.002300377177882945 0.0011788119729943623 0.0030157988459877786 -0.0030720995112488688 -0.002300377177882945 -0.0030720995112488688 -0.0006099120963612388" free_energy=-2925.4016049067973 pbc="T T T"
Si       5.82050142       1.26709745       1.41842713       0.49273283      -0.14761924      -0.14346844
Si       6.72883157       5.48998387      11.82280988      -0.14297056       0.30644786       0.29333294
Si       4.96090440       3.34876505       2.84641377      -0.35405127      -0.04031492      -0.18674897
Si       3.47292122       2.01381558       9.79452562      -0.14709299      -0.17702160      -0.62865712
Si       8.27013804       7.26066955       6.08467071       0.46013423       0.02514290      -0.14955775
Si       7.53088437       8.38112497       1.88185829       0.05931194      -0.05597632      -0.30557448
Si       4.02747805       2.32309135       0.37153352      -0.56936423       0.01593503       0.06334661
Si       2.19461377       1.64728584       5.38444577       0.10166902       0.07411255       0.06818058
Si       5.37005462       5.77676276       2.10283565      -0.10025859       0.15425500      -0.58382743
Si       5.03865373       8.15782515       1.61174921      -0.13912784      -0.14623484      -0.02700062
Si       2.57797168       1.16055891       1.81833807       0.29192274       0.08368798       0.36542900
Si       5.50497303       4.76453473       5.46412534      -0.29557380       0.12196732       0.23556299
Si       7.06764721       4.47958418       3.39000253       0.29028119      -0.34922413      -0.14127027
Si       3.18175639       4.37311224       1.33163402      -0.04405217      -0.17927769       0.37472578
Si       6.72932912       6.77429444       4.26933560       0.40457642       0.45175949       0.39851548
Si       9.49487718       8.17934742       4.25562609      -0.38590039       0.08252928      -0.08154382
Si       5.84821403       1.96980608       7.10434810       0.18332278      -0.06409676      -0.01854055
Si       4.48605096       2.36218911       5.02769831      -0.10555932      -0.15607192       0.46709608
18
Lattice="5.119327862057851 1.306971261898844 0.16593836282093707 4.1434184001359595 8.389162026476287 -1.9738630076810906 2.4898274224619223 -0.39041090665485445 12.085557795919067" Properties=species:S:1:pos:R:3:forces:R:3 unique_starting_index=194 config_type=initial n_minim_iter=10 energy=-2925.4948288250007 stress="-0.0018248300281545839 -0.0004045937411856053 0.0028871085776462665 -0.0004045937411856053 0.0017677096094547563 -0.0006165704426006216 0.0028871085776462665 -0.0006165704426006216 0.005579913574570502" free_energy=-2925.4948288250007 pbc="T T T"
Si       5.80463922       1.27226179       1.49677931       0.10028668      -0.12409561      -0.49161925
Si       6.74749566       5.53735904      12.05972063      -0.03854063       0.61021927       0.03163822
Si       4.89977454       3.36815091       2.94130205      -0.33243110      -0.11279387      -0.21979654
Si       3.54677217       2.06111195       9.88858750      -0.39044726       0.10421497      -0.00261719
Si       8.31867800       7.22929698       6.27070813       0.09599852      -0.16697536      -0.13469267
Si       7.46805710       8.32315583       2.00843519       0.20894736      -0.11631206      -0.12181441
Si       3.99376310       2.33848956       0.41820000      -0.21737511      -0.32907718       0.13759950
Si       2.23210676       1.67851989       5.42205331      -0.09556888       0.02477309       0.38490891
Si       5.36797451       5.74690999       2.20886914      -0.06964065       0.18088350      -0.72484977
Si       5.00783008       8.10280079       1.70382401      -0.22374320      -0.19368739       0.06155325
Si       2.57047322       1.17516671       1.86606885       0.30373559       0.23792363       0.24174306
Si       5.47413566       4.81033272       5.60369450      -0.25427421       0.00865843       0.17871289
Si       7.02446207       4.49510781       3.50084581       0.35149553      -0.33106341       0.03448899
Si       3.15817975       4.36103151       1.38189829      -0.34571284      -0.38427183       0.29657514
Si       6.73761277       6.78967553       4.45335963       0.47779708       0.47988670       0.34288997
Si       9.44862796       8.15662886       4.45099410      -0.27317106       0.25596807      -0.36746540
Si       5.85512607       2.01209768       7.23267018       0.48374758      -0.03286099      -0.20122490
Si       4.48023253       2.38434589       5.13028394       0.21889659      -0.11138995       0.55397020
18
Lattice="5.152254747001136 1.314227493369394 0.1423451561468693 4.199991489533549 8.350218530371563 -1.9572083937404956 2.4415437026529303 -0.34385946240351317 12.00747580935848" Properties=species:S:1:pos:R:3:forces:R:3 unique_starting_index=194 config_type=initial n_minim_iter=11 energy=-2925.585624895271 stress="0.0001632910643178034 -5.9025892163328476e-05 -0.0005100581375016291 -5.9025892163328476e-05 0.0004369139287575811 -0.0002268800088231644 -0.0005100581375016291 -0.0002268800088231644 -0.0007142427221766016" free_energy=-2925.585624895271 pbc="T T T"
Si       5.84988112       1.28360760       1.45776003      -0.04336181      -0.13115452      -0.52143204
Si       6.74659888       5.57633892      11.98159837      -0.04243964       0.42408273      -0.13553594
Si       4.91735497       3.36809471       2.89889433      -0.25717885      -0.10300176      -0.06153129
Si       3.51338924       2.08666179       9.80022305      -0.42592499       0.37898404       0.25284887
Si       8.35204991       7.24517833       6.21170054       0.15497750      -0.19380492       0.07746758
Si       7.53057495       8.30907930       1.97973372       0.20325806      -0.17864634      -0.02362037
Si       4.00189903       2.34309729       0.40436995      -0.02270261      -0.54631851       0.04572120
Si       2.23216135       1.69711411       5.39489052      -0.24650797      -0.07025967       0.27352830
Si       5.39377703       5.74266894       2.16023220       0.04555816       0.05880440      -0.36309025
Si       5.04741748       8.08178701       1.70108844      -0.19794348      -0.07722556       0.11188751
Si       2.58045562       1.17688040       1.86569776       0.33148248       0.26237222       0.12850493
Si       5.48871924       4.81288890       5.57108066      -0.19742098       0.05092546       0.12649565
Si       7.07376308       4.48584444       3.45689059       0.16005063      -0.15615791       0.02313802
Si       3.18592170       4.33513810       1.38770230      -0.37978234      -0.09867012       0.23791539
Si       6.78528665       6.79804304       4.42277783       0.19955457       0.38194447       0.23775125
Si       9.48790858       8.15795452       4.39796057      -0.01523558       0.12981015      -0.52491689
Si       5.86006872       2.04091955       7.17619475       0.44886926      -0.04203982      -0.24515664
Si       4.47839249       2.38970226       5.10769293       0.28474758      -0.08964435       0.36002472
18
Lattice="5.172635973162295 1.3066689694897113 0.14055995719941664 4.240244078022101 8.20395820561872 -1.9105143870377177 2.425365204314157 -0.25548046097453464 12.003573203768754" Properties=species:S:1:pos:R:3:forces:R:3 unique_starting_index=194 config_type=initial n_minim_iter=12 energy=-2925.7034988452137 stress="0.0021367799983700313 0.0003392033870938448 -0.0023901209941618417 0.0003392033870938448 -0.004186568289823021 0.0027232213365406986 -0.0023901209941618417 0.0027232213365406986 -0.006468949622668876" free_energy=-2925.7034988452137 pbc="T T T"
Si       5.89436341       1.27420033       1.42505714      -0.05805885      -0.09151965      -0.35303661
Si       6.75071113       5.60152129      12.02395176      -0.07359375       0.24743129      -0.34152837
Si       4.89895186       3.33925721       2.90074484      -0.14347597      -0.13124710       0.10664284
Si       3.49303566       2.12933068       9.79112409      -0.34552185       0.54459005       0.35329785
Si       8.42338082       7.16425009       6.24820888       0.07075857      -0.11953063       0.22880621
Si       7.57898952       8.18210016       2.00629322       0.19921605      -0.27120401       0.18664806
Si       4.00356129       2.30369569       0.41213353       0.27649946      -0.47373126      -0.23433531
Si       2.23375640       1.70818608       5.40782719      -0.18337433      -0.10200592       0.10488188
Si       5.42793758       5.67312218       2.14428715       0.26920707      -0.23312188       0.13566130
Si       5.06314841       7.95807078       1.74303117      -0.14577155       0.15581887      -0.00436265
Si       2.60746333       1.18756093       1.89103523       0.04324882       0.03897018       0.04703989
Si       5.48086421       4.79404096       5.61450671      -0.04661833       0.07709574       0.00781368
Si       7.11759447       4.43461731       3.46677148      -0.07981781       0.07675392       0.12696387
Si       3.18120553       4.26273992       1.42448540      -0.42364037       0.16102023       0.05097108
Si       6.85165999       6.76735813       4.49369362      -0.09684894       0.27201397       0.05263652
Si       9.51726067       8.07722776       4.40913413       0.13258458      -0.09359243      -0.60044779
Si       5.89880281       2.06269718       7.17341807       0.37474597      -0.00265476       0.04158048
Si       4.49500437       2.37938095       5.15496645       0.23046125      -0.05508660       0.09076706
18