10
Lattice="6.3249202932907505 1.0263436281936851e-07 1.9649103599307525e-07 -2.873601790944752 5.634449906910083 -2.4553379075650703e-07 -1.7256592720833401 -2.8172246157863463 5.393510781233338" Properties=species:S:1:pos:R:3:forces:R:3 unique_starting_index=21 config_type=initial n_minim_iter=1 energy=-1606.5000042081108 stress="-0.27231815434165324 -0.3030946158773759 -0.22110615343445197 -0.027852347867261998 0.013512911836970839 -0.06691362265468129" pbc="T T T"
Si       1.90254043      -1.16936685       5.34703766       5.30108757      16.69785607       8.71166303
Si       0.04140574      -0.02137462       3.16033626     -16.31260757      -9.95287416       4.20144374
Si      -0.30400249       2.48972352       1.55415569       2.76086870      -8.39411515       6.11850109
Si       1.10000613       4.77120952       1.55970720      -2.23187081       8.07008349      -6.73885198
Si       1.35228301       0.83107200       2.57046311      16.04301865      11.29592444      -7.65104339
Si      -1.20540017       2.95321499       4.67446396      -2.88414074     -19.35624612      -7.78024997
Si       2.59441134       3.79642355       2.08076519       8.87602709      -5.84929613       3.15488341
Si      -2.44752851      -0.01213656       5.16416188      -2.50660995       1.94778178     -10.62423946
Si       0.13049481      -0.07993275       5.24048068      -2.31544021       1.41829668       2.71529513
Si      -0.44347645       4.14590451       2.54372517      -6.73033274       4.12258912       7.89259840
10
Lattice="6.358118796015747 0.008179590571818983 -0.0016482136456072688 -2.8813983105669325 5.663660257435152 0.003779383812445526 -1.739765928799707 -2.8330184236339537 5.415416802414072" Properties=species:S:1:pos:R:3:forces:R:3 unique_starting_index=21 config_type=initial n_minim_iter=2 energy=-1607.5353329711684 stress="-0.2544009797877256 -0.2838611414218839 -0.20644805215012677 -0.026482714185420708 0.013687248806882699 -0.0628520262505243" pbc="T T T"
Si       1.91015559      -1.16918318       5.36956216       5.10424654      15.89896416       8.28843147
Si       0.03913055      -0.02074906       3.17419605     -15.54215627      -9.50534073       3.95200788
Si      -0.30250715       2.50387213       1.56280739       2.64840794      -8.06071051       5.91795126
Si       1.11132046       4.80216404       1.56795362      -2.17867480       7.77298079      -6.46880293
Si       1.36140014       0.84019788       2.58073744      15.22799281      10.75352000      -7.26989062
Si      -1.20941847       2.96948073       4.69549343      -2.74520132     -18.39971260      -7.36856249
Si       2.61328772       3.82249638       2.09130961       8.54409571      -5.53501955       3.04833455
Si      -2.46198823      -0.01239990       5.18572126      -2.46517309       1.81144432     -10.17703039
Si       0.12947796      -0.07726980       5.26299635      -2.20465913       1.35043899       2.58538319
Si      -0.44178183       4.17134126       2.55769784      -6.38887839       3.91343512       7.49217808
10
Lattice="7.041468015917219 0.18690210230675156 -0.038919638150612924 -3.0326524809224646 6.266207375094592 0.08670409525554898 -2.0375962844364275 -3.160483899451409 5.859129324466937" Properties=species:S:1:pos:R:3:forces:R:3 unique_starting_index=21 config_type=initial n_minim_iter=3 energy=-1618.3387554204703 stress="-0.028153332251151117 -0.03236942525929516 -0.018075631361876482 0.0012416603501766675 -0.009394791621701171 -0.012603927545233429" pbc="T T T"
Si       2.06386314      -1.15700017       5.82621856       1.88732807       4.78997541       2.55319729
Si      -0.01212293      -0.00828690       3.45592820      -4.82567699      -2.99012305       0.89257707
Si      -0.26867651       2.79713038       1.74126693       1.00848079      -2.38932731       3.30693698
Si       1.35138366       5.44833365       1.73793751      -2.03085890       3.01557344      -2.10800373
Si       1.55174410       1.03529720       2.78855400       4.56309479       2.71576383      -2.11811603
Si      -1.29120019       3.30518317       5.12445278      -0.64841653      -5.11365567      -2.47259063
Si       3.00787665       4.36860354       2.30706831       3.39470496      -1.93057171       1.06771995
Si      -2.76261247      -0.01876374       5.62385685      -0.97677224       0.44949440      -3.90320709
Si       0.10541172      -0.01882718       5.72048634      -1.00000618       0.61254247       1.17269792
Si      -0.40209763       4.70063237       2.84597865      -1.37187777       0.84032819       1.60878826
10
Lattice="7.173994704725192 0.25044469302365097 0.004181463144509543 -3.0362574912772655 6.374762102718127 0.06364699636129298 -2.0653031012794227 -3.249858921838805 5.918905510964391" Properties=species:S:1:pos:R:3:forces:R:3 unique_starting_index=21 config_type=initial n_minim_iter=4 energy=-1619.2507766631804 stress="-0.013441297866735678 -0.016456335331505294 -0.0064691961213525105 0.0022931831203140893 -0.00878340083968405 -0.008749908378221602" pbc="T T T"
Si       2.13594516      -1.15274812       5.91732489       1.57197721       3.09849300       1.75621808
Si      -0.00655348      -0.02172969       3.49955929      -3.30660785      -2.03596465       0.27796708
Si      -0.23675287       2.84615798       1.76771833       0.70458705      -1.94643444       2.53815470
Si       1.42720158       5.58437700       1.75636784      -1.48964678       2.42731389      -1.61752248
Si       1.62166677       1.07800057       2.82430017       3.20897118       1.69268019      -1.39347918
Si      -1.25856565       3.34437986       5.16695264      -0.44119240      -3.38805175      -1.85226918
Si       3.12515054       4.48035882       2.35257373       2.51976431      -1.56707602       0.77936242
Si      -2.78197597      -0.04577261       5.66204675      -0.65407104       0.42426674      -2.96724351
Si       0.13998009      -0.02081474       5.79284762      -0.96826902       0.59310223       1.13548005
Si      -0.35667108       4.79834026       2.87832198      -1.14551267       0.70167082       1.34333202
10
Lattice="7.348752280817781 0.3699330930703115 0.11375477705915514 -3.009210874715669 6.512268652029538 -0.008077593006249975 -2.0727676756261446 -3.399360229400203 5.967666422134702" Properties=species:S:1:pos:R:3:forces:R:3 unique_starting_index=21 config_type=initial n_minim_iter=5 energy=-1620.1241379277037 stress="0.003706717027009751 0.003189466310415367 0.00784077321145173 -0.0006884791700087646 -0.002609202844656862 -0.004799079680593092" pbc="T T T"
Si       2.27629229      -1.14767105       6.03655901       1.20535165       1.38011511       0.95664941
Si       0.01851085      -0.05566715       3.54086586      -1.75936134      -1.04076275      -0.30696742
Si      -0.16626135       2.90254717       1.79217653       0.36420232      -1.55001843       1.44894963
Si       1.56380005       5.78174500       1.76355975      -0.64453985       1.72173601      -1.12020043
Si       1.74830183       1.14042309       2.86706834       1.77540025       0.84714409      -0.68406740
Si      -1.16305064       3.37241601       5.17818105      -0.27839187      -1.76411963      -1.07146036
Si       3.32503368       4.63887318       2.41564316       1.39297370      -1.12878583       0.40640695
Si      -2.76655821      -0.10963293       5.66100585      -0.22383108       0.41264076      -1.77744959
Si       0.22546023      -0.03694437       5.86986445      -0.83103903       0.50904355       0.97455172
Si      -0.25525322       4.92652181       2.89664151      -1.00076476       0.61300712       1.17358750
10
Lattice="7.295566289010089 0.4431912944855129 0.152682515828439 -2.919786028114254 6.437322622295592 -0.015221404533069227 -2.0576918663754893 -3.3884248932474663 5.852263289575992" Properties=species:S:1:pos:R:3:forces:R:3 unique_starting_index=21 config_type=initial n_minim_iter=6 energy=-1620.5627832075286 stress="0.0038416627472581196 0.006666851634963297 0.006044740655021403 -5.130197782210514e-05 -0.00372385564355048 -0.0016077844366848947" pbc="T T T"
Si       2.29408848      -1.09159976       5.95620066       1.25636625       1.05443917       0.76221497
Si       0.01909491      -0.06214747       3.47850301      -1.46241641      -0.92822547      -0.52058187
Si      -0.12323806       2.86887129       1.77836598       0.49895691      -1.44622101       1.38091762
Si       1.61507726       5.77816805       1.74106589      -0.66952512       1.55070063      -1.18089388
Si       1.78014317       1.16562235       2.82526323       1.43921991       0.73835885      -0.56367037
Si      -1.09599871       3.32732051       5.08057196      -0.24088271      -1.47238673      -0.84160848
Si       3.37189548       4.63559887       2.40421295       1.44936009      -1.12781758       0.49643503
Si      -2.71682365      -0.12484789       5.53571544      -0.31641705       0.43384615      -1.82502676
Si       0.24879645      -0.02081392       5.78191485      -0.96587096       0.59163332       1.13266786
Si      -0.19595968       4.90045716       2.86424898      -0.98879092       0.60567268       1.15954588
10
Lattice="7.206635394979836 0.47506809760372887 0.23817801538318706 -2.8509851248632074 6.277683249977151 -0.05114754538344457 -1.9747214568254483 -3.321751320223915 5.710208627990537" Properties=species:S:1:pos:R:3:forces:R:3 unique_starting_index=21 config_type=initial n_minim_iter=7 energy=-1621.199173415673 stress="0.006555944922701603 0.010481284389098391 0.00919571045756327 0.0005826871839393626 -0.005830322339095618 -0.0017610436697652646" pbc="T T T"
Si       2.35648986      -1.03139074       5.87662068       1.20804675       0.93399331       0.57347143
Si       0.03715205      -0.07674111       3.40018107      -1.23463545      -0.91770670      -0.54229112
Si      -0.07916794       2.78353882       1.76007565       0.72650977      -1.29006727       0.95796346
Si       1.63652881       5.68327300       1.70848268      -0.44049316       1.11487103      -1.29337248
Si       1.82207128       1.16597904       2.78358513       1.17686615       0.78986357      -0.49985768
Si      -1.00921604       3.22552669       4.95251921      -0.24666012      -1.35965074      -0.59098625
Si       3.40267499       4.53806258       2.40414851       1.34839791      -0.94732839       0.55228720
Si      -2.61888171      -0.12875528       5.36603650      -0.41689132       0.37674457      -1.64465629
Si       0.30515015      -0.00788306       5.68405491      -1.03086295       0.63144343       1.20888336
Si      -0.14657968       4.80016352       2.81932306      -1.09027759       0.66783719       1.27855836
10
Lattice="7.086917267497372 0.4982225552041964 0.3409321983844804 -2.775966810032616 6.087933471543812 -0.10500028624736242 -1.8647489710723673 -3.2453155622142016 5.547124383046863" Properties=species:S:1:pos:R:3:forces:R:3 unique_starting_index=21 config_type=initial n_minim_iter=8 energy=-1621.827446471115 stress="0.0055811924068059834 0.012975451691218085 0.011440547865573518 0.000285619327986449 -0.010522917731158626 -0.004312752992701863" pbc="T T T"
Si       2.42097948      -0.98268604       5.77891047       1.29644115       0.83340554       0.47773959
Si       0.07143888      -0.09232957       3.31029837      -1.13231471      -0.93393933      -0.67020914
Si      -0.03056138       2.68823339       1.72195934       1.05877040      -1.39014811       0.69094025
Si       1.65352135       5.54442076       1.66615392      -0.25886647       0.90017602      -1.62898013
Si       1.85483503       1.15182008       2.73687925       0.99929274       1.02667024      -0.56502199
Si      -0.90674787       3.10667334       4.80300172      -0.24812136      -1.48679177      -0.31586968
Si       3.41627327       4.41621435       2.39602685       1.36196476      -0.77199349       0.62001880
Si      -2.49612022      -0.14061021       5.17661218      -0.55644736       0.27858292      -1.56464154
Si       0.37794716      -0.00566373       5.56280719      -1.17409367       0.71917778       1.37684869
Si      -0.09136749       4.66935608       2.75281744      -1.34662549       0.82486020       1.57917515
10
Lattice="7.004960052720104 0.5625786369594314 0.5118531845156163 -2.6814006358526594 5.861007278241821 -0.18025287191073344 -1.7253023281118347 -3.161731270548308 5.347952321481146" Properties=species:S:1:pos:R:3:forces:R:3 unique_starting_index=21 config_type=initial n_minim_iter=9 energy=-1622.5010945784566 stress="-0.007562152215442945 0.002105093488562466 0.0012788960266079594 -0.0030519360608844133 -0.009318252748854611 -0.006963688714565165" pbc="T T T"
Si       2.54929632      -0.91042951       5.68730704       1.53071566       0.61733234       0.55863075
Si       0.13984862      -0.10193386       3.21036863      -1.16896945      -0.83891588      -0.98284715
Si       0.05326604       2.58686625       1.67836939       1.21981308      -1.77981797       0.35941353
Si       1.72558077       5.39545455       1.63739164       0.15346695       0.93863083      -1.96984621
Si       1.92677215       1.15040377       2.70185682       0.75154495       1.23419358      -0.59882703
Si      -0.74382336       2.97838193       4.63741463      -0.24413459      -1.54500205       0.00379163
Si       3.49307191       4.30660825       2.41939347       1.25232458      -0.79717123       0.67762750
Si      -2.33612321      -0.16189648       4.95036805      -0.56444433       0.37581797      -1.48429825
Si       0.50794931       0.00628236       5.42993800      -1.20696116       0.73931040       1.41539210
Si       0.01521756       4.52664529       2.68305355      -1.72335568       1.05562201       2.02096313
10
Lattice="7.11365000434238 0.6513918827938769 0.6258608421579231 -2.6516639567020643 5.805396667126285 -0.1935615678762503 -1.697296780869518 -3.1414900064497484 5.293547247313363" Properties=species:S:1:pos:R:3:forces:R:3 unique_starting_index=21 config_type=initial n_minim_iter=10 energy=-1622.9038983424202 stress="6.258969130809377e-05 0.012050427863979182 0.0059530548554929215 -0.0026415147040166104 -0.008468023920101236 -0.0029408020380355835" pbc="T T T"
Si       2.68248404      -0.83468976       5.71866673       1.23683244       0.31286353       0.36751901
Si       0.17972845      -0.09089839       3.19595835      -0.79020378      -0.58644087      -0.89127628
Si       0.12099861       2.57428064       1.69279087       1.15057188      -1.42202769       0.18922040
Si       1.83883567       5.41517263       1.67375842       0.15812303       0.62040144      -1.72391471
Si       2.01860839       1.19778499       2.72967898       0.37647309       0.98261087      -0.41293706
Si      -0.64727676       2.97099899       4.63014502      -0.18825850      -1.09789958       0.19221957
Si       3.64143520       4.34403824       2.49879647       0.97692619      -0.68897278       0.56580348
Si      -2.29455176      -0.16027881       4.88969770      -0.44214265       0.36139718      -1.19293914
Si       0.59613113       0.04866048       5.43648007      -0.96682888       0.59222009       1.13379121
Si       0.10099155       4.53310255       2.71398248      -1.51149281       0.92584781       1.77251352
10
Lattice="7.12655447698787 0.6834138303128623 0.7268215033047857 -2.6290006298551196 5.664254468254509 -0.2071947038295576 -1.6289875117894 -3.0560720412174014 5.200497668833083" Properties=species:S:1:pos:R:3:forces:R:3 unique_starting_index=21 config_type=initial n_minim_iter=11 energy=-1623.2326484232008 stress="-0.003808314923769313 0.0052601161705812995 0.002458824127514187 -0.0022137465286681235 -0.007822377887954564 -0.004257760003469845" pbc="T T T"
Si       2.78119186      -0.76501763       5.70029509       1.20130269       0.35961321       0.38939811
Si       0.21864434      -0.07768390       3.15608962      -0.81999029      -0.59318181      -0.83655961
Si       0.16786264       2.51852956       1.69024900       1.09472668      -1.53700447      -0.02971232
Si       1.88861734       5.32439088       1.69200234       0.41126476       0.61452647      -1.73634978
Si       2.07119482       1.20807285       2.73349427       0.23293637       0.98690572      -0.30175756
Si      -0.56558295       2.91838572       4.58495416      -0.24581685      -0.97901593       0.31686237
Si       3.70909788       4.28214138       2.54985946       0.83099541      -0.80974755       0.57354162
Si      -2.22510897      -0.14243791       4.79394603      -0.35513115       0.51826229      -1.13158319
Si       0.67446339       0.08427217       5.39619539      -0.79904663       0.48944696       0.93703452
Si       0.15324009       4.45743150       2.71722989      -1.55124099       0.95019510       1.81912583
10
Lattice="7.22466772032828 0.7651328860335272 0.8732815114098919 -2.6007783747311817 5.5518998013666945 -0.22992131915880484 -1.5672629901234996 -2.9988132540708787 5.117744538259668" Properties=species:S:1:pos:R:3:forces:R:3 unique_starting_index=21 config_type=initial n_minim_iter=12 energy=-1623.624035536103 stress="0.004134223441559501 0.009387573369630881 0.006995282328046409 0.0007199478719187169 -0.0070491497759958355 -0.0016027265843850877" pbc="T T T"
Si       2.94557005      -0.67430489       5.72679471       0.98024198       0.29166189       0.24311114
Si       0.27063175      -0.06404428       3.12700722      -0.60466585      -0.52171680      -0.68354577
Si       0.24499775       2.47946594       1.69852024       0.99200674      -1.39322236      -0.19615003
Si       2.00425407       5.29212407       1.72955522       0.51717543       0.46878991      -1.57365382
Si       2.17015969       1.24789896       2.76346870      -0.06306558       0.84160343      -0.08267679
Si      -0.44782360       2.88762485       4.56234576      -0.28715599      -0.62707917       0.49337835
Si       3.86090364       4.27640266       2.64249855       0.54736045      -0.72124094       0.48557032
Si      -2.15490777      -0.13086982       4.70247793      -0.24215135       0.53428856      -0.84348619
Si       0.79031075       0.13175351       5.38591585      -0.48185320       0.29515372       0.56506475
Si       0.24535716       4.42438112       2.74514798      -1.35789264       0.83176176       1.59238803
10
Lattice="7.172702909049397 0.7797479684276065 0.9731065887301122 -2.5641495932093643 5.418673012774448 -0.2808688625877323 -1.4744701632821036 -2.944862206364431 5.016920569115531" Properties=species:S:1:pos:R:3:forces:R:3 unique_starting_index=21 config_type=initial n_minim_iter=13 energy=-1623.8895903676687 stress="-0.007636856662237867 -0.005100405868026207 -0.002411134964832972 0.000545369949905447 -0.007479943311882923 -0.005089268345768211" pbc="T T T"
Si       3.02749628      -0.64553467       5.68906788       0.96041643       0.51593031       0.22994868
Si       0.30846386      -0.07259625       3.07117431      -0.68792549      -0.68284154      -0.54949625
Si       0.28756815       2.41128823       1.66922233       0.68266513      -1.68923377      -0.43084685
Si       2.03265433       5.18882388       1.70651960       0.93355836       0.69923437      -1.46448335
Si       2.20086455       1.23691504       2.75022482      -0.02679887       0.91104009       0.02764386
Si      -0.36255815       2.81035710       4.47847877      -0.42205386      -0.63610043       0.49872155
Si       3.88797933       4.19097699       2.65804571       0.55335335      -0.77463520       0.48445571
Si      -2.06004583      -0.13735105       4.58282207      -0.21905325       0.56986345      -0.87648632
Si       0.87000474       0.12972529       5.31589931      -0.30875535       0.18912460       0.36207452
Si       0.29054696       4.33269781       2.70760088      -1.46540644       0.89761812       1.71846846
10
Lattice="7.246534253969466 0.8245154430061743 1.0349386841893553 -2.5578130396635714 5.434992920836636 -0.30624674640256594 -1.4618274269737301 -2.972807663542441 5.020041616802619" Properties=species:S:1:pos:R:3:forces:R:3 unique_starting_index=21 config_type=initial n_minim_iter=14 energy=-1624.0158240823118 stress="0.00335075042212658 0.0054794411166029225 0.005283370173792815 0.0018858052274161232 -0.006213818233618693 -0.0015174997806835073" pbc="T T T"
Si       3.10501121      -0.63079738       5.73318533       0.84108735       0.37354235       0.15186371
Si       0.32960423      -0.07797298       3.07772520      -0.52536022      -0.56693742      -0.52211397
Si       0.31909890       2.41713512       1.67293394       0.70818933      -1.41709094      -0.38459726
Si       2.09845020       5.23355400       1.71914033       0.76593863       0.51413055      -1.34409884
Si       2.25079310       1.25996476       2.77570606      -0.18099566       0.75295763       0.05227346
Si      -0.31536536       2.81780883       4.48751766      -0.33057366      -0.43960164       0.54763911
Si       3.97063045       4.23215361       2.69826583       0.37409415      -0.65803555       0.42926182
Si      -2.04242336      -0.14995710       4.57342547      -0.17501449       0.53609156      -0.66272067
Si       0.92131897       0.13318871       5.33890384      -0.20963447       0.12840922       0.24583639
Si       0.33428717       4.36100190       2.72154033      -1.26773095       0.77653424       1.48665625
10
Lattice="7.231542682345339 0.8303491136717678 1.0684201883114233 -2.545805088868669 5.404281938924697 -0.3292781848505994 -1.4317846069419513 -2.9678544051997267 4.993760508652426" Properties=species:S:1:pos:R:3:forces:R:3 unique_starting_index=21 config_type=initial n_minim_iter=15 energy=-1624.096998587958 stress="-0.0009010590241325053 0.0012344520432382828 0.001387761772347639 0.001021218518277243 -0.005154128554491233 -0.0019152621180699217" pbc="T T T"
Si       3.13341282      -0.62861316       5.72626670       0.81183595       0.41236407       0.14650169
Si       0.34183342      -0.08503874       3.06184731      -0.53009886      -0.58493893      -0.47689215
Si       0.33218457       2.39743818       1.66107340       0.60519569      -1.46703997      -0.44742252
Si       2.11078364       5.21097585       1.70814331       0.86986062       0.56351092      -1.28236225
Si       2.26136737       1.25625095       2.77270906      -0.16824261       0.75954986       0.06411612
Si      -0.28698134       2.79430993       4.46072967      -0.34708814      -0.44388985       0.54020743
Si       3.98087326       4.21092606       2.70142069       0.38040761      -0.65345585       0.42187765
Si      -2.01139392      -0.15735964       4.53777206      -0.17248012       0.52609223      -0.66571227
Si       0.94880392       0.12635632       5.31909793      -0.17647929       0.10810039       0.20695561
Si       0.34983024       4.33812872       2.70678871      -1.27291086       0.77970713       1.49273068
10
Lattice="7.247681150043473 0.8455687318225339 1.1087487878910116 -2.539579138120951 5.390531521721422 -0.35130317155415197 -1.4085770164279405 -2.9721331704484864 4.981269056144858" Properties=species:S:1:pos:R:3:forces:R:3 unique_starting_index=21 config_type=initial n_minim_iter=16 energy=-1624.1838587542284 stress="0.00013170876588256022 0.002186460934287278 0.0016926153372439825 0.0007055933587564268 -0.003880771044179158 -0.0011228799239355268" pbc="T T T"
Si       3.17783996      -0.62223722       5.73931049       0.73382023       0.38655150       0.12411108
Si       0.35509530      -0.09170960       3.05513006      -0.47822273      -0.54311486      -0.42384788
Si       0.34891938       2.38522276       1.65525111       0.54431320      -1.38892597      -0.45805570
Si       2.13898808       5.21083251       1.70579592       0.86074554       0.52827315      -1.18964357
Si       2.28359073       1.26122985       2.78040485      -0.20041652       0.71651795       0.07457890
Si      -0.25625283       2.78200102       4.45019175      -0.32806486      -0.39280266       0.54516629
Si       4.01308508       4.20859361       2.71797269       0.32283673      -0.61496186       0.38238665
Si      -1.98768605      -0.16417511       4.51489759      -0.14024311       0.50311620      -0.59651249
Si       0.98219929       0.12342128       5.31692443      -0.12223262       0.07487221       0.14334106
Si       0.37060127       4.33298980       2.70469579      -1.19253586       0.73047434       1.39847567
10
Lattice="7.270399316163496 0.8788390771668869 1.2334118122716886 -2.520262353723502 5.316641099560165 -0.4189039881389604 -1.3232893762795213 -2.962317004206948 4.926201240065123" Properties=species:S:1:pos:R:3:forces:R:3 unique_starting_index=21 config_type=initial n_minim_iter=17 energy=-1624.4421486311626 stress="-0.0026880410982217276 -0.0006920494078381173 -0.0017769448947126656 -0.001732397357826888 0.0007682962121926036 -0.00041143451716030554" pbc="T T T"
Si       3.31433586      -0.59649927       5.76560805       0.42837533       0.28731424       0.06853226
Si       0.39197117      -0.11440022       3.02177365      -0.30329049      -0.36393354      -0.21521807
Si       0.39600237       2.32553155       1.63010312       0.25052468      -1.18277312      -0.48093332
Si       2.21620930       5.17951054       1.69152972       0.86858602       0.49727453      -0.83143736
Si       2.34281375       1.27049870       2.79688028      -0.23271711       0.63548542       0.10665851
Si      -0.16326611       2.72668392       4.40652577      -0.31051444      -0.30273508       0.53038407
Si       4.09427208       4.16810523       2.76519257       0.17880479      -0.52556979       0.21933467
Si      -1.90474617      -0.17703469       4.42651207      -0.00172199       0.41709972      -0.42699802
Si       1.08549169       0.11477282       5.29392071       0.05231118      -0.03204262      -0.06134483
Si       0.42426933       4.29268002       2.69493787      -0.93035796       0.56988023       1.09102210
10
Lattice="7.371733642656685 0.9070014535643968 1.2246340147576555 -2.541213607972821 5.328048903416895 -0.3622492800298607 -1.3709660898962408 -2.931687523356178 4.9500259095466115" Properties=species:S:1:pos:R:3:forces:R:3 unique_starting_index=21 config_type=initial n_minim_iter=18 energy=-1624.5411789330637 stress="0.015472992454227204 0.01811427218581854 0.012649437623528645 0.001750996958306186 -0.001650391330244557 0.0039785080096226355" pbc="T T T"
Si       3.35369260      -0.52950624       5.80847112       0.26462286       0.18853302       0.06420123
Si       0.36850004      -0.09946457       3.03825234      -0.21092106      -0.22142745      -0.12717683
Si       0.39496213       2.31917563       1.65381757       0.39541967      -0.59863432      -0.14626894
Si       2.27948497       5.23655278       1.73697377       0.28348680       0.18277785      -0.64987834
Si       2.36559016       1.32009974       2.82791066      -0.32420859       0.54575034       0.15296118
Si      -0.18532792       2.76687873       4.48471340      -0.28506699      -0.17254547       0.56153061
Si       4.15621229       4.20429303       2.82130129       0.08403042      -0.51443087       0.03841407
Si      -1.95290406      -0.13143112       4.46429696       0.17345248       0.35671263      -0.34036188
Si       1.07954453       0.16424529       5.33988021       0.05802445      -0.03554222      -0.06804473
Si       0.41298051       4.34399882       2.77924686      -0.43884005       0.26880650       0.51462363
10
Lattice="7.264901457049007 0.8671220981531544 1.2178415640277254 -2.528202386067637 5.2471812717809625 -0.3723911875276239 -1.3298478005490735 -2.8839763109811907 4.896690644248358" Properties=species:S:1:pos:R:3:forces:R:3 unique_starting_index=21 config_type=initial n_minim_iter=19 energy=-1624.6183342246975 stress="-0.005254095796064761 -0.0010554225793845482 -0.0037311599436315153 -0.0015760112665916203 -0.0013759408290120315 -0.00042363817248823187" pbc="T T T"
Si       3.32070722      -0.53673874       5.74695675       0.22582664       0.21227376       0.06066138
Si       0.36746292      -0.10381243       3.00247478      -0.20789204      -0.22325939      -0.08169311
Si       0.38383835       2.27492550       1.63002028       0.13623498      -0.86990019      -0.29015633
Si       2.22870160       5.14050747       1.70641166       0.59772628       0.42032052      -0.57055320
Si       2.33048469       1.28929593       2.79549878      -0.21694359       0.69814949       0.17597236
Si      -0.18709316       2.71494907       4.42828968      -0.40183631      -0.31912287       0.54966506
Si       4.08412288       4.11526084       2.78502326       0.17719770      -0.65127777       0.09697175
Si      -1.91534607      -0.12656530       4.40899612       0.15905264       0.44531143      -0.49128940
Si       1.07344256       0.15177276       5.27844105       0.07538533      -0.04617643      -0.08840368
Si       0.39242804       4.26748002       2.73986988      -0.54475165       0.33368145       0.63882517
10
Lattice="7.293893940347453 0.8719955646054848 1.2289980020272264 -2.5370330985773446 5.249723541623856 -0.3702283880784082 -1.3304151485237519 -2.880761905279623 4.9055488626415835" Properties=species:S:1:pos:R:3:forces:R:3 unique_starting_index=21 config_type=initial n_minim_iter=20 energy=-1624.6376025161667 stress="-0.0009771064113032165 0.002900579497349663 -0.0003419850701718424 -0.001059503528519515 -0.0011640996131410408 0.0004746643376095877" pbc="T T T"
Si       3.34055463      -0.52796114       5.76566361       0.20697955       0.20724796       0.06266663
Si       0.37061122      -0.10117642       3.01014961      -0.20222128      -0.21016259      -0.06824661
Si       0.38680402       2.27570622       1.63610292       0.16441287      -0.79597259      -0.26722030
Si       2.24251958       5.14921172       1.71760975       0.53755132       0.36599237      -0.55596656
Si       2.34245743       1.29681972       2.80716358      -0.24270108       0.66827417       0.18031854
Si      -0.18406358       2.72086827       4.44418744      -0.38520796      -0.28365559       0.55602453