18
Lattice="5.853182348338046 0.0 0.0 0.0 4.839091884583021 -4.524861617807403e-22 0.0 1.071119150161069e-21 11.455033158511306" Properties=species:S:1:pos:R:3:forces:R:3 unique_starting_index=36 config_type=initial n_minim_iter=1 energy=-2929.378445091788 stress="-0.0016341299239809768 3.285898767061121e-12 6.6773873723660265e-12 3.285898767061121e-12 -0.0010033447209212031 -2.0898840706373116e-12 6.6773873723660265e-12 -2.0898840706373116e-12 0.0005313784068893108" free_energy=-2929.378445091788 pbc="T T T"
Si       4.36465946       4.73979998      10.69472237       0.01075856      -0.03240134      -0.11793489
Si       1.48852289       4.73979998       0.76031079      -0.01075856      -0.03240134       0.11793489
Si       4.41511406       4.73979998       4.96720579      -0.01075856      -0.03240134      -0.11793489
Si       1.43806829       4.73979998       6.48782737       0.01075856      -0.03240134       0.11793489
Si       0.02676414       1.56798431       1.94469977      -0.08995515      -0.15611516      -0.15017129
Si       5.82641821       1.56798431       9.51033339       0.08995515      -0.15611516       0.15017129
Si       2.89982703       1.56798431       7.67221635       0.08995515      -0.15611516      -0.15017129
Si       2.95335531       1.56798431       3.78281681      -0.08995515      -0.15611516       0.15017129
Si       1.57887289       3.28971978       2.73416773      -0.07414703       0.09651281       0.05613198
Si       4.27430945       3.28971978       8.72086543       0.07414703       0.09651281      -0.05613198
Si       1.34771828       3.28971978       8.46168431       0.07414703       0.09651281       0.05613198
Si       4.50546407       3.28971978       2.99334885      -0.07414703       0.09651281      -0.05613198
Si       3.72865769       0.21235988       1.57667982       0.15808218       0.00271348      -0.03466909
Si       2.12452465       0.21235988       9.87835334      -0.15808218       0.00271348       0.03466909
Si      -0.80206652       0.21235988       7.30419640      -0.15808218       0.00271348      -0.03466909
Si       6.65524887       0.21235988       4.15083676       0.15808218       0.00271348       0.03466909
Si      -0.00000000       2.97864920       0.00000000       0.00000000       0.17858042      -0.00000000
Si       2.92659117       2.97864920       5.72751658       0.00000000       0.17858042      -0.00000000
18
Lattice="5.875748385798186 0.0 0.0 0.0 4.85053826049408 -4.565572600925565e-22 0.0 1.0626789487421602e-21 11.4407089904619" Properties=species:S:1:pos:R:3:forces:R:3 unique_starting_index=36 config_type=initial n_minim_iter=2 energy=-2929.3818084739814 stress="0.0017254990572954743 -3.603123160057127e-12 7.177611327077575e-13 -3.603123160057127e-12 0.002100076331470674 5.330593428895124e-12 7.177611327077575e-13 5.330593428895124e-12 0.0009525331689084254" free_energy=-2929.3818084739814 pbc="T T T"
Si       4.38156511       4.75077579      10.68049410       0.00038516      -0.03669824      -0.12451961
Si       1.49418327       4.75077579       0.76021489      -0.00038516      -0.03669824       0.12451961
Si       4.43205747       4.75077579       4.96013960      -0.00038516      -0.03669824      -0.12451961
Si       1.44369092       4.75077579       6.48056939       0.00038516      -0.03669824       0.12451960
Si       0.02621196       1.57055753       1.94117947      -0.08833782      -0.11944670      -0.12883703
Si       5.84953643       1.57055753       9.49952952       0.08833782      -0.11944670       0.12883703
Si       2.91166224       1.57055753       7.66153397       0.08833782      -0.11944670      -0.12883703
Si       2.96408615       1.57055753       3.77917502      -0.08833782      -0.11944670       0.12883703
Si       1.58441980       3.29820338       2.73115561      -0.07730111       0.06753518       0.04639485
Si       4.29132859       3.29820338       8.70955338       0.07730111       0.06753518      -0.04639485
Si       1.35345440       3.29820338       8.45151011       0.07730111       0.06753518       0.04639485
Si       4.52229399       3.29820338       2.98919889      -0.07730111       0.06753518      -0.04639485
Si       3.74418466       0.21288194       1.57445694       0.12778846      -0.01585393      -0.03566876
Si       2.13156372       0.21288194       9.86625205      -0.12778846      -0.01585393       0.03566876
Si      -0.80631047       0.21288194       7.29481143      -0.12778846      -0.01585393      -0.03566876
Si       6.68205886       0.21288194       4.14589756       0.12778846      -0.01585393       0.03566876
Si      -0.00000000       2.98699401       0.00000000      -0.00000000       0.20892736      -0.00000000
Si       2.93787419       2.98699401       5.72035450       0.00000000       0.20892736       0.00000000
18
Lattice="5.883882173026706 0.0 0.0 0.0 4.842078997604818 -4.681444041111278e-22 0.0 1.0288792563371338e-21 11.392483939558144" Properties=species:S:1:pos:R:3:forces:R:3 unique_starting_index=36 config_type=initial n_minim_iter=3 energy=-2929.386897359397 stress="0.001302806309316024 -4.0341918544340646e-12 -5.0059559405165575e-12 -4.0341918544340646e-12 -0.0008552134475143714 4.4164952832332474e-12 -5.0059559405165575e-12 4.4164952832332474e-12 -0.003931122711649563" free_energy=-2929.386897359397 pbc="T T T"
Si       4.38774946       4.74186133      10.63326980      -0.02069224      -0.01834669      -0.11755403
Si       1.49613272       4.74186133       0.75921414       0.02069224      -0.01834669       0.11755403
Si       4.43807380       4.74186133       4.93702783       0.02069224      -0.01834669      -0.11755403
Si       1.44580837       4.74186133       6.45545611      -0.02069224      -0.01834669       0.11755403
Si       0.02459677       1.56522708       1.93041665      -0.08192015      -0.09733830      -0.09429422
Si       5.85928540       1.56522708       9.46206729       0.08192015      -0.09733830       0.09429422
Si       2.91734432       1.56522708       7.62665862       0.08192015      -0.09733830      -0.09429422
Si       2.96653786       1.56522708       3.76582532      -0.08192015      -0.09733830       0.09429422
Si       1.58521722       3.29400503       2.72059431      -0.05980703      -0.01362968       0.04867282
Si       4.29866495       3.29400503       8.67188963       0.05980703      -0.01362968      -0.04867282
Si       1.35672386       3.29400503       8.41683628       0.05980703      -0.01362968       0.04867282
Si       4.52715831       3.29400503       2.97564766      -0.05980703      -0.01362968      -0.04867282
Si       3.75205809       0.21241819       1.56717955       0.08375335       0.02174668      -0.04177325
Si       2.13182408       0.21241819       9.82530439      -0.08375335       0.02174668       0.04177325
Si      -0.81011700       0.21241819       7.26342152      -0.08375335       0.02174668      -0.04177325
Si       6.69399918       0.21241819       4.12906242       0.08375335       0.02174668       0.04177325
Si      -0.00000000       2.98530356       0.00000000      -0.00000000       0.21513599      -0.00000000
Si       2.94194109       2.98530356       5.69624197      -0.00000000       0.21513599      -0.00000000
18
Lattice="5.873671500072561 0.0 0.0 0.0 4.834381506698807 -4.578077821921355e-22 0.0 1.0569982917829044e-21 11.448974190935557" Properties=species:S:1:pos:R:3:forces:R:3 unique_starting_index=36 config_type=initial n_minim_iter=4 energy=-2929.4077845747643 stress="0.0014627678368417524 -5.006894102366261e-12 -5.65867654996296e-12 -5.006894102366261e-12 -0.001993198260634897 3.4242672726736187e-12 -5.65867654996296e-12 3.4242672726736187e-12 -0.0004959161683842695" free_energy=-2929.4077845747643 pbc="T T T"
Si       4.38021156       4.73206120      10.67726925      -0.09595619       0.02643805      -0.06056232
Si       1.49345994       4.73206120       0.77170494       0.09595619       0.02643805       0.06056232
Si       4.43029569       4.73206120       4.95278215       0.09595619       0.02643805      -0.06056232
Si       1.44337581       4.73206120       6.49619204      -0.09595619       0.02643805       0.06056232
Si       0.01812107       1.55311092       1.93039321      -0.08157727       0.04331869      -0.11335526
Si       5.85555043       1.55311092       9.51858098       0.08157727       0.04331869       0.11335526
Si       2.91871468       1.55311092       7.65488030       0.08157727       0.04331869      -0.11335526
Si       2.95495682       1.55311092       3.79409389      -0.08157727       0.04331869       0.11335526
Si       1.57716584       3.29350374       2.73782064      -0.05210566      -0.11943162       0.02146775
Si       4.29650566       3.29350374       8.71115355       0.05210566      -0.11943162      -0.02146775
Si       1.35966991       3.29350374       8.46230773       0.05210566      -0.11943162       0.02146775
Si       4.51400159       3.29350374       2.98666646      -0.05210566      -0.11943162      -0.02146775
Si       3.75530325       0.21209937       1.57230468       0.04219196       0.03971347      -0.12033838
Si       2.11836825       0.21209937       9.87666951      -0.04219196       0.03971347       0.12033838
Si      -0.81846750       0.21209937       7.29679178      -0.04219196       0.03971347      -0.12033838
Si       6.69213900       0.21209937       4.15218241       0.04219196       0.03971347       0.12033838
Si      -0.00000000       2.99482937       0.00000000      -0.00000000       0.01992283      -0.00000000
Si       2.93683575       2.99482937       5.72448710      -0.00000000       0.01992283       0.00000000
18
Lattice="5.815273246307277 0.0 0.0 0.0 4.875871495631483 -4.625299260029547e-22 0.0 1.0544957268644722e-21 11.444593139948262" Properties=species:S:1:pos:R:3:forces:R:3 unique_starting_index=36 config_type=initial n_minim_iter=5 energy=-2929.4169758898947 stress="-0.0017325443812602032 7.091217586721831e-12 1.626040180698562e-13 7.091217586721831e-12 0.001725512315548454 -5.685960361118343e-12 1.626040180698562e-13 -5.685960361118343e-12 -0.0008017383646576829" free_energy=-2929.4169758898947 pbc="T T T"
Si       4.33490123       4.77082742      10.66310874      -0.07962129       0.05541520      -0.02582134
Si       1.48037202       4.77082742       0.78148440       0.07962129       0.05541520       0.02582134
Si       4.38800864       4.77082742       4.94081217       0.07962129       0.05541520      -0.02582134
Si       1.42726461       4.77082742       6.50378097      -0.07962129       0.05541520       0.02582134
Si       0.00979786       1.55734278       1.91739636      -0.05505600       0.15219496      -0.11026350
Si       5.80547538       1.55734278       9.52719678       0.05505600       0.15219497       0.11026350
Si       2.89783876       1.55734278       7.63969293       0.05505600       0.15219496      -0.11026350
Si       2.91743448       1.55734278       3.80490021      -0.05505600       0.15219497       0.11026350
Si       1.55502786       3.32462703       2.74099189      -0.05891540      -0.16003684       0.02180030
Si       4.26024539       3.32462703       8.70360125       0.05891539      -0.16003684      -0.02180030
Si       1.35260876       3.32462703       8.46328846       0.05891540      -0.16003684       0.02180030
Si       4.46266448       3.32462703       2.98130468      -0.05891540      -0.16003684      -0.02180030
Si       3.72889006       0.21459139       1.56658614       0.06053083       0.03354064      -0.09249286
Si       2.08638318       0.21459139       9.87800700      -0.06053084       0.03354064       0.09249286
Si      -0.82125344       0.21459139       7.28888271      -0.06053084       0.03354064      -0.09249286
Si       6.63652669       0.21459139       4.15571043       0.06053084       0.03354064       0.09249286
Si      -0.00000000       3.03535928       0.00000000       0.00000000      -0.16222793       0.00000000
Si       2.90763662       3.03535928       5.72229657       0.00000000      -0.16222793      -0.00000000
18
Lattice="5.860949749079337 0.0 0.0 0.0 4.832150878581593 -4.482658218585144e-22 0.0 1.084496425156978e-21 11.506073618650388" Properties=species:S:1:pos:R:3:forces:R:3 unique_starting_index=36 config_type=initial n_minim_iter=6 energy=-2929.4295787692868 stress="0.001759076265166234 1.5217283925189566e-12 6.225653772460028e-12 1.5217283925189566e-12 -0.0016020017840633288 4.333679227893823e-12 6.225653772460028e-12 4.333679227893823e-12 0.0028196030670101066" free_energy=-2929.4295787692868 pbc="T T T"
Si       4.36537517       4.72926011      10.71609397      -0.10914379       0.03339518      -0.01232053
Si       1.49557458       4.72926011       0.78997965       0.10914379       0.03339518       0.01232053
Si       4.42604945       4.72926011       4.96305716       0.10914379       0.03339518      -0.01232053
Si       1.43490030       4.72926011       6.54301645      -0.10914379       0.03339518       0.01232053
Si       0.00515281       1.54531381       1.91985475      -0.03881604       0.17221617      -0.09433427
Si       5.85579694       1.54531381       9.58621886       0.03881604       0.17221617       0.09433427
Si       2.92532207       1.54531381       7.67289156       0.03881604       0.17221617      -0.09433427
Si       2.93562768       1.54531381       3.83318206      -0.03881604       0.17221617       0.09433427
Si       1.56316867       3.29024620       2.75777354      -0.06816456      -0.15836004      -0.00373962
Si       4.29778108       3.29024620       8.74830008       0.06816457      -0.15836004       0.00373961
Si       1.36730620       3.29024620       8.51081035       0.06816457      -0.15836004      -0.00373962
Si       4.49364354       3.29024620       2.99526327      -0.06816457      -0.15836004       0.00373962
Si       3.76358763       0.21408989       1.56979536       0.00898107       0.00365172      -0.14738398
Si       2.09736212       0.21408989       9.93627825      -0.00898107       0.00365172       0.14738398
Si      -0.83311276       0.21408989       7.32283217      -0.00898107       0.00365172      -0.14738398
Si       6.69406251       0.21408989       4.18324145       0.00898107       0.00365172       0.14738398
Si      -0.00000000       3.00814287       0.00000000      -0.00000000      -0.10180606      -0.00000000
Si       2.93047487       3.00814287       5.75303681       0.00000000      -0.10180606       0.00000000
18
Lattice="5.856148849357426 0.0 0.0 0.0 4.829770929095073 -4.511162123746955e-22 0.0 1.0764598816992152e-21 11.497956479708977" Properties=species:S:1:pos:R:3:forces:R:3 unique_starting_index=36 config_type=initial n_minim_iter=7 energy=-2929.4684287091277 stress="0.0003661040985408217 -1.9551345467729675e-12 -1.239485776599385e-12 -1.9551345467729675e-12 -0.0006410236705172087 1.171909949563258e-13 -1.239485776599385e-12 1.171909949563258e-13 -0.002026236605569591" free_energy=-2929.4684287091277 pbc="T T T"
Si       4.34245589       4.73215871      10.68693628       0.08757449      -0.06281982      -0.04221004
Si       1.51369296       4.73215871       0.81102020      -0.08757449      -0.06281981       0.04221004
Si       4.44176739       4.73215871       4.93795804      -0.08757449      -0.06281981      -0.04221004
Si       1.41438146       4.73215871       6.55999844       0.08757449      -0.06281981       0.04221004
Si      -0.01766538       1.55739456       1.87926980       0.06798143       0.06753818       0.01118440
Si       5.87381423       1.55739456       9.61868668      -0.06798143       0.06753818      -0.01118440
Si       2.94573980       1.55739456       7.62824804      -0.06798143       0.06753818       0.01118440
Si       2.91040905       1.55739456       3.86970844       0.06798143       0.06753818      -0.01118440
Si       1.53959609       3.26390214       2.76547604      -0.12745855       0.03108122       0.01126502
Si       4.31655276       3.26390214       8.73248044       0.12745855       0.03108122      -0.01126502
Si       1.38847834       3.26390214       8.51445428       0.12745855       0.03108122       0.01126502
Si       4.46767051       3.26390214       2.98350220      -0.12745855       0.03108122      -0.01126502
Si       3.78609615       0.21949218       1.53958727       0.02429420      -0.14399756      -0.00321796
Si       2.07005270       0.21949218       9.95836921      -0.02429420      -0.14399756       0.00321795
Si      -0.85802173       0.21949218       7.28856551      -0.02429420      -0.14399756      -0.00321796
Si       6.71417058       0.21949218       4.20939097       0.02429420      -0.14399756       0.00321796
Si      -0.00000000       3.00895344       0.00000000       0.00000000       0.21639594      -0.00000000
Si       2.92807442       3.00895344       5.74897824      -0.00000000       0.21639594      -0.00000000
18
Lattice="5.842267573036913 0.0 0.0 0.0 4.8344709038673805 -4.475642269666204e-22 0.0 1.0890099985656327e-21 11.530771656392362" Properties=species:S:1:pos:R:3:forces:R:3 unique_starting_index=36 config_type=initial n_minim_iter=8 energy=-2929.4758866342513 stress="-0.00013075828668197438 -7.421315157260029e-12 1.5756320206730957e-12 -7.421315157260029e-12 7.051663364776703e-06 -1.1326171849151012e-11 1.5756320206730957e-12 -1.1326171849151012e-11 -2.9450649968784436e-05" free_energy=-2929.4758866342513 pbc="T T T"
Si       4.32968464       4.73574896      10.70829784       0.07918343      -0.04310548      -0.01898126
Si       1.51258293       4.73574896       0.82247382      -0.07918343      -0.04310548       0.01898126
Si       4.43371672       4.73574896       4.94291201      -0.07918343      -0.04310548      -0.01898126
Si       1.40855085       4.73574896       6.58785964       0.07918343      -0.04310548       0.01898126
Si      -0.02437532       1.55730106       1.87212619       0.10059943       0.14450605       0.01752692
Si       5.86664289       1.55730106       9.65864547      -0.10059943       0.14450605      -0.01752692
Si       2.94550911       1.55730106       7.63751201      -0.10059943       0.14450605       0.01752692
Si       2.89675847       1.55730106       3.89325964       0.10059943       0.14450605      -0.01752692
Si       1.52726089       3.26547268       2.77724493      -0.12782879       0.01649100       0.00489256
Si       4.31500668       3.26547268       8.75352673       0.12782879       0.01649100      -0.00489256
Si       1.39387290       3.26547268       8.54263075       0.12782879       0.01649100       0.00489256
Si       4.44839468       3.26547268       2.98814090      -0.12782879       0.01649100      -0.00489256
Si       3.78741373       0.21871999       1.53688828      -0.00724284      -0.18257804      -0.02740934
Si       2.05485384       0.21871999       9.99388337       0.00724284      -0.18257804       0.02740934
Si      -0.86627994       0.21871999       7.30227411       0.00724284      -0.18257804      -0.02740934
Si       6.70854752       0.21871999       4.22849755      -0.00724284      -0.18257804       0.02740934
Si      -0.00000000       3.02231194       0.00000000      -0.00000000       0.12937293      -0.00000000
Si       2.92113379       3.02231194       5.76538583      -0.00000000       0.12937293       0.00000000
18
Lattice="5.811076280362768 0.0 0.0 0.0 4.856647727431527 -4.423962724146778e-22 0.0 1.1168565744466697e-21 11.64369698539614" Properties=species:S:1:pos:R:3:forces:R:3 unique_starting_index=36 config_type=initial n_minim_iter=9 energy=-2929.5035010225865 stress="-0.00016778318476504063 -1.3322623381013238e-11 -5.47286165443125e-13 -1.3322623381013238e-11 0.003408346642978809 2.8260029264472277e-13 -5.47286165443125e-13 2.8260029264472277e-13 0.0052966129462727355" free_energy=-2929.5035010225865 pbc="T T T"
Si       4.30122182       4.75185867      10.77824363       0.03478760       0.06353830       0.00892367
Si       1.50985446       4.75185867       0.86545335      -0.03478760       0.06353830      -0.00892367
Si       4.41539260       4.75185867       4.95639514      -0.03478760       0.06353830       0.00892367
Si       1.39568368       4.75185867       6.68730185       0.03478760       0.06353830      -0.00892367
Si      -0.04033728       1.57973797       1.84376980       0.12595972       0.24187994       0.02553083
Si       5.85141356       1.57973797       9.79992718      -0.12595972       0.24187994      -0.02553083
Si       2.94587542       1.57973797       7.66561829      -0.12595972       0.24187994       0.02553083
Si       2.86520086       1.57973797       3.97807869       0.12595972       0.24187994      -0.02553083
Si       1.47428708       3.26877054       2.81900421      -0.08049066       0.02203388      -0.00857154
Si       4.33678920       3.26877054       8.82469278       0.08049066       0.02203388       0.00857154
Si       1.43125106       3.26877054       8.64085270       0.08049066       0.02203388      -0.00857154
Si       4.37982522       3.26877054       3.00284428      -0.08049066       0.02203388       0.00857154
Si       3.80355487       0.20008415       1.51904785      -0.08871381      -0.27465372      -0.11148093
Si       2.00752141       0.20008415      10.12464913       0.08871381      -0.27465373       0.11148093
Si      -0.89801673       0.20008415       7.34089635       0.08871381      -0.27465373      -0.11148093
Si       6.70909301       0.20008415       4.30280064      -0.08871381      -0.27465372       0.11148093
Si      -0.00000000       3.07945960       0.00000000      -0.00000000      -0.10559678      -0.00000000
Si       2.90553814       3.07945960       5.82184849      -0.00000000      -0.10559678       0.00000000
18
Lattice="5.816046523417074 0.0 0.0 0.0 4.852402861810784 -4.637056738695955e-22 0.0 1.0714676217855843e-21 11.703082052333144" Properties=species:S:1:pos:R:3:forces:R:3 unique_starting_index=36 config_type=initial n_minim_iter=10 energy=-2929.5427958368978 stress="0.0011266972764969487 -4.054867289070128e-13 1.7108071587857961e-12 -4.054867289070128e-13 0.0022612499744607013 7.32614891948822e-12 1.7108071587857961e-12 7.32614891948822e-12 0.0013022319717611215" free_energy=-2929.5427958368978 pbc="T T T"
Si       4.30519063       4.74318861      10.80261676      -0.01131886       0.18126657      -0.05438265
Si       1.51085590       4.74318861       0.90046529       0.01131887       0.18126657       0.05438265
Si       4.41887916       4.74318861       4.95107574       0.01131886       0.18126657      -0.05438265
Si       1.39716737       4.74318861       6.75200631      -0.01131886       0.18126657       0.05438265
Si      -0.04153903       1.62116412       1.81476825      -0.03831714      -0.05659276       0.03396450
Si       5.85758556       1.62116412       9.88831380       0.03831714      -0.05659276      -0.03396450
Si       2.94956229       1.62116412       7.66630928       0.03831714      -0.05659276       0.03396450
Si       2.86648423       1.62116412       4.03677277      -0.03831714      -0.05659276      -0.03396450
Si       1.42107350       3.24858532       2.84558626       0.07587291       0.04224440       0.01952074
Si       4.39497302       3.24858532       8.85749579      -0.07587291       0.04224440      -0.01952073
Si       1.48694976       3.24858532       8.69712729      -0.07587291       0.04224440       0.01952073
Si       4.32909676       3.24858532       3.00595476       0.07587291       0.04224440      -0.01952073
Si       3.83338019       0.15902768       1.48820770      -0.12937950      -0.11347992      -0.12127236
Si       1.98266633       0.15902768      10.21487435       0.12937950      -0.11347992       0.12127236
Si      -0.92535693       0.15902768       7.33974873       0.12937950      -0.11347992      -0.12127236
Si       6.74140345       0.15902768       4.36333332      -0.12937950      -0.11347992       0.12127236
Si      -0.00000000       3.11660744       0.00000000       0.00000000      -0.10687656      -0.00000000
Si       2.90802326       3.11660744       5.85154103       0.00000000      -0.10687656      -0.00000000
18
Lattice="5.822082472332134 0.0 0.0 0.0 4.839674913168789 -4.870376207314727e-22 0.0 1.0096158613608271e-21 11.663506399887757" Properties=species:S:1:pos:R:3:forces:R:3 unique_starting_index=36 config_type=initial n_minim_iter=11 energy=-2929.5499928538734 stress="-0.00015120410578256055 9.109445747316556e-12 -3.6251054085942267e-12 9.109445747316556e-12 -0.0005113810208059442 5.682148546665183e-12 -3.6251054085942267e-12 5.682148546665183e-12 0.0001655711983978859" free_energy=-2929.5499928538734 pbc="T T T"
Si       4.31328550       4.73454754      10.78178612      -0.00479985       0.12274526      -0.05478647
Si       1.50879697       4.73454754       0.88172028       0.00479985       0.12274526       0.05478647
Si       4.41983821       4.73454754       4.95003292       0.00479985       0.12274526      -0.05478647
Si       1.40224426       4.73454754       6.71347348      -0.00479985       0.12274526       0.05478647
Si      -0.03361656       1.60869175       1.83159940      -0.05851878      -0.06056848       0.00880214
Si       5.85569904       1.60869175       9.83190700       0.05851878      -0.06056847      -0.00880214
Si       2.94465780       1.60869175       7.66335260       0.05851878      -0.06056847       0.00880214
Si       2.87742467       1.60869175       4.00015380      -0.05851878      -0.06056847      -0.00880214
Si       1.44382097       3.24714241       2.82937636       0.04515617       0.03445380       0.00107647
Si       4.37826151       3.24714241       8.83413004      -0.04515617       0.03445379      -0.00107647
Si       1.46722027       3.24714241       8.66112956      -0.04515617       0.03445379       0.00107647
Si       4.35486220       3.24714241       3.00237684       0.04515617       0.03445379      -0.00107647
Si       3.81889874       0.16551877       1.49794335      -0.03686330      -0.07141516      -0.13856760
Si       2.00318373       0.16551877      10.16556305       0.03686329      -0.07141515       0.13856760
Si      -0.90785750       0.16551877       7.32969655       0.03686329      -0.07141516      -0.13856760
Si       6.72993998       0.16551877       4.33380985      -0.03686329      -0.07141516       0.13856760
Si      -0.00000000       3.08929893       0.00000000       0.00000000      -0.05043085       0.00000000
Si       2.91104124       3.08929893       5.83175320       0.00000000      -0.05043085      -0.00000000
18
Lattice="5.823326065160925 0.0 0.0 0.0 4.830657040726848 -5.126923173007754e-22 0.0 9.479769183988166e-22 11.67038070470123" Properties=species:S:1:pos:R:3:forces:R:3 unique_starting_index=36 config_type=initial n_minim_iter=12 energy=-2929.557603883732 stress="-0.0006946961064120789 3.9053459848573616e-13 5.351664672125798e-13 3.9053459848573616e-13 -0.0018952992783404443 -9.557959439505187e-12 5.351664672125798e-13 -9.557959439505187e-12 -0.0023897772683698503" free_energy=-2929.557603883732 pbc="T T T"
Si       4.30845925       4.73293517      10.77448401       0.08099013       0.05502296      -0.04694527
Si       1.51486682       4.73293517       0.89589669      -0.08099013       0.05502296       0.04694527
Si       4.42652985       4.73293517       4.93929366      -0.08099013       0.05502296      -0.04694527
Si       1.39679622       4.73293517       6.73108704       0.08099013       0.05502296       0.04694527
Si      -0.04430249       1.60756482       1.81652781      -0.01505683      -0.04467491       0.08119467
Si       5.86762856       1.60756482       9.85385290       0.01505684      -0.04467491      -0.08119467
Si       2.95596552       1.60756482       7.65171816       0.01505683      -0.04467491       0.08119467
Si       2.86736054       1.60756482       4.01866255      -0.01505684      -0.04467491      -0.08119467
Si       1.43460838       3.23535903       2.83615002       0.03735538       0.04299604       0.00937020
Si       4.38871768       3.23535903       8.83423069      -0.03735538       0.04299604      -0.00937020
Si       1.47705465       3.23535903       8.67134037      -0.03735538       0.04299604       0.00937020
Si       4.34627142       3.23535903       2.99904033       0.03735538       0.04299605      -0.00937020
Si       3.82868208       0.15973168       1.48007033      -0.05743481      -0.09733888      -0.05436982
Si       1.99464398       0.15973168      10.19031038       0.05743481      -0.09733888       0.05436982
Si      -0.91701905       0.15973168       7.31526068       0.05743481      -0.09733888      -0.05436982
Si       6.74034511       0.15973168       4.35512002      -0.05743481      -0.09733888       0.05436982
Si      -0.00000000       3.08780533       0.00000000       0.00000000       0.08798956      -0.00000000
Si       2.91166303       3.08780533       5.83519035      -0.00000000       0.08798956       0.00000000
18
Lattice="5.815031873749381 0.0 0.0 0.0 4.847380330832813 -5.407462194934725e-22 0.0 8.888343130046609e-22 11.70888068314391" Properties=species:S:1:pos:R:3:forces:R:3 unique_starting_index=36 config_type=initial n_minim_iter=13 energy=-2929.5703158328115 stress="0.0003144834550402276 -3.995947757378614e-12 -7.2272561151880884e-12 -3.995947757378614e-12 0.0018174022487963235 5.567448050329546e-12 -7.2272561151880884e-12 5.567448050329546e-12 0.00017976916080001643" free_energy=-2929.5703158328115 pbc="T T T"
Si       4.30800273       4.75946761      10.79656741       0.09256067      -0.00982248      -0.03146545
Si       1.50702915       4.75946761       0.91231327      -0.09256067      -0.00982248       0.03146545
Si       4.41454508       4.75946761       4.94212707      -0.09256067      -0.00982248      -0.03146545
Si       1.40048679       4.75946761       6.76675362       0.09256067      -0.00982248       0.03146545
Si      -0.04681802       1.61483605       1.81988209      -0.08182361       0.02068429       0.04099594