12
Lattice="6.083709999999998 -1.2011792804652604e-15 -1.5841815674210748e-15 2.1184903590629696 6.47302749669405 1.4148361130019516e-15 2.771469209309765 -0.6517934134075675 6.2545339531084485" Properties=species:S:1:pos:R:3:forces:R:3 unique_starting_index=78 config_type=initial n_minim_iter=1 energy=-1916.2197322249044 stress="-0.4253110190215419 -0.23723330406335222 -0.15706206022251945 -0.0877632755007499 -0.027980764074218154 -0.16932049662827336" pbc="T T T"
Si       2.85129089       2.73501131       2.97572275     -13.22706405      -2.41014309     -14.96907190
Si       6.69391309       2.12624470       2.56081448       2.83645392       1.25006495       6.21536697
Si       9.05254169       5.92885509       3.14652281      -0.33528088       0.87926400      -0.75054876
Si       4.73405965       1.43631427       2.72833904      -3.15325021      -3.34713927      -0.78036715
Si       4.51283400       4.33091496       2.45099174       1.46885115       1.26312621      -1.23457546
Si       5.96767113       5.74901016       5.84696225      32.56508295       6.39844127      -2.48315349
Si       5.95652179       0.79308692       0.19220746      -9.37833010       5.19501489      -0.14118578
Si       6.68211817       3.59170470       5.60107088       1.35924636      -0.40844907      -0.35681494
Si       4.59822050      -0.04827839       0.28511105     -22.31264876     -12.71004973       2.01558181
Si       6.98135788       1.93764771       0.63937474      16.16064014      15.30444904      -1.00625315
Si       3.93105450       2.93012854       4.24008554      11.90575802       2.77522777      17.36993536
Si       4.89816659       4.59731402       5.54595155     -17.88945853     -14.18980698      -3.87891351
12
Lattice="6.147830136388586 0.025584208228457493 0.004250559784164295 2.168039922422328 6.519941988786795 0.015550041359729629 2.8023083906278954 -0.6303703180060064 6.279312259022133" Properties=species:S:1:pos:R:3:forces:R:3 unique_starting_index=78 config_type=initial n_minim_iter=2 energy=-1918.5359984039555 stress="-0.3839773520425989 -0.20679558502716386 -0.14068392097585694 -0.07882550839327036 -0.022333604575570536 -0.14931455525332685" pbc="T T T"
Si       2.89358456       2.76927710       2.99369717     -12.58391558      -2.32251431     -14.15339802
Si       6.77548296       2.17257350       2.58066975       2.54967031       1.10675611       6.16726529
Si       9.17505009       6.00866223       3.17786355      -0.23709853       0.94200213      -0.76369676
Si       4.79158130       1.47024802       2.74527141      -2.68080224      -3.15692570      -0.72528779
Si       4.58047207       4.38077635       2.47294132       1.38429138       1.14548201      -1.21927094
Si       6.06212343       5.82122671       5.88606017      30.18885197       5.10168882      -2.61550964
Si       6.02182537       0.82372912       0.19882482      -9.29650878       5.13025204       0.33449336
Si       6.77170025       3.65302763       5.63523490       1.25525592      -0.43179492      -0.39758337
Si       4.64442029      -0.02989235       0.28952263     -20.12018875     -11.28867341       1.89162520
Si       7.06517360       1.98131924       0.65084748      14.47915933      13.61226367      -1.52738446
Si       3.98897663       2.97336815       4.26739173      11.16875106       2.70726072      16.38633661
Si       4.97118570       4.65552418       5.58048327     -16.10746609     -12.54579718      -3.37758949
12
Lattice="6.84854109515703 0.3052938883236967 0.04917136581417639 2.709653158587218 7.012450502422472 0.1828668208282731 3.1377360533889345 -0.3961771508499225 6.537354850778008" Properties=species:S:1:pos:R:3:forces:R:3 unique_starting_index=78 config_type=initial n_minim_iter=3 energy=-1933.9997994693608 stress="-0.14301218978977834 -0.04802427591648737 -0.03775278117093258 -0.02941398688693007 0.0007738820038723946 -0.0492800540597764" pbc="T T T"
Si       3.35339330       3.13295751       3.18242603      -6.54379596      -1.02227147      -6.53427430
Si       7.66652809       2.67182533       2.79069545       0.89914880       0.48145363       5.03670458
Si      10.51327984       6.86157307       3.50997190       0.18230100       1.36031355      -0.56687305
Si       5.41939333       1.83552912       2.92319983      -0.81100779      -1.59374146       0.08301285
Si       5.31929595       4.91146813       2.70546250       1.03244457       0.02181027      -1.51179738
Si       7.09569847       6.59153349       6.29865928      16.40357895      -1.03513678      -3.07374022
Si       6.73428653       1.15603402       0.26962009      -8.28502132       4.58590180       2.85935638
Si       7.74939220       4.31028101       5.99470395       0.69558667      -0.12371859      -0.76182449
Si       5.14757786       0.17048357       0.33547687      -7.88964381      -3.80250717       1.06408431
Si       7.98240308       2.45274207       0.77248421       5.61346492       4.76294665      -3.18695946
Si       4.62234211       3.43683390       4.55579948       5.77238173       1.43564673       8.24796580
Si       5.76629252       5.27510801       5.94404382      -7.06943776      -5.07069716      -1.65565500
12
Lattice="7.453612159866083 0.52512271805472 0.05544551872746464 3.1542495112320785 7.300993855801951 0.3096557667568031 3.3962780852104393 -0.19698111611465552 6.676174634376489" Properties=species:S:1:pos:R:3:forces:R:3 unique_starting_index=78 config_type=initial n_minim_iter=4 energy=-1939.1625524597011 stress="-0.048303340572923355 0.007917508938090753 0.00048216783238768117 -0.017479607757768457 -0.0011010176984272858 -0.014941265422374115" pbc="T T T"
Si       3.71958969       3.37676943       3.29403389      -2.83450342      -0.60329785      -3.12980409
Si       8.41481914       3.03498323       2.91024261      -0.04810671       0.40241588       3.56339268
Si      11.63195919       7.44642125       3.70715630      -0.10165250       0.81093774       0.46211227
Si       5.94190000       2.10212357       3.02032882      -0.80900727      -0.64738621       0.59343346
Si       5.93000751       5.26376379       2.84853934       0.21278131      -0.77273327      -2.03082183
Si       7.94925322       7.11147764       6.54843871      10.55151203      -1.42524102      -2.14845321
Si       7.33450632       1.40895132       0.30204984      -6.34916762       3.12759936       2.51860994
Si       8.55141910       4.77702761       6.20211458       0.16201430       0.04518697      -0.10000341
Si       5.57885814       0.32866913       0.34720169      -3.41817984      -1.31548850       0.91881508
Si       8.76569527       2.79367438       0.82666122       2.90223035       2.64334078      -3.37396812
Si       5.14087490       3.76347936       4.73527759       3.12489902       0.34264952       3.95297682
Si       6.40278151       5.69458087       6.16437005      -3.39281964      -2.60798340      -1.22628959
12
Lattice="7.826775003626282 0.643384420968991 0.07196405904449298 3.410023231813183 7.302156969836415 0.43581671206613665 3.5705866738497103 -0.022732245225451087 6.67426775082093" Properties=species:S:1:pos:R:3:forces:R:3 unique_starting_index=78 config_type=initial n_minim_iter=5 energy=-1941.0068940610115 stress="-0.016324432455098736 0.02377788325816899 0.012713296391767435 -0.01145596337001979 0.0006519172334582791 -0.009422959408876047" pbc="T T T"
Si       3.94045424       3.46465868       3.34323156      -1.44240607      -0.18540455      -2.14322307
Si       8.87444770       3.20252689       2.98072714      -0.41708660       0.09859523       2.85722270
Si      12.31120608       7.64706967       3.84519550      -0.39370414       0.49593542       0.65637911
Si       6.26317727       2.23342627       3.06255166      -0.84672410      -0.35508193       0.50728557
Si       6.29820085       5.36711594       2.93567827      -0.02226941      -0.78436551      -2.17076503
Si       8.49332487       7.30297821       6.66789806       6.79825819      -1.36593143      -1.63389640
Si       7.68829612       1.53038122       0.34186732      -4.34616485       2.27989693       1.57990383
Si       9.04722076       4.98915499       6.28918129      -0.32971629       0.53844103       0.61567535
Si       5.84175711       0.41671513       0.36061436      -1.77254307      -1.07774928       0.72148941
Si       9.25001335       2.93931058       0.87279043       2.06080404       1.95749995      -3.50218900
Si       5.46677799       3.90624256       4.81558355       2.11712860      -0.06616878       3.04606462
Si       6.78806515       5.85242535       6.25988893      -1.40557629      -1.53566709      -0.53394709
12
Lattice="8.02698845381979 0.7409527619253451 0.07393867473013338 3.583554320212687 7.110232397570619 0.5410372916768721 3.6533719005220346 0.14546682764271746 6.547764213679908" Properties=species:S:1:pos:R:3:forces:R:3 unique_starting_index=78 config_type=initial n_minim_iter=6 energy=-1942.452110569077 stress="-0.010265489625004929 0.018715471345408876 0.014276483555021386 -0.01156559986634001 0.0038546752097811253 -0.007639724356420693" pbc="T T T"
Si       4.06719638       3.45825135       3.32323855      -1.38636552       0.25855333      -1.95931105
Si       9.12757446       3.27920363       2.98191286      -0.25855028       0.12251819       3.03952665
Si      12.70326141       7.63825463       3.88842747      -0.51836054       0.38668696       0.74460522
Si       6.43632121       2.30120147       3.03808985      -0.76199227      -0.25839562       0.40540704
Si       6.51575594       5.32277901       2.95110579       0.12700049      -0.62898214      -2.23848611
Si       8.83256014       7.29372932       6.64651687       4.69722857      -0.75635178      -1.09842012
Si       7.86862238       1.60701855       0.36108074      -3.12303637       1.98673487       0.89186769
Si       9.32506501       5.06404214       6.24780641      -0.17171631       0.24962882       0.50896338
Si       5.97688543       0.49034521       0.35776693      -1.44775139      -1.13840136       0.26323246
Si       9.52881042       3.00247281       0.88091777       1.96745020       1.16053115      -3.63723654
Si       5.66088456       3.94042259       4.79831905       1.48596955      -0.47503015       3.43353821
Si       7.01118278       5.85124360       6.22812617      -0.60987612      -0.90749227      -0.35368682
12
Lattice="8.38674906178676 0.9428016581147305 -0.008214836857879477 3.9235972931288723 6.744296159309572 0.7686390132803883 3.711177045584653 0.5289066497983392 6.1494941054762355" Properties=species:S:1:pos:R:3:forces:R:3 unique_starting_index=78 config_type=initial n_minim_iter=7 energy=-1944.4722314951402 stress="0.003445369397095257 -0.001207665764775434 0.007288035620282534 -0.006746701593910164 0.0017264596394300565 -1.6261936080714877e-05" pbc="T T T"
Si       4.25570090       3.47707045       3.21347588      -0.31948941      -0.45399970      -0.80197074
Si       9.55528084       3.46825950       2.87263478      -0.29176413       0.65195077       2.84793526
Si      13.38395272       7.66754478       3.84207711      -0.19616325      -0.18519844       0.84175926
Si       6.70940855       2.46493626       2.88842223      -0.41639362       0.01249267      -0.05650128
Si       6.89312818       5.26504094       2.90324813       0.22508794      -0.23738808      -2.21378718
Si       9.39949807       7.34507259       6.46613768       1.04575124       1.51384575      -0.13465461
Si       8.18453298       1.76975440       0.31707013      -0.87395886       1.22822173       0.64829679
Si       9.76147322       5.26891870       6.00625303      -0.07030351      -1.91662630       0.32207869
Si       6.20444158       0.63945795       0.27765848      -0.24312052      -0.00907025      -1.37214911
Si      10.04595491       3.13916323       0.79205036       1.19238677      -0.03834066      -3.19532611
Si       5.96557804       4.05213521       4.67046502       0.40448271      -0.09575955       3.33652013
Si       7.35791987       5.90992204       6.04025999      -0.45651536      -0.47012794      -0.22220111
12
Lattice="8.271561111009742 0.9353974328684831 -0.04438013548762881 3.875608102846626 6.795129914630162 0.9165460341730893 3.622314998935621 0.6752383629772438 5.959154064985623" Properties=species:S:1:pos:R:3:forces:R:3 unique_starting_index=78 config_type=initial n_minim_iter=8 energy=-1945.2539241612612 stress="0.0025336545430685305 0.004860630482078015 0.010667452677892155 -0.0016415094701046449 0.001955730975994567 -0.004675437528292624" pbc="T T T"
Si       4.17273203       3.55824558       3.17992432      -0.40821482      -0.51504457      -0.85292196
Si       9.40663765       3.55945957       2.85624215      -0.33890212       0.46605163       2.16391139
Si      13.18134183       7.78334731       3.86571635      -0.00754838      -0.08492050       0.66768890
Si       6.59245301       2.53684154       2.82598351      -0.30913116       0.25801366      -0.19246864
Si       6.79204656       5.34551793       2.89495320       0.40973928       0.09799641      -2.08260249
Si       9.27249641       7.55283361       6.42867970       0.77109390       0.68627681      -0.31901909
Si       8.05651497       1.78909637       0.30937446      -0.57708729       0.98301071       0.52790535
Si       9.58697734       5.40563266       5.91211520      -0.11003430      -1.24588979       0.44158297
Si       6.11143029       0.63481615       0.22411368      -0.13852261      -0.21988944      -1.07743644
Si       9.93405141       3.15557442       0.74613225       0.86858842       0.11834584      -2.23887171
Si       5.86993990       4.19069593       4.65074775       0.33089518      -0.05946989       2.87602399
Si       7.21511847       6.06970281       5.98053513      -0.49087611      -0.48448086       0.08620774
12
Lattice="8.208143349520093 1.0491525244243687 -0.0844552732011481 3.974559223005379 6.7342231579878 0.910503257031106 3.5400368327813623 0.7448270296006786 5.693365161888158" Properties=species:S:1:pos:R:3:forces:R:3 unique_starting_index=78 config_type=initial n_minim_iter=9 energy=-1945.9751347134275 stress="-3.9958559019121296e-05 0.005555693329715253 0.009696134537208492 -0.005810730181626646 0.007018992257182133 -0.00941518495954182" pbc="T T T"
Si       4.16327624       3.55965327       3.03890606      -0.94018145      -0.49113067      -0.95585211
Si       9.35365637       3.66675714       2.73664656      -0.58062873       0.42509462       2.22120109
Si      13.17673782       7.86525081       3.69605878      -0.17248948       0.09895459       0.49003358
Si       6.54585888       2.60724394       2.68749607      -0.05028573       0.36885020      -0.53558231
Si       6.82006901       5.36182085       2.75235492       0.78274469       0.29684433      -1.82926285
Si       9.29909406       7.59801465       6.16422931       0.91929626       0.66282487      -0.35041534
Si       8.00128192       1.89707537       0.27252305      -1.05494257       1.05609104       0.68493992
Si       9.53860175       5.46645541       5.65204907       0.23278880      -1.67951571       0.35560411
Si       6.05637547       0.71350479       0.16974039      -0.34527693      -0.32609385      -0.65647712
Si       9.91520712       3.25552204       0.65499004       0.96928856       0.27712190      -1.64823076
Si       5.86200989       4.23646671       4.48889992       0.49775540       0.27332217       2.19904482
Si       7.19922376       6.08771196       5.73575967      -0.25806880      -0.96236347       0.02499697
12
Lattice="8.245003438267503 1.2211758366369936 -0.19837992564951043 4.1704264442684424 6.7388393677488825 0.9397356561452603 3.4212749806103635 0.8953380586150118 5.491650434008993" Properties=species:S:1:pos:R:3:forces:R:3 unique_starting_index=78 config_type=initial n_minim_iter=10 energy=-1946.7178610408737 stress="-0.00044919098678418434 0.004298719255651374 0.008984454452413826 -0.007511897063078673 0.009124630191545195 -0.009620992703136492" pbc="T T T"
Si       4.18322229       3.63369272       2.94063485      -1.12579642      -0.55936715      -0.85713791
Si       9.39509749       3.87421068       2.59338962      -0.56295606       0.30634779       1.95160124
Si      13.33711611       8.10557328       3.52204733      -0.39928706       0.24390303       0.49357196
Si       6.56412500       2.75902994       2.54862551       0.16442768       0.28306265      -0.50766025
Si       6.94155077       5.47932310       2.64442216       1.05823992       0.26634676      -1.53984299
Si       9.41130020       7.79598651       5.97517401       0.96530006       0.76503792      -0.35141020
Si       8.04135408       2.06490414       0.17645312      -1.17063819       0.93150191       0.67940468
Si       9.57164918       5.66943287       5.43509168       0.23749873      -1.67506381       0.24359889
Si       6.06807528       0.83790541       0.07169657      -0.13186800      -0.16391180      -0.54961368
Si      10.02475344       3.44694641       0.51799661       0.72804488      -0.01059265      -0.88762146
Si       5.89700325       4.38298014       4.36395422       0.56114660       0.52856928       1.45901288
Si       7.24409261       6.23310171       5.56525256      -0.32411214      -0.91583393      -0.13390315
12
Lattice="8.272150980387549 1.306558697616813 -0.27162900709506926 4.270726657973948 6.757776337767445 0.9601353856278829 3.349188658901134 0.9796789547671481 5.3948905733351795" Properties=species:S:1:pos:R:3:forces:R:3 unique_starting_index=78 config_type=initial n_minim_iter=11 energy=-1947.0897219915985 stress="0.0002503597753721808 0.003976970357334879 0.007285662276198744 -0.007598628575192652 0.008854024873172 -0.0098415404100973" pbc="T T T"
Si       4.18671989       3.68120966       2.89537346      -1.14446143      -0.56428739      -0.82333813
Si       9.41722052       3.98678866       2.51187110      -0.58126985       0.33247379       1.76198944
Si      13.41911845       8.24609680       3.42811844      -0.50296944       0.33949381       0.55131040
Si       6.57467669       2.84306560       2.47469969       0.22101599       0.21308786      -0.47810195
Si       7.00557330       5.55409720       2.59178816       1.13757387       0.19457500      -1.43416839
Si       9.46170872       7.92080847       5.88597790       0.99041157       0.72279304      -0.22328916
Si       8.06732423       2.14975770       0.11509817      -1.08935659       0.78293921       0.57118119
Si       9.58170125       5.78914350       5.32561443       0.14168952      -1.56119141       0.19497415
Si       6.08197600       0.90105574       0.01171794       0.01133879      -0.01824761      -0.53190283
Si      10.08594113       3.54729712       0.43784399       0.53214135      -0.19792293      -0.56714805
Si       5.90936379       4.47232704       4.30178874       0.66990768       0.52809150       1.22273104
Si       7.25711583       6.32639919       5.48565667      -0.38602147      -0.77180488      -0.24423772
12
Lattice="8.366117772559557 1.6331942871232024 -0.5289098897964245 4.650986219255176 6.859361145567884 1.0400216992934899 3.092495806848069 1.2934607750316711 5.105116525240904" Properties=species:S:1:pos:R:3:forces:R:3 unique_starting_index=78 config_type=initial n_minim_iter=12 energy=-1948.2200689135634 stress="0.0015141000295350114 0.0005313302177040797 -6.650943705417896e-05 -0.003695292224489202 0.0041525932943612485 -0.010768921133625297" pbc="T T T"
Si       4.20360846       3.86880044       2.76404437      -0.77404376      -0.32005839      -0.52210756
Si       9.49869967       4.42406554       2.25088693      -0.39555961       0.12139793       1.27088416
Si      13.72625675       8.80821910       3.13485881      -0.54186000       0.55557080       1.00952867
Si       6.62039330       3.16798340       2.23845215      -0.03257865       0.22495050      -0.44587913
Si       7.25792962       5.85891575       2.42940704       1.31076501      -0.46276016      -0.59826247
Si       9.66996416       8.42154985       5.62796169       0.36387802       1.17933865      -0.49187861
Si       8.15884074       2.47380941      -0.09661200      -0.85084919       0.43149075      -0.22993894
Si       9.62528040       6.25812994       4.98963981       0.24274598      -1.46223688       0.15698514
Si       6.13599676       1.14587683      -0.19668832       0.37006579       0.11002759      -0.40751155
Si      10.30219620       3.93662605       0.16523383       0.01669721      -0.43214860       0.13080787
Si       5.97185710       4.82560137       4.12044423       0.49753483       0.50838279       0.24578235
Si       7.31729243       6.69850271       5.25544816      -0.20679563      -0.45395499      -0.11840992
12
Lattice="8.45252082360832 2.1454434175958257 -0.6512827170747839 5.2261034975849014 7.193870673358685 1.1077823582509336 2.951167206891114 1.6177454071256712 5.088966616607889" Properties=species:S:1:pos:R:3:forces:R:3 unique_starting_index=78 config_type=initial n_minim_iter=13 energy=-1948.8702227861393 stress="-0.0031085583788154998 0.01587065377500437 0.0025184160573727622 -0.0007895852255098487 0.0028344801484705058 0.0032143295808892604" pbc="T T T"
Si       4.36185045       4.17948301       2.76669734      -0.23947426       0.21635637      -0.12756364
Si       9.69528034       5.09197329       2.20904272       0.45839652      -0.59274348       0.82409035
Si      14.26688616       9.78158737       3.11208732      -0.65912718       0.81133991       1.03142259
Si       6.75745646       3.64722893       2.18216861      -0.24990903       0.66345903      -0.13635948
Si       7.70826246       6.39503419       2.40492187       0.80957629      -0.98221398       0.49291288
Si      10.17708602       9.22772357       5.64612735      -0.03660318       0.92075596      -1.39161213
Si       8.27196504       2.97986003      -0.19241612      -1.04863949       0.49239952      -0.86092239
Si       9.88667743       6.96089635       4.94920999       0.60405764      -0.84641043       0.33088822
Si       6.21050525       1.53346280      -0.29727394       0.37877065       0.26881589       0.02765266
Si      10.55348927       4.58129319       0.05828828       0.07378724       0.02075713      -0.19280884
Si       6.22753968       5.34270082       4.13434013       0.06764115      -0.32031551      -0.09893918
Si       7.63275592       7.28485888       5.27431482      -0.15847635      -0.65220043       0.10123897
12
Lattice="8.530505808313729 1.996690219558348 -0.7405920486476903 5.094987270337434 6.730338252567736 1.0367437154262749 2.910813720605854 1.552848055773615 5.007252605020661" Properties=species:S:1:pos:R:3:forces:R:3 unique_starting_index=78 config_type=initial n_minim_iter=14 energy=-1948.9562554285712 stress="-0.008161413559006327 -0.025011318045824352 -0.01597636815095121 -0.004344998420083092 -0.0005710434724485189 -0.004753460875741754" pbc="T T T"
Si       4.28476196       3.92739913       2.69066484      -0.19086616       0.13290671      -0.38851283
Si       9.69111736       4.77324975       2.08422680       0.59257180       0.02534569       0.64856345
Si      14.17441475       9.17359027       2.93988028      -1.15423960       1.27645728       0.82693870
Si       6.74354225       3.43188974       2.08722369      -0.37570144       0.30137955      -0.10358482
Si       7.64162141       5.98910244       2.29268595       1.07831324      -1.05453025       0.86987832
Si      10.04457047       8.67490898       5.46272028      -0.33163696       1.24371734      -1.80655444
Si       8.29373279       2.77151719      -0.28975200      -0.36201621       0.53952251      -0.96561054
Si       9.81332078       6.53716082       4.78751273      -0.16528868      -1.37054013       0.02537263
Si       6.28345125       1.43788815      -0.36395118      -0.12342338       0.02041873       0.19279583
Si      10.59292514       4.27846548      -0.06461982       0.01693263       0.39311134       0.46896454
Si       6.13911120       5.01971998       4.02066530       0.33688420      -0.78203339       0.14073346
Si       7.48974735       6.83624402       5.13511996       0.67847055      -0.72575537       0.09101569
12
Lattice="8.637693356696298 2.0822941260706673 -0.7359191750164092 5.2233944805001045 6.979605999792479 1.1071498413357808 2.9552763222621508 1.6362046405770685 5.1256143678847925" Properties=species:S:1:pos:R:3:forces:R:3 unique_starting_index=78 config_type=initial n_minim_iter=15 energy=-1949.1215658418394 stress="0.007735611705984956 0.007169051599625682 0.008444378422480591 -0.00027364760908109536 -0.0008329542519694258 -0.0029873991865348236" pbc="T T T"
Si       4.37036035       4.08469528       2.77554649      -0.04609475       0.24379289      -0.26102398
Si       9.84729683       4.97431274       2.17013101       0.40166111      -0.42079536       0.59451801
Si      14.41033270       9.54131837       3.08171525      -0.88692625       1.02793585       0.70774286
Si       6.84584233       3.57578840       2.16003223      -0.40911145       0.62995301      -0.06922630
Si       7.79283919       6.22451768       2.38771565       0.75988655      -0.96239894       0.64272477
Si      10.24568391       9.02567851       5.63780686      -0.31981897       1.00508524      -1.29507065
Si       8.40665851       2.88521382      -0.27373563      -0.30450720       0.39144875      -0.76465341
Si       9.97618305       6.79928222       4.93756970      -0.05007455      -0.92122558       0.39914587
Si       6.36035351       1.50058783      -0.35581555       0.41253967       0.04837501      -0.14100091
Si      10.74808449       4.45408274      -0.02605570      -0.09090531      -0.03374301       0.15286508
Si       6.25679178       5.22308044       4.14251378       0.26649183      -0.43341527      -0.12434943
Si       7.64576764       7.11233028       5.29304785       0.26685931      -0.57501259       0.15832809
12
Lattice="8.576655592603402 2.088535459672975 -0.7217581016451757 5.208780438945563 6.943413657944375 1.1029024686909081 2.9413602365663207 1.6340423325684768 5.0851468068504575" Properties=species:S:1:pos:R:3:forces:R:3 unique_starting_index=78 config_type=initial n_minim_iter=16 energy=-1949.1790666871793 stress="-5.748734129041427e-05 -0.00028951943061271185 0.0005653031614314085 -0.0011222001190734144 6.924721446506475e-05 -0.0016204469938234122" pbc="T T T"
Si       4.35340600       4.06820436       2.75579801      -0.12789046       0.22686691      -0.28674741
Si       9.79096534       4.96449178       2.16212942       0.53040650      -0.37604665       0.62212546
Si      14.32902217       9.51310642       3.07383816      -0.89432948       1.06422068       0.73841783
Si       6.80499091       3.56956485       2.14918235      -0.39556907       0.56591383      -0.10115976
Si       7.75884730       6.19968141       2.37519411       0.78531422      -0.93009731       0.72806328
Si      10.20343887       8.99082727       5.59726745      -0.31495783       0.97393023      -1.42581735
Si       8.35000356       2.88505728      -0.26544857      -0.36528832       0.40968105      -0.83215837
Si       9.92218799       6.77412184       4.90544175       0.05529273      -0.92579449       0.31659166
Si       6.31917936       1.50680730      -0.34770606       0.22928763       0.09884044       0.00023279
Si      10.67864524       4.44877337      -0.01530133      -0.04458105       0.02790121       0.15833177
Si       6.23046890       5.20197726       4.11227618       0.25273012      -0.48912853      -0.06261010
Si       7.61557284       7.08150554       5.25522387       0.28958498      -0.64628737       0.14473020
12
Lattice="8.580785346622577 2.099950385850009 -0.7198004375577285 5.222363922558624 6.954078282001804 1.1094235197607225 2.944031236484652 1.6442111017657854 5.083836511166412" Properties=species:S:1:pos:R:3:forces:R:3 unique_starting_index=78 config_type=initial n_minim_iter=17 energy=-1949.21084258101 stress="-0.0006049087293838346 0.0005111099915563481 0.0007866612966569909 -0.0009493894946122673 0.00028218552690176154 -0.001216763781523086" pbc="T T T"
Si       4.36099098       4.07872275       2.75777236      -0.13123038       0.23295740      -0.28162559
Si       9.80330397       4.98267495       2.16667494       0.54201643      -0.39589169       0.62258722
Si      14.34255742       9.54190802       3.08600665      -0.87446802       1.03912430       0.71383012
Si       6.81027373       3.58339884       2.15206429      -0.40147560       0.57542819      -0.09735884
Si       7.77395590       6.21436129       2.38052266       0.75375072      -0.90541874       0.73121891
Si      10.22211473       9.01516086       5.59984816      -0.31878714       0.94144275      -1.40636350
Si       8.35452077       2.89642470      -0.26482294      -0.35190456       0.40862845      -0.82824558
Si       9.93225957       6.79183122       4.90899221       0.08734215      -0.87990288       0.33012873
Si       6.32441112       1.51657377      -0.34644734       0.22270969       0.10262678       0.00796626
Si      10.68693491       4.46482611      -0.01072707      -0.04220101       0.00866653       0.13265010
Si       6.24092728       5.21531495       4.11402729       0.24548050      -0.47473501      -0.07178495
Si       7.62926661       7.09835536       5.25872625       0.26876721      -0.65292607       0.14699714
12
Lattice="8.603870259218372 2.1240576527011874 -0.7202055239479087 5.256052603638391 6.964866650571112 1.1208372484863884 2.951548448864707 1.666117044032281 5.074105720849094" Properties=species:S:1:pos:R:3:forces:R:3 unique_starting_index=78 config_type=initial n_minim_iter=18 energy=-1949.2962797249093 stress="-0.001635387125857861 0.0012327793803018777 0.0008128632211118572 -0.0007466946860545578 0.0006504872624516065 -0.0005438979165108871" pbc="T T T"
Si       4.38107622       4.09597425       2.75702130      -0.13109215       0.24359106      -0.28089415
Si       9.84533309       5.01742397       2.16961900       0.55370200      -0.41027899       0.62068065