18
Lattice="6.93818 -4.2484099644540916e-16 -4.2484099644540916e-16 4.3330575512111565e-16 7.076419999999998 2.6532325303060044e-32 4.3330575512111565e-16 -5.30646506061201e-32 7.076419999999998" Properties=species:S:1:pos:R:3:forces:R:3 unique_starting_index=334 config_type=initial n_minim_iter=1 energy=-2830.02716295881 stress="-0.46354078386855746 -0.7483714323042806 -0.7483714323075047 2.8200940716813606e-12 5.033221112426754e-12 4.495576402730886e-12" pbc="T T T"
Si       2.99135121       0.13207147       4.32723295      10.18387703     -14.66228521      15.24311636
Si       2.99135121       6.94434853       2.74918705      10.18387703      14.66228521     -15.24311636
Si       6.46044121       0.78902295       3.40613853      10.18387703      15.24311636      14.66228521
Si       6.46044121       6.28739705       3.67028147      10.18387703     -15.24311636     -14.66228521
Si       0.47773879       3.40613853       6.28739705     -10.18387703      14.66228521     -15.24311636
Si       0.47773879       3.67028147       0.78902295     -10.18387703     -14.66228521      15.24311636
Si       3.94682879       2.74918705       0.13207147     -10.18387703     -15.24311636     -14.66228521
Si       3.94682879       4.32723295       6.94434853     -10.18387703      15.24311636      14.66228521
Si       4.67833498       4.77155995       5.58485007      -3.94095723      -8.34961901     -11.17133470
Si       4.67833498       2.30486005       1.49156993      -3.94095723       8.34961901      11.17133470
Si       1.20924498       2.04664007       5.84307005      -3.94095723     -11.17133470       8.34961901
Si       1.20924498       5.02977993       1.23334995      -3.94095723      11.17133470      -8.34961901
Si       5.72893502       5.84307005       5.02977993       3.94095723       8.34961901      11.17133470
Si       5.72893502       1.23334995       2.04664007       3.94095723      -8.34961901     -11.17133470
Si       2.25984502       1.49156993       4.77155995       3.94095723      11.17133470      -8.34961901
Si       2.25984502       5.58485007       2.30486005       3.94095723     -11.17133470       8.34961901
Si       0.00000000       3.53821000       3.53821000      -0.00000000      -0.00000000       0.00000000
Si       3.46909000       7.07642000      -0.00000000      -0.00000000       0.00000000       0.00000000
18
Lattice="7.050824016755237 -4.312880536016092e-16 -4.312880536016092e-16 4.451792557128627e-16 7.262826840346201 5.518952024265948e-32 4.451792557128627e-16 -8.096667480219458e-32 7.262826840346201" Properties=species:S:1:pos:R:3:forces:R:3 unique_starting_index=334 config_type=initial n_minim_iter=2 energy=-2845.4623370013255 stress="-0.35667382803363673 -0.5968834653107954 -0.5968834653049135 5.14544540464553e-12 -1.0637089644959518e-12 3.943133143610417e-12" pbc="T T T"
Si       3.04095187       0.13404564       4.44278525       8.62717672     -12.35800476      12.04360210
Si       3.04095187       7.12878120       2.82004159       8.62717672      12.35800476     -12.04360210
Si       6.56636388       0.81137183       3.49736778       8.62717672      12.04360210      12.35800476
Si       6.56636388       6.45145501       3.76545906       8.62717673     -12.04360210     -12.35800476
Si       0.48446014       3.49736778       6.45145501      -8.62717672      12.35800475     -12.04360210
Si       0.48446014       3.76545906       0.81137183      -8.62717673     -12.35800476      12.04360210
Si       4.00987215       2.82004159       0.13404564      -8.62717673     -12.04360210     -12.35800476
Si       4.00987215       4.44278525       7.12878120      -8.62717672      12.04360210      12.35800476
Si       4.75388905       4.89639528       5.73081946      -2.37759259      -6.19021777      -9.41546755
Si       4.75388905       2.36643156       1.53200738      -2.37759259       6.19021777       9.41546755
Si       1.22847704       2.09940604       5.99784498      -2.37759259      -9.41546755       6.19021777
Si       1.22847704       5.16342080       1.26498186      -2.37759259       9.41546755      -6.19021777
Si       5.82234697       5.99784498       5.16342080       2.37759259       6.19021778       9.41546755
Si       5.82234697       1.26498186       2.09940604       2.37759259      -6.19021777      -9.41546755
Si       2.29693497       1.53200738       4.89639528       2.37759259       9.41546755      -6.19021778
Si       2.29693497       5.73081946       2.36643156       2.37759259      -9.41546755       6.19021777
Si       0.00000000       3.63141342       3.63141342       0.00000000       0.00000000      -0.00000000
Si       3.52541201       7.26282684      -0.00000000      -0.00000000       0.00000000       0.00000000
18
Lattice="7.6895040710201785 -4.679642839130245e-16 -4.679642839130245e-16 5.171263123211681e-16 8.397036493240746 1.0335873911853554e-15 5.1712631232116805e-16 -1.418584489692507e-15 8.397036493240746" Properties=species:S:1:pos:R:3:forces:R:3 unique_starting_index=334 config_type=initial n_minim_iter=3 energy=-2893.102109096162 stress="-0.029757752547602257 -0.13484384492796117 -0.13484384493005586 2.9129037603910195e-13 -4.832494409504793e-12 -1.810046280242739e-12" pbc="T T T"
Si       3.32275980       0.14514103       5.14618686       3.44410055      -4.70710738       4.61828712
Si       3.32275980       8.25189546       3.25084963       3.44410055       4.70710738      -4.61828712
Si       7.16751183       0.94766861       4.05337722       3.44410055       4.61828712       4.70710738
Si       7.16751183       7.44936788       4.34365927       3.44410055      -4.61828712      -4.70710738
Si       0.52199224       4.05337722       7.44936788      -3.44410055       4.70710738      -4.61828712
Si       0.52199224       4.34365927       0.94766861      -3.44410055      -4.70710738       4.61828712
Si       4.36674427       3.25084963       0.14514103      -3.44410055      -4.61828712      -4.70710738
Si       4.36674427       5.14618686       8.25189546      -3.44410055       4.61828712       4.70710738
Si       5.18275698       5.65611984       6.61828548       0.24663448      -0.04556910      -3.79978022
Si       5.18275698       2.74091665       1.77875101       0.24663448       0.04556910       3.79978022
Si       1.33800494       2.41976723       6.93943490       0.24663448      -3.79978022       0.04556910
Si       1.33800494       5.97726926       1.45760160       0.24663448       3.79978022      -0.04556910
Si       6.35149913       6.93943490       5.97726926      -0.24663448       0.04556910       3.79978022
Si       6.35149913       1.45760160       2.41976723      -0.24663448      -0.04556910      -3.79978022
Si       2.50674709       1.77875101       5.65611984      -0.24663448       3.79978022      -0.04556910
Si       2.50674709       6.61828548       2.74091665      -0.24663448      -3.79978022       0.04556910
Si       0.00000000       4.19851825       4.19851825       0.00000000      -0.00000000       0.00000000
Si       3.84475204       8.39703649       0.00000000       0.00000000      -0.00000000       0.00000000
18
Lattice="7.80500679566996 -4.906383109564548e-16 -4.906383109564551e-16 5.379527733956158e-16 8.983934026828646 -8.696770602522139e-16 5.379527733956158e-16 -1.399402778684974e-15 8.983934026828647" Properties=species:S:1:pos:R:3:forces:R:3 unique_starting_index=334 config_type=initial n_minim_iter=4 energy=-2901.6794007282106 stress="-0.005010876399972549 -0.07450820413208056 -0.07450820413166616 -1.1198852280875836e-12 -6.235436975281751e-12 7.429092235968158e-13" pbc="T T T"
Si       3.37663828       0.14873271       5.51230049       2.00645667      -2.73816956       2.41404891
Si       3.37663828       8.83520131       3.47163353       2.00645667       2.73816956      -2.41404891
Si       7.27914168       1.02033348       4.34323430       2.00645667       2.41404891       2.73816956
Si       7.27914168       7.96360055       4.64069973       2.00645667      -2.41404891      -2.73816956
Si       0.52586512       4.34323430       7.96360055      -2.00645667       2.73816956      -2.41404891
Si       0.52586512       4.64069973       1.02033348      -2.00645667      -2.73816956       2.41404891
Si       4.42836852       3.47163353       0.14873271      -2.00645667      -2.41404891      -2.73816956
Si       4.42836852       5.51230049       8.83520131      -2.00645667       2.41404891       2.73816956
Si       5.26089042       6.05138192       7.07557040      -0.15727457      -0.96798075      -2.04284971
Si       5.26089042       2.93255210       1.90836363      -0.15727457       0.96798075       2.04284971
Si       1.35838703       2.58360339       7.42451912      -0.15727457      -2.04284971       0.96798075
Si       1.35838703       6.40033064       1.55941491      -0.15727457       2.04284971      -0.96798075
Si       6.44661977       7.42451912       6.40033064       0.15727457       0.96798075       2.04284971
Si       6.44661977       1.55941491       2.58360339       0.15727457      -0.96798075      -2.04284971
Si       2.54411637       1.90836363       6.05138192       0.15727457       2.04284971      -0.96798075
Si       2.54411637       7.07557040       2.93255210       0.15727457      -2.04284971       0.96798075
Si       0.00000000       4.49196701       4.49196701      -0.00000000      -0.00000000       0.00000000
Si       3.90250340       8.98393403      -0.00000000      -0.00000000      -0.00000000      -0.00000000
18
Lattice="7.864149919595904 -5.467666091224076e-16 -5.467666091224078e-16 5.556854996190465e-16 10.051144584181069 -1.8129149703156623e-15 5.556854996190466e-16 1.1822262170769498e-15 10.051144584181067" Properties=species:S:1:pos:R:3:forces:R:3 unique_starting_index=334 config_type=initial n_minim_iter=5 energy=-2906.9046784224997 stress="0.02849349614076254 0.017184602324030046 0.01718460232713077 2.2555915186410952e-12 8.458265167581146e-13 6.893122728506751e-13" pbc="T T T"
Si       3.40834340       0.15459256       6.17752271       0.15525999      -0.12228337       0.93218440
Si       3.40834340       9.89655202       3.87362187       0.15525999       0.12228337      -0.93218440
Si       7.34041836       1.15195042       4.87097973       0.15525999       0.93218440       0.12228337
Si       7.34041836       8.89919417       5.18016486       0.15525999      -0.93218440      -0.12228337
Si       0.52373156       4.87097973       8.89919417      -0.15525999       0.12228337      -0.93218440
Si       0.52373156       5.18016486       1.15195042      -0.15525999      -0.12228337       0.93218440
Si       4.45580652       3.87362187       0.15459256      -0.15525999      -0.93218440      -0.12228337
Si       4.45580652       6.17752271       9.89655202      -0.15525999       0.93218440       0.12228337
Si       5.30027570       6.76605729       7.90727481       0.01851810      -0.03087974      -0.08660236
Si       5.30027570       3.28508730       2.14386977       0.01851810       0.03087974       0.08660236
Si       1.36820074       2.88170252       8.31065959       0.01851810      -0.08660236       0.03087974
Si       1.36820074       7.16944207       1.74048499       0.01851810       0.08660236      -0.03087974
Si       6.49594918       8.31065959       7.16944207      -0.01851810       0.03087974       0.08660236
Si       6.49594918       1.74048499       2.88170252      -0.01851810      -0.03087974      -0.08660236
Si       2.56387422       2.14386977       6.76605729      -0.01851810       0.08660236      -0.03087974
Si       2.56387422       7.90727481       3.28508730      -0.01851810      -0.08660236       0.03087974
Si       0.00000000       5.02557229       5.02557229       0.00000000      -0.00000000      -0.00000000
Si       3.93207496      10.05114458      -0.00000000       0.00000000       0.00000000       0.00000000
18
Lattice="7.559007633116807 -6.66311471022266e-16 -6.663114710222659e-16 4.0254980620293546e-16 9.814087709537597 -2.3715290598379627e-15 4.025498062029353e-16 3.444350610755979e-15 9.814087709537588" Properties=species:S:1:pos:R:3:forces:R:3 unique_starting_index=334 config_type=initial n_minim_iter=6 energy=-2907.867765958638 stress="0.017826838672912876 -0.013045509561738127 -0.01304550955745168 3.1169866412194254e-12 -1.6644046140674266e-12 3.199164003667183e-13" pbc="T T T"
Si       3.27642910       0.15052538       6.03503561       0.58668231      -0.59411783       0.95147334
Si       3.27642910       9.66356233       3.77905210       0.58668231       0.59411783      -0.95147334
Si       7.05593292       1.12799176       4.75651847       0.58668231       0.95147334       0.59411783
Si       7.05593292       8.68609595       5.05756924       0.58668231      -0.95147334      -0.59411783
Si       0.50307471       4.75651847       8.68609595      -0.58668231       0.59411783      -0.95147334
Si       0.50307471       5.05756924       1.12799176      -0.58668231      -0.59411783       0.95147334
Si       4.28257853       3.77905210       0.15052538      -0.58668231      -0.95147334      -0.59411783
Si       4.28257853       6.03503561       9.66356233      -0.58668231       0.95147334       0.59411783
Si       5.09465604       6.60637306       7.72048300      -0.29446536      -0.80181157      -0.40101124
Si       5.09465604       3.20771465       2.09360470      -0.29446536       0.80181157       0.40101124
Si       1.31515222       2.81343915       8.11475850      -0.29446536      -0.40101124       0.80181157
Si       1.31515222       7.00064856       1.69932921      -0.29446536       0.40101124      -0.80181157
Si       6.24385541       8.11475850       7.00064856       0.29446536       0.80181157       0.40101124
Si       6.24385541       1.69932921       2.81343915       0.29446536      -0.80181157      -0.40101124
Si       2.46435160       2.09360470       6.60637306       0.29446536       0.40101124      -0.80181157
Si       2.46435160       7.72048300       3.20771465       0.29446536      -0.40101124       0.80181157
Si       0.00000000       4.90704385       4.90704385       0.00000000      -0.00000000      -0.00000000
Si       3.77950382       9.81408771      -0.00000000      -0.00000000       0.00000000       0.00000000
18
Lattice="7.436865839381059 -7.704447665377842e-16 -7.704447665377837e-16 3.02778494868558e-16 9.931783246525418 -6.133430740868244e-15 3.027784948685582e-16 6.05996812101171e-15 9.93178324652541" Properties=species:S:1:pos:R:3:forces:R:3 unique_starting_index=334 config_type=initial n_minim_iter=7 energy=-2908.2676382840127 stress="0.014622311641004236 -0.005347064237366471 -0.005347064238500235 -3.7323959111755723e-13 1.845818473670271e-12 1.7788105068174258e-12" pbc="T T T"
Si       3.22434703       0.15087906       6.10973539       0.48737704      -0.39722437       0.94507808
Si       3.22434703       9.78090418       3.82204786       0.48737704       0.39722436      -0.94507808
Si       6.94277995       1.14384377       4.81501256       0.48737704       0.94507808       0.39722437
Si       6.94277995       8.78793948       5.11677069       0.48737704      -0.94507808      -0.39722437
Si       0.49408589       4.81501256       8.78793948      -0.48737704       0.39722436      -0.94507808
Si       0.49408589       5.11677069       1.14384377      -0.48737704      -0.39722436       0.94507808
Si       4.21251881       3.82204786       0.15087906      -0.48737704      -0.94507808      -0.39722436
Si       4.21251881       6.10973539       9.78090418      -0.48737704       0.94507808       0.39722437
Si       5.01190272       6.68364114       7.81209125      -0.20632124      -0.74146387      -0.26895469
Si       5.01190272       3.24814211       2.11969199      -0.20632124       0.74146387       0.26895469
Si       1.29346980       2.84619963       8.21403373      -0.20632124      -0.26895469       0.74146387
Si       1.29346980       7.08558362       1.71774951      -0.20632124       0.26895469      -0.74146387
Si       6.14339604       8.21403373       7.08558362       0.20632124       0.74146387       0.26895469
Si       6.14339604       1.71774951       2.84619963       0.20632124      -0.74146387      -0.26895469
Si       2.42496312       2.11969199       6.68364114       0.20632124       0.26895469      -0.74146387
Si       2.42496312       7.81209125       3.24814211       0.20632124      -0.26895469       0.74146387
Si       0.00000000       4.96589162       4.96589162       0.00000000      -0.00000000      -0.00000000
Si       3.71843292       9.93178325      -0.00000000       0.00000000       0.00000000       0.00000000
18
Lattice="7.235697075373855 -8.648204371956643e-16 -8.648204371956635e-16 2.1162229580566712e-16 10.031879479344578 -6.296110257199945e-15 2.11622295805667e-16 5.7090898567708435e-15 10.031879479344566" Properties=species:S:1:pos:R:3:forces:R:3 unique_starting_index=334 config_type=initial n_minim_iter=8 energy=-2908.538481130188 stress="-0.0006730863139482877 -0.0036006775929553745 -0.003600677591703148 2.4385252165367163e-12 4.51858188055617e-12 1.3645711999308771e-12" pbc="T T T"
Si       3.13852060       0.15037913       6.17611889       0.62734174      -0.31095610       1.16593178
Si       3.13852060       9.88150035       3.85576059       0.62734174       0.31095610      -1.16593178
Si       6.75636914       1.16017915       4.86556061       0.62734174       1.16593178       0.31095610
Si       6.75636914       8.87170033       5.16631887       0.62734174      -1.16593178      -0.31095610
Si       0.47932794       4.86556061       8.87170033      -0.62734174       0.31095610      -1.16593178
Si       0.47932794       5.16631887       1.16017915      -0.62734174      -0.31095610       1.16593178
Si       4.09717648       3.85576059       0.15037913      -0.62734174      -1.16593178      -0.31095610
Si       4.09717648       6.17611889       9.88150035      -0.62734174       1.16593178       0.31095610
Si       4.87574009       6.74722979       7.88945635       0.01286235      -0.75410536      -0.25500453
Si       4.87574009       3.28464969       2.14242313       0.01286235       0.75410536       0.25500453
Si       1.25789155       2.87351661       8.30058943       0.01286235      -0.25500453       0.75410536
Si       1.25789155       7.15836287       1.73129005       0.01286235       0.25500453      -0.75410536
Si       5.97780553       8.30058943       7.15836287      -0.01286235       0.75410536       0.25500453
Si       5.97780553       1.73129005       2.87351661      -0.01286235      -0.75410536      -0.25500453
Si       2.35995699       2.14242313       6.74722979      -0.01286235       0.25500453      -0.75410536
Si       2.35995699       7.88945635       3.28464969      -0.01286235      -0.25500453       0.75410536
Si       0.00000000       5.01593974       5.01593974      -0.00000000      -0.00000000       0.00000000
Si       3.61784854      10.03187948      -0.00000000      -0.00000000       0.00000000       0.00000000
18
Lattice="7.244526739777198 -9.4887544115443e-16 -9.488754411544293e-16 1.3254127385695615e-16 10.097541189246837 -7.371006856427002e-15 1.3254127385695615e-16 7.361012824648142e-15 10.097541189246826" Properties=species:S:1:pos:R:3:forces:R:3 unique_starting_index=334 config_type=initial n_minim_iter=9 energy=-2908.616298902753 stress="0.006190341859154806 0.0047018126144736695 0.004701812616121045 5.216095769800155e-13 2.618066572584728e-12 2.0206185821661463e-12" pbc="T T T"
Si       3.14405027       0.14979827       6.22241197       0.52105043      -0.20922647       1.04734463
Si       3.14405027       9.94774292       3.87512922       0.52105043       0.20922647      -1.04734463
Si       6.76631364       1.17364138       4.89897233       0.52105043       1.04734463       0.20922647
Si       6.76631364       8.92389981       5.19856886       0.52105043      -1.04734463      -0.20922647
Si       0.47821310       4.89897233       8.92389981      -0.52105043       0.20922647      -1.04734463
Si       0.47821310       5.19856886       1.17364138      -0.52105043      -0.20922647       1.04734463
Si       4.10047647       3.87512922       0.14979827      -0.52105043      -1.04734463      -0.20922647
Si       4.10047647       6.22241197       9.94774292      -0.52105043       1.04734463       0.20922647
Si       4.88172477       6.78759682       7.93981173       0.13570309      -0.59885891      -0.23478731
Si       4.88172477       3.30994437       2.15772946       0.13570309       0.59885891       0.23478731
Si       1.25946140       2.89104114       8.35871496       0.13570309      -0.23478731       0.59885891
Si       1.25946140       7.20650005       1.73882623       0.13570309       0.23478731      -0.59885891
Si       5.98506534       8.35871496       7.20650005      -0.13570309       0.59885891       0.23478731
Si       5.98506534       1.73882623       2.89104114      -0.13570309      -0.59885891      -0.23478731
Si       2.36280197       2.15772946       6.78759682      -0.13570309       0.23478731      -0.59885891
Si       2.36280197       7.93981173       3.30994437      -0.13570309      -0.23478731       0.59885891
Si       0.00000000       5.04877059       5.04877059       0.00000000      -0.00000000      -0.00000000
Si       3.62226337      10.09754119      -0.00000000      -0.00000000       0.00000000       0.00000000
18
Lattice="7.21231850504775 -9.968102481536593e-16 -9.968102481536583e-16 7.987196066119555e-17 10.063425376074514 -4.783412420608707e-15 7.987196066119539e-17 6.6565028173595755e-15 10.0634253760745" Properties=species:S:1:pos:R:3:forces:R:3 unique_starting_index=334 config_type=initial n_minim_iter=10 energy=-2908.6680292428564 stress="0.0014208172185667415 -0.00029586671621824394 -0.00029586671826174033 -2.7412606812548704e-12 6.392927836368501e-12 -4.33944903296362e-12" pbc="T T T"
Si       3.13062334       0.14887842       6.20345983       0.61230644      -0.28854682       1.09306365
Si       3.13062334       9.91454695       3.85996555       0.61230644       0.28854682      -1.09306365
Si       6.73678259       1.17174714       4.88283426       0.61230644       1.09306365       0.28854682
Si       6.73678259       8.89167824       5.18059111       0.61230644      -1.09306365      -0.28854682
Si       0.47553591       4.88283426       8.89167824      -0.61230644       0.28854682      -1.09306365
Si       0.47553591       5.18059111       1.17174714      -0.61230644      -0.28854681       1.09306365
Si       4.08169517       3.85996555       0.14887842      -0.61230644      -1.09306365      -0.28854682
Si       4.08169517       6.20345983       9.91454695      -0.61230644       1.09306365       0.28854682
Si       4.86016478       6.76347987       7.91252180       0.12973180      -0.69330029      -0.27868193
Si       4.86016478       3.29994551       2.15090357       0.12973180       0.69330029       0.27868194
Si       1.25400552       2.88080911       8.33165820       0.12973180      -0.27868194       0.69330029
Si       1.25400552       7.18261626       1.73176718       0.12973180       0.27868193      -0.69330029
Si       5.95831298       8.33165820       7.18261626      -0.12973180       0.69330029       0.27868193
Si       5.95831298       1.73176718       2.88080911      -0.12973180      -0.69330029      -0.27868194
Si       2.35215373       2.15090357       6.76347987      -0.12973180       0.27868194      -0.69330029
Si       2.35215373       7.91252180       3.29994551      -0.12973180      -0.27868193       0.69330029
Si       0.00000000       5.03171269       5.03171269       0.00000000      -0.00000000       0.00000000
Si       3.60615925      10.06342538      -0.00000000      -0.00000000       0.00000000      -0.00000000
18
Lattice="7.205161779548819 -1.0277199841840217e-15 -1.0277199841840209e-15 4.853105466383498e-17 10.065506048202728 -4.532926237306967e-15 4.8531054663834904e-17 7.018615575343937e-15 10.065506048202716" Properties=species:S:1:pos:R:3:forces:R:3 unique_starting_index=334 config_type=initial n_minim_iter=11 energy=-2908.700750723951 stress="0.0014915109281309507 -0.00014804187760306415 -0.00014804188359022937 -5.70695436554546e-12 3.436491126078502e-12 -7.849583498626909e-13" pbc="T T T"
Si       3.12814918       0.14835084       6.20685762       0.61733739      -0.29267843       1.07946768
Si       3.12814918       9.91715521       3.85864842       0.61733739       0.29267843      -1.07946768
Si       6.73073007       1.17410460       4.88440219       0.61733739       1.07946768       0.29267843
Si       6.73073007       8.89140145       5.18110386       0.61733739      -1.07946768      -0.29267843
Si       0.47443171       4.88440219       8.89140145      -0.61733739       0.29267843      -1.07946768
Si       0.47443171       5.18110386       1.17410460      -0.61733739      -0.29267843       1.07946768
Si       4.07701260       3.85864842       0.14835084      -0.61733739      -1.07946768      -0.29267843
Si       4.07701260       6.20685762       9.91715521      -0.61733739       1.07946768       0.29267843
Si       4.85547605       6.76353665       7.91361848       0.15343750      -0.69263176      -0.28800286
Si       4.85547605       3.30196940       2.15188756       0.15343750       0.69263176       0.28800286
Si       1.25289516       2.88086546       8.33472243       0.15343750      -0.28800286       0.69263176
Si       1.25289516       7.18464059       1.73078362       0.15343750       0.28800286      -0.69263176
Si       5.95226662       8.33472243       7.18464059      -0.15343750       0.69263176       0.28800286
Si       5.95226662       1.73078362       2.88086546      -0.15343750      -0.69263176      -0.28800286
Si       2.34968573       2.15188756       6.76353665      -0.15343750       0.28800286      -0.69263176
Si       2.34968573       7.91361848       3.30196940      -0.15343750      -0.28800286       0.69263176
Si       0.00000000       5.03275302       5.03275302      -0.00000000      -0.00000000       0.00000000
Si       3.60258089      10.06550605      -0.00000000       0.00000000       0.00000000      -0.00000000
18
Lattice="7.178905245103776 -1.0468012858050654e-15 -1.0468012858050654e-15 2.938215269623156e-17 10.069154080209804 -4.8776133010262104e-15 2.938215269623153e-17 3.843700206206952e-15 10.069154080209797" Properties=species:S:1:pos:R:3:forces:R:3 unique_starting_index=334 config_type=initial n_minim_iter=12 energy=-2908.8146179690425 stress="0.001473209096515352 -9.155135695723774e-05 -9.155135645944305e-05 -2.561120737420335e-13 -1.1934154649005094e-12 -2.3583043385510774e-12" pbc="T T T"
Si       3.11897403       0.14641834       6.21643298       0.64138210      -0.31318633       1.03892577
Si       3.11897403       9.92273574       3.85272110       0.64138210       0.31318633      -1.03892577
Si       6.70842665       1.18185594       4.88815870       0.64138210       1.03892577       0.31318633
Si       6.70842665       8.88729814       5.18099538       0.64138210      -1.03892577      -0.31318633
Si       0.47047860       4.88815870       8.88729814      -0.64138210       0.31318633      -1.03892577
Si       0.47047860       5.18099538       1.18185594      -0.64138210      -0.31318633       1.03892577
Si       4.05993122       3.85272110       0.14641834      -0.64138210      -1.03892577      -0.31318633
Si       4.05993122       6.21643298       9.92273574      -0.64138210       1.03892577       0.31318633
Si       4.83833490       6.76128740       7.91453208       0.23062803      -0.70108134      -0.32089990
Si       4.83833490       3.30786668       2.15462200       0.23062803       0.70108134       0.32089989
Si       1.24888227       2.87995504       8.34244372       0.23062803      -0.32089990       0.70108134
Si       1.24888227       7.18919904       1.72671036       0.23062803       0.32089989      -0.70108134
Si       5.93002297       8.34244372       7.18919904      -0.23062803       0.70108134       0.32089990
Si       5.93002297       1.72671036       2.87995504      -0.23062803      -0.70108134      -0.32089990
Si       2.34057035       2.15462200       6.76128740      -0.23062803       0.32089989      -0.70108134
Si       2.34057035       7.91453208       3.30786668      -0.23062803      -0.32089989       0.70108134
Si       0.00000000       5.03457704       5.03457704       0.00000000      -0.00000000       0.00000000
Si       3.58945262      10.06915408      -0.00000000      -0.00000000       0.00000000      -0.00000000
18
Lattice="7.140768426366317 -1.058663021958467e-15 -1.0586630219584675e-15 1.757602004430158e-17 10.072487635199437 -6.154803130616776e-15 1.757602004430156e-17 2.1510618272813265e-15 10.072487635199433" Properties=species:S:1:pos:R:3:forces:R:3 unique_starting_index=334 config_type=initial n_minim_iter=13 energy=-2908.9833823209656 stress="0.0016149090770624134 -0.00019751360319792796 -0.00019751360603028852 -3.877703633474948e-12 2.7832285501173013e-12 1.2286225934764734e-12" pbc="T T T"
Si       3.10579779       0.14331588       6.22894355       0.67651044      -0.34129435       0.99024741
Si       3.10579779       9.92917175       3.84354409       0.67651043       0.34129435      -0.99024741
Si       6.67618201       1.19269973       4.89292794       0.67651043       0.99024742       0.34129435
Si       6.67618201       8.87978791       5.17955970       0.67651044      -0.99024742      -0.34129435
Si       0.46458642       4.89292794       8.87978791      -0.67651044       0.34129435      -0.99024741
Si       0.46458642       5.17955970       1.19269973      -0.67651044      -0.34129435       0.99024741
Si       4.03497063       3.84354409       0.14331588      -0.67651043      -0.99024741      -0.34129435
Si       4.03497063       6.22894355       9.92917175      -0.67651043       0.99024741       0.34129435
Si       4.81385199       6.75647233       7.91392377       0.33361791      -0.72676223      -0.36005361