20
Lattice="4.028745541000632 -0.740773352648247 0.6056578795035358 -3.4651389336526854 6.464712285761101 2.646200792291072 2.1447495348349306 7.081117060305537 22.70458360523726" Properties=species:S:1:pos:R:3:forces:R:3 unique_starting_index=204 config_type=initial n_minim_iter=1 energy=-3254.247478722844 stress="-1.5791047578820612e-05 -2.0353227767678327e-06 5.205500289145213e-06 -2.0353227767678327e-06 -1.6008665552172365e-05 1.1857623474026369e-05 5.205500289145213e-06 1.1857623474026369e-05 -3.475752698542735e-05" free_energy=-3254.247478722844 pbc="T T T"
Si       1.67321554      -0.32896629       4.65751748      -0.00106867       0.00420828       0.01225571
Si       1.66282710       3.91248266       9.91428845      -0.00031533      -0.00010896       0.00196426
Si       1.45813689       1.82055582       8.71724481       0.00139092       0.00598133      -0.00193650
Si       2.05674095       3.32810106       6.57928188      -0.00023868      -0.00275587      -0.00178303
Si       3.67373827       1.44693905       7.67758045      -0.00003548      -0.00359308      -0.00415863
Si      -0.28221287      11.08140264      17.46547782       0.00035946      -0.00129277      -0.00397222
Si       3.49144585       8.20302054      17.15344977      -0.00025760      -0.00284384      -0.00176474
Si      -0.18198930       4.25113733       8.44478481       0.00116255       0.00221501      -0.00502398
Si       1.15772895       7.91363786      18.16789370      -0.00149331      -0.00881875      -0.00085282
Si       1.23559796      12.73274943      23.54412192       0.00039520       0.00028671      -0.00227812
Si       1.15974988      10.57646369      21.41132313      -0.00014802       0.00088489       0.00206690
Si       1.45119071      10.21316984      19.02836178      -0.00083533      -0.00219597       0.00287064
Si       1.45645292       5.58067803      13.32740961       0.00127651       0.00240994      -0.00554360
Si       4.65399595       7.67828284      22.93369061       0.00114135       0.00296454      -0.00396618
Si       0.73037350      10.36592774      24.00996637      -0.00018799       0.00195702       0.00364406
Si       1.79016972       9.18056078      15.51055158      -0.00153889      -0.00554023       0.00346028
Si       0.41273991       5.84091010       6.43316835       0.00030806       0.00593507       0.00520994
Si       0.21076484       0.14638939       0.81177197      -0.00062824      -0.00049783       0.00357008
Si       0.92906476       3.75948851       0.45288939       0.00239364       0.00781980      -0.00635782
Si       0.22636831       3.71348880       5.07085922      -0.00168015      -0.00701529       0.00259577
20
Lattice="4.028867057473507 -0.7407956961206995 0.6056761475744618 -3.4652529841854567 6.464846381028717 2.646269544270336 2.144605439237587 7.080804792650785 22.70601408202194" Properties=species:S:1:pos:R:3:forces:R:3 unique_starting_index=204 config_type=initial n_minim_iter=2 energy=-3254.247481538286 stress="6.941738651122563e-05 -2.655212867553515e-06 1.303104376465246e-06 -2.655212867553515e-06 5.238855368846968e-05 -4.002435545522249e-06 1.303104376465246e-06 -4.002435545522249e-06 5.653811754840879e-05" free_energy=-3254.247481538286 pbc="T T T"
Si       1.67321352      -0.32906379       4.65789997      -0.00100832       0.00365156       0.01117335
Si       1.66278974       3.91237590       9.91489466      -0.00028321      -0.00010491       0.00175552
Si       1.45810512       1.82043762       8.71779989       0.00146618       0.00623027      -0.00213264
Si       2.05675012       3.32804549       6.57964127      -0.00025128      -0.00216036      -0.00097085
Si       3.67378137       1.44679734       7.67803576       0.00019219      -0.00235421      -0.00415785
Si      -0.28236124      11.08133404      17.46644221       0.00026153      -0.00162715      -0.00372979
Si       3.49140862       8.20287298      17.15443224      -0.00019041      -0.00227487      -0.00151580
Si      -0.18206242       4.25108105       8.44526377       0.00128437       0.00209940      -0.00597568
Si       1.15759774       7.91341754      18.16898533      -0.00150960      -0.00852414      -0.00038416
Si       1.23544088      12.73260068      23.54547325       0.00042457       0.00019032      -0.00259139
Si       1.15960156      10.57629847      21.41259600      -0.00043707      -0.00007561       0.00281487
Si       1.45107262      10.21303733      19.02947354      -0.00075174      -0.00222587       0.00227801
Si       1.45638686       5.58055410      13.32818580       0.00119893       0.00201994      -0.00550455
Si       4.65393904       7.67800941      22.93507697       0.00104582       0.00288450      -0.00342867
Si       0.73018225      10.36569540      24.01144273       0.00021541       0.00268447       0.00185050
Si       1.79009270       9.18046557      15.51143575      -0.00150423      -0.00522244       0.00361843
Si       0.41271030       5.84097577       6.43350701       0.00007097       0.00440925       0.00492081
Si       0.21076059       0.14637288       0.81184139      -0.00087489      -0.00071331       0.00494717
Si       0.92911738       3.75964286       0.45278951       0.00221697       0.00718978      -0.00595324
Si       0.22632880       3.71345472       5.07114175      -0.00156621      -0.00607661       0.00298596
20
Lattice="4.028261923739896 -0.7406844289929834 0.6055851753325605 -3.4647298504742734 6.464072348740224 2.6460953477579134 2.143272734556679 7.078213576573758 22.707457425929597" Properties=species:S:1:pos:R:3:forces:R:3 unique_starting_index=204 config_type=initial n_minim_iter=3 energy=-3254.247494575907 stress="-0.00010705785427444612 2.852092376334473e-05 -4.267718815857536e-05 2.852092376334473e-05 -1.5272516663689868e-05 -6.319404065544057e-05 -4.267718815857536e-05 -6.319404065544057e-05 8.787245509139523e-05" free_energy=-3254.247494575907 pbc="T T T"
Si       1.67268410      -0.32931540       4.65868206      -0.00053851       0.00451561       0.00910506
Si       1.66212411       3.91121097       9.91546574      -0.00067590       0.00087362       0.00556450
Si       1.45752469       1.81971271       8.71834242       0.00040999       0.00168407      -0.00066745
Si       2.05619958       3.32717501       6.57980693      -0.00024664      -0.00122415       0.00014333
Si       3.67290106       1.44596859       7.67831986       0.00006255      -0.00394609      -0.00524251
Si      -0.28294055      11.07887899      17.46698732       0.00032817       0.00066934      -0.00136431
Si       3.49022633       8.20070566      17.15508788      -0.00059327      -0.00473756      -0.00184811
Si      -0.18233690       4.25005418       8.44552795       0.00139428       0.00354580      -0.00493769
Si       1.15662820       7.91090527      18.16993009      -0.00158593      -0.00816471       0.00056322
Si       1.23437108      12.72954899      23.54642507       0.00117610       0.00319970      -0.00390972
Si       1.15857388      10.57359960      21.41369926      -0.00020251      -0.00118787      -0.00010581
Si       1.45010765      10.21051260      19.03037258      -0.00083529      -0.00229256       0.00275220
Si       1.45566118       5.57902181      13.32870694       0.00143307       0.00378249      -0.00490627
Si       4.65230551       7.67552853      22.93622455       0.00061181       0.00203763      -0.00157749
Si       0.72906821      10.36279478      24.01287364       0.00012526       0.00138337       0.00085877
Si       1.78922177       9.17825523      15.51209383      -0.00085609      -0.00500603      -0.00042821
Si       0.41248390       5.84016665       6.43371776       0.00030088       0.00326687       0.00199429
Si       0.21066896       0.14627312       0.81202330      -0.00136852      -0.00169340       0.00703198
Si       0.92915529       3.75963192       0.45221834       0.00172775       0.00615698      -0.00396220
Si       0.22607810       3.71251766       5.07135764      -0.00066722      -0.00286312       0.00093642
20
Lattice="4.029008347719861 -0.7408216754357055 0.6056973883180456 -3.4655530840684525 6.463508648002679 2.645636740200376 2.144567143558712 7.077927027497802 22.703741914213012" Properties=species:S:1:pos:R:3:forces:R:3 unique_starting_index=204 config_type=initial n_minim_iter=4 energy=-3254.247521906791 stress="0.00012846381385191657 -3.834926676881179e-05 2.0348386431399926e-05 -3.834926676881179e-05 -0.000108216952570843 -4.675393779406028e-05 2.0348386431399926e-05 -4.675393779406028e-05 -5.39644111638516e-05" free_energy=-3254.247521906791 pbc="T T T"
Si       1.67313771      -0.32867808       4.65944379       0.00019564      -0.00143274      -0.00305372
Si       1.66271045       3.91092683       9.91421752       0.00030042       0.00254235       0.00111119
Si       1.45835349       1.82041001       8.71668179       0.00043524      -0.00092490      -0.00402635
Si       2.05669617       3.32650903       6.57868869       0.00034672       0.00636068       0.00547332
Si       3.67388866       1.44538137       7.67665439      -0.00073515      -0.00483420      -0.00102257
Si      -0.28258302      11.07786194      17.46374213      -0.00017950      -0.00110985      -0.00016347
Si       3.49129105       8.19960133      17.15227698      -0.00090568      -0.00516194      -0.00028906
Si      -0.18196186       4.25009324       8.44345802       0.00044759       0.00264283       0.00025509
Si       1.15723088       7.90927716      18.16692939       0.00083660       0.00009152      -0.00545300
Si       1.23526653      12.72865508      23.54237493      -0.00031287       0.00156773       0.00399866
Si       1.15937091      10.57290451      21.41054695       0.00112968       0.00459767      -0.00189111
Si       1.45075341      10.20942216      19.02774294       0.00062396      -0.00284043      -0.00762458
Si       1.45652707       5.57896596      13.32587847      -0.00072906      -0.00302505       0.00114971
Si       4.65412493       7.67537632      22.93218059      -0.00156032      -0.00293005       0.00679532
Si       0.72999284      10.36246987      24.00932528       0.00070709       0.00005370      -0.00463779
Si       1.78968948       9.17674300      15.51013270       0.00022490      -0.00040126      -0.00198679
Si       0.41260261       5.84025508       6.43341329      -0.00056540      -0.00145085       0.00198643
Si       0.21064317       0.14617935       0.81245715      -0.00011735       0.00142803       0.00252723
Si       0.92938864       3.76004655       0.45155026      -0.00052912      -0.00051813       0.00288591
Si       0.22598779       3.71135800       5.07091699       0.00038661       0.00534487       0.00396558
