12
Lattice="5.667867186840706 -0.6176296586109015 0.09756321594132578 -3.8591168987700746 6.058234403850993 -1.7890576095944586 -0.07080733345513492 -1.8243355174263953 7.395367030424845" Properties=species:S:1:pos:R:3:forces:R:3 unique_starting_index=262 config_type=initial n_minim_iter=1 energy=-1953.6161573001814 stress="0.0016471930337008539 -0.0004630432485191893 0.0003413168325512115 -0.0004630432485191893 0.0001295565374018154 -0.00045249784153211667 0.0003413168325512115 -0.00045249784153211667 0.0011533640667999298" free_energy=-1953.6161573001814 pbc="T T T"
Si       3.39055859       0.06674206       5.55130054       0.07056928      -0.01585745       0.01447953
Si      -1.65261564       3.54952717       0.15257209      -0.07056928       0.01585745      -0.01447953
Si       3.21524923       1.37944039       1.82785964      -0.00838156      -0.21504201      -0.00096715
Si      -1.47730628       2.23682884       3.87601300       0.00838156       0.21504201       0.00096715
Si      -2.19160104       6.00859892      -2.41675237       0.22522197      -0.11837676       0.01220829
Si       3.92954399      -2.39232970       8.12062501      -0.22522197       0.11837676      -0.01220829
Si       0.65758369       3.33237568       0.15469862       0.06831299      -0.01654376       0.07899280
Si       1.08035926       0.28389355       5.54917402      -0.06831299       0.01654376      -0.07899280
Si       0.86208324       1.06734377       1.34456149       0.05138111       0.04941580      -0.00232240
Si       0.87585971       2.54892545       4.35931115      -0.05138111      -0.04941580       0.00232240
Si      -3.16001622       5.19608740       0.93800606      -0.22445313      -0.15053908       0.00452233
Si       4.89795917      -1.57981817       4.76586657       0.22445313       0.15053908      -0.00452233
12
Lattice="5.637821352110119 -0.6090800897900757 0.09033746030272806 -3.828713914892802 6.047719162581694 -1.7700097129887282 -0.08090780082310499 -1.813286626047534 7.36631201173702" Properties=species:S:1:pos:R:3:forces:R:3 unique_starting_index=262 config_type=initial n_minim_iter=2 energy=-1953.6194485653127 stress="-0.005363173868572801 0.00018639997176421975 -0.00018383882889901138 0.00018639997176421975 -0.003336792537529881 -0.0010938095658983781 -0.00018383882889901138 -0.0010938095658983781 -0.002825597875567331" free_energy=-1953.6194485653127 pbc="T T T"
Si       3.36839566       0.07919367       5.52806946       0.09327601      -0.03348921       0.00217930
Si      -1.64019602       3.54615877       0.15857030      -0.09327601       0.03348921      -0.00217930
Si       3.19869487       1.38302039       1.81981333       0.02063928      -0.19123779       0.01229107
Si      -1.47049523       2.24233205       3.86682643      -0.02063928       0.19123779      -0.01229107
Si      -2.16595363       5.99793575      -2.39711887       0.22024498      -0.10946794       0.03250863
Si       3.89415327      -2.37258330       8.08375862      -0.22024498       0.10946794      -0.03250863
Si       0.65981824       3.33196717       0.15926331       0.06401406      -0.05247207       0.06960470
Si       1.06838140       0.29338527       5.52737645      -0.06401406       0.05247207      -0.06960471
Si       0.85850833       1.07075679       1.34028973      -0.00580349       0.05434006       0.00756950
Si       0.86969131       2.55459565       4.34635003       0.00580349      -0.05434006      -0.00756950
Si      -3.14052120       5.18861299       0.94536937      -0.17624977      -0.11464427       0.01337422
Si       4.86872083      -1.56326055       4.74127039       0.17624977       0.11464427      -0.01337422
12
Lattice="5.639126249667235 -0.5959956846051491 0.07484783987339923 -3.809308683239782 6.06817193988779 -1.722958877159577 -0.1015729089720331 -1.7824064138707711 7.342588456296831" Properties=species:S:1:pos:R:3:forces:R:3 unique_starting_index=262 config_type=initial n_minim_iter=3 energy=-1953.635933293927 stress="-0.0030350336276473923 0.00022656313727948007 -0.0008605557238083271 0.00022656313727948007 0.001303095587100827 1.5045316453472372e-06 -0.0008605557238083271 1.5045316453472372e-06 -0.0007527062645984258" free_energy=-1953.635933293927 pbc="T T T"
Si       3.36255984       0.12180582       5.51219541       0.09553826      -0.00887937       0.00278135
Si      -1.63431518       3.56796402       0.18228201      -0.09553826       0.00887937      -0.00278135
Si       3.20082006       1.40366971       1.81818122       0.04077375      -0.17952853      -0.00911050
Si      -1.47257540       2.28610013       3.87629620      -0.04077375       0.17952853       0.00911050
Si      -2.13448968       6.01408905      -2.35201086       0.22829039      -0.05175159       0.12088218
Si       3.86273433      -2.32431920       8.04648828      -0.22829039       0.05175159      -0.12088218
Si       0.67276221       3.35714631       0.18080613       0.00226477      -0.10977409      -0.04189290
Si       1.05548245       0.33262353       5.51367129      -0.00226477       0.10977409       0.04189290
Si       0.86110185       1.09108899       1.34250227       0.02720478       0.01366231      -0.01676850
Si       0.86714281       2.59868085       4.35197515      -0.02720478      -0.01366231       0.01676850
Si      -3.13837120       5.21482843       0.98133113      -0.11009923      -0.12659627      -0.05565600
Si       4.86661586      -1.52505859       4.71314629       0.11009923       0.12659627       0.05565600
12
Lattice="5.6775061643855365 -0.5660807245644622 0.0700726180651336 -3.8070307515961783 6.032126805839001 -1.6564496744577952 -0.1092316300364086 -1.711353605445773 7.288120327380842" Properties=species:S:1:pos:R:3:forces:R:3 unique_starting_index=262 config_type=initial n_minim_iter=4 energy=-1953.649910640158 stress="0.004155340269919999 0.0020717102587103978 6.938154865187802e-05 0.0020717102587103978 -0.0023172481170737696 0.00227432722885296 6.938154865187802e-05 0.00227432722885296 -0.0031114463438780713" free_energy=-1953.649910640158 pbc="T T T"
Si       3.39786391       0.19146820       5.48727294      -0.08240808      -0.00912255       0.05481953
Si      -1.63662012       3.56322427       0.21447033       0.08240808       0.00912255      -0.05481953
Si       3.23244008       1.41629796       1.82277409      -0.06122384      -0.07289698       0.13997581
Si      -1.47119630       2.33839451       3.87896918       0.06122384       0.07289698      -0.13997581
Si      -2.09648543       5.97006695      -2.27842987       0.21226649       0.13144884       0.26062610
Si       3.85772921      -2.21537447       7.98017314      -0.21226649      -0.13144884      -0.26062610
Si       0.70021448       3.35817169       0.21755490      -0.21832353      -0.13716651      -0.11223071
Si       1.06102930       0.39652079       5.48418837       0.21832353       0.13716651       0.11223071
Si       0.87750671       1.11323766       1.34604606       0.18402908      -0.03383858       0.00544331
Si       0.88373708       2.64145481       4.35569721      -0.18402908       0.03383858      -0.00544331
Si      -3.15525134       5.19328979       1.02490179      -0.06200326      -0.10919186      -0.15461180
Si       4.91649512      -1.43859731       4.67684148       0.06200326       0.10919186       0.15461180
12
Lattice="5.659189051863293 -0.5817493116953666 0.073133280004981 -3.8077311724697753 6.07257988786746 -1.664207515793164 -0.10118874567959096 -1.7164799032478941 7.326703623090751" Properties=species:S:1:pos:R:3:forces:R:3 unique_starting_index=262 config_type=initial n_minim_iter=5 energy=-1953.6646014244711 stress="0.0010996092004245345 0.0007699112870539855 -0.0014903003198324504 0.0007699112870539855 0.003810015715410299 -0.0013644783211008051 -0.0014903003198324504 -0.0013644783211008051 0.002259439662813165" free_energy=-1953.6646014244711 pbc="T T T"
Si       3.39346612       0.18674150       5.52023073      -0.06708993       0.06949065       0.02152209
Si      -1.64319698       3.58760918       0.21539866       0.06708993      -0.06949065      -0.02152209
Si       3.21900247       1.40237725       1.83631006       0.06862119       0.09415363       0.16970226
Si      -1.46873333       2.37197342       3.89931933      -0.06862119      -0.09415363      -0.16970226
Si      -2.08484992       6.00079627      -2.28274195       0.14822189       0.26250759       0.26085996
Si       3.83511906      -2.22644559       8.01837133      -0.14822189      -0.26250759      -0.26085996
Si       0.69167494       3.37006727       0.22269548      -0.27856733      -0.19561256      -0.24921895
Si       1.05859419       0.40428340       5.51293391       0.27856733       0.19561256       0.24921895
Si       0.87770541       1.12065102       1.35413899       0.12003354      -0.12781310      -0.00019777
Si       0.87256373       2.65369966       4.38149039      -0.12003354       0.12781310       0.00019777
Si      -3.16909581       5.21758061       1.02886665       0.01365633       0.00033547      -0.24369830
Si       4.91936494      -1.44322994       4.70676274      -0.01365634      -0.00033547       0.24369830
12
Lattice="5.642067047995703 -0.6408934471002445 0.11847555597416669 -3.8719314208356654 6.089583336271633 -1.6536794716479044 -0.01563268004695275 -1.6479724306146215 7.345416751530552" Properties=species:S:1:pos:R:3:forces:R:3 unique_starting_index=262 config_type=initial n_minim_iter=6 energy=-1953.6893628595928 stress="-0.003436296706489985 -0.004387333155924639 0.0008006905611417518 -0.004387333155924639 0.0024828441548367186 0.004131372902501368 0.0008006905611417518 0.004131372902501368 0.003458560856112448" free_energy=-1953.6893628595928 pbc="T T T"
Si       3.42989046       0.19932740       5.58000232      -0.04298670      -0.10412318       0.22049450
Si      -1.67538752       3.60139006       0.23021052       0.04298670       0.10412318      -0.22049450
Si       3.20842068       1.36836175       1.89258637       0.14794591      -0.03946295       0.33323199
Si      -1.45391773       2.43235571       3.91762646      -0.14794591       0.03946295      -0.33323199
Si      -2.13618204       5.99679079      -2.24526191       0.17566790       0.22682843       0.17698574
Si       3.89068499      -2.19607333       8.05547475      -0.17566790      -0.22682843      -0.17698574
Si       0.64673523       3.34770664       0.25337256      -0.20803479      -0.24331913      -0.26182704
Si       1.10776772       0.45301081       5.55684028       0.20803479       0.24331913       0.26182704
Si       0.88337701       1.12065630       1.37775894       0.11863414      -0.12210875      -0.04016188
Si       0.87112594       2.68006116       4.43245389      -0.11863414       0.12210875       0.04016188
Si      -3.21748448       5.24004204       1.03991034       0.01105477      -0.09750278      -0.24666787
Si       4.97198743      -1.43932458       4.77030250      -0.01105477       0.09750277       0.24666787
12
Lattice="5.681841376381084 -0.6698460533565733 0.21019794278960618 -3.958400539583064 6.0843900705915255 -1.7162453295058822 0.1138487537783586 -1.6385997065793985 7.347763655012262" Properties=species:S:1:pos:R:3:forces:R:3 unique_starting_index=262 config_type=initial n_minim_iter=7 energy=-1953.7637663327894 stress="-0.0031016506988139486 -0.004770820944077756 0.002924407583630504 -0.004770820944077756 -0.0018650401927684942 -0.002690001832255095 0.002924407583630504 -0.002690001832255095 -0.0044215083634296225" free_energy=-1953.7637663327894 pbc="T T T"
Si       3.54572846       0.17912064       5.64932233      -0.13462902      -0.05421956       0.13663075
Si      -1.70843887       3.59682367       0.19239394       0.13462902       0.05421956      -0.13663075
Si       3.25777772       1.31001627       1.97256098       0.06016970       0.22755905       0.21359715
Si      -1.42048813       2.46592805       3.86915529      -0.06016970      -0.22755905      -0.21359715
Si      -2.15310394       5.99421905      -2.23623504       0.05329644       0.30873508      -0.22508466
Si       3.99039354      -2.21827474       8.07795131      -0.05329644      -0.30873508       0.22508466
Si       0.61007079       3.29431963       0.24526579      -0.11305962      -0.04698756       0.08978465
Si       1.22721880       0.48162468       5.59645048       0.11305962       0.04698756      -0.08978465
Si       0.93063390       1.10616113       1.39237662       0.24535049      -0.09640045       0.24292871
Si       0.90665569       2.66978318       4.44933965      -0.24535049       0.09640045      -0.24292871
Si      -3.29012639       5.20109612       0.95654973      -0.20738328       0.03878982      -0.29829249
Si       5.12741598      -1.42515181       4.88516653       0.20738328      -0.03878982       0.29829249
12
Lattice="5.687593492623629 -0.6355028381383656 0.21822634519338013 -3.933475681527998 6.039812379071718 -1.6886263643355206 0.11914810341828481 -1.5789612232044319 7.379646873360283" Properties=species:S:1:pos:R:3:forces:R:3 unique_starting_index=262 config_type=initial n_minim_iter=8 energy=-1953.7971067998612 stress="-0.005335413581656473 -0.0017356896263737763 0.0008329707477437884 -0.0017356896263737763 -0.003144771678802798 -0.0005795689411789185 0.0008329707477437884 -0.0005795689411789185 -0.0011540203444468662" free_energy=-1953.7971067998612 pbc="T T T"
Si       3.56673305       0.24090881       5.69803355      -0.08987244       0.04734010       0.16150079
Si      -1.69346714       3.58443951       0.21121331       0.08987244      -0.04734010      -0.16150079
Si       3.27784145       1.32301784       2.01403582       0.08470736       0.30453071       0.14752705
Si      -1.40457554       2.50233048       3.89521103      -0.08470736      -0.30453071      -0.14752705
Si      -2.09073028       5.96138142      -2.18985564      -0.18820686       0.32031489      -0.38360350
Si       3.96399620      -2.13603310       8.09910249       0.18820686      -0.32031489       0.38360351
Si       0.61967798       3.27786517       0.26640930      -0.02687449       0.04650346       0.12112978
Si       1.25358793       0.54748315       5.64283756       0.02687449      -0.04650346      -0.12112978
Si       0.95612447       1.11861699       1.41297073       0.35003801      -0.10761857       0.31002392
Si       0.91714144       2.70673133       4.49627613      -0.35003801       0.10761857      -0.31002392
Si      -3.28802838       5.16335841       0.97740083      -0.40147628       0.06911524      -0.21623323
Si       5.16129430      -1.33801009       4.93184602       0.40147628      -0.06911524       0.21623323
12
Lattice="5.7261117357298525 -0.5841952831988406 0.20997845193957004 -3.906619112989691 6.000373341579524 -1.684889659025517 0.09145099149091154 -1.5760226320891122 7.394742175052531" Properties=species:S:1:pos:R:3:forces:R:3 unique_starting_index=262 config_type=initial n_minim_iter=9 energy=-1953.8378765367493 stress="0.0005911457347756351 0.002053554672096575 -0.0012378685062566983 0.002053554672096575 -0.0006752090429609288 -0.0005482820078334802 -0.0012378685062566983 -0.0005482820078334802 0.001172795913877858" free_energy=-1953.8378765367493 pbc="T T T"
Si       3.58164308       0.27486066       5.71082265       0.01381763       0.13487503       0.07483209
Si      -1.67069946       3.56529476       0.20900832      -0.01381763      -0.13487503      -0.07483209
Si       3.31507654       1.35809788       2.02480455       0.00047100       0.22753854      -0.13562918
Si      -1.40413292       2.48205755       3.89502642      -0.00047101      -0.22753854       0.13562918
Si      -2.04397127       5.95328499      -2.18770067      -0.13245751       0.17207508      -0.43704944
Si       3.95491488      -2.11312957       8.10753163       0.13245751      -0.17207508       0.43704944
Si       0.64338257       3.27431567       0.26167239       0.11393109       0.17743408       0.20701300
Si       1.26756104       0.56583976       5.65815858      -0.11393109      -0.17743408      -0.20701300
Si       0.98503172       1.12131940       1.42182635       0.45563652      -0.01123214       0.35952869
Si       0.92591189       2.71883603       4.49800462      -0.45563652       0.01123214      -0.35952869
Si      -3.28045129       5.12798957       0.97130046      -0.57020221      -0.01038078      -0.11495942
Si       5.19139491      -1.28783415       4.94853051       0.57020221       0.01038078       0.11495942
12
Lattice="5.802453752081865 -0.5320041620747571 0.24111684209824963 -3.9159053852298924 5.976693651810528 -1.6451924710238508 0.12203012689318977 -1.5105000064870546 7.362049240054853" Properties=species:S:1:pos:R:3:forces:R:3 unique_starting_index=262 config_type=initial n_minim_iter=10 energy=-1953.908571648189 stress="0.005237083458588488 0.004752037468009768 -0.004581063247235603 0.004752037468009768 0.005364739436108507 0.0025440730159394962 -0.004581063247235603 0.0025440730159394962 -0.00034651670008746993" free_energy=-1953.908571648189 pbc="T T T"
Si       3.67110498       0.36909887       5.74159195       0.10122247       0.11042320      -0.03216192
Si      -1.66252648       3.56509061       0.21638166      -0.10122247      -0.11042320       0.03216192
Si       3.39455804       1.40104185       2.07932825      -0.09464369       0.09351225      -0.44577979
Si      -1.38597955       2.53314764       3.87864536       0.09464369      -0.09351225       0.44577979
Si      -1.98004568       5.96619754      -2.12417113      -0.41339507       0.10853998      -0.69383001
Si       3.98862417      -2.03200806       8.08214474       0.41339507      -0.10853998       0.69383001
Si       0.66680406       3.27636024       0.29461089       0.08959705       0.24950008       0.22475452
Si       1.34177443       0.65782924       5.66336272      -0.08959705      -0.24950008      -0.22475452
Si       1.06779263       1.14475852       1.45874486       0.58884330       0.02115777       0.47018502
Si       0.94078587       2.78943096       4.49922875      -0.58884330      -0.02115777      -0.47018502
Si      -3.34072513       5.10014185       0.95856646      -0.53221842      -0.01692483      -0.03972043
Si       5.34930363      -1.16595237       4.99940715       0.53221842       0.01692483       0.03972043
12
Lattice="5.88941948160323 -0.46930788134441004 0.3097015812900481 -3.9370782562490922 5.901173806493402 -1.6976966487543288 0.19143804518166874 -1.4906740431867544 7.418655576465472" Properties=species:S:1:pos:R:3:forces:R:3 unique_starting_index=262 config_type=initial n_minim_iter=11 energy=-1954.0111718243843 stress="0.012210880451187903 0.007615786778716273 -0.0035775793501327488 0.007615786778716273 0.007061109190434194 0.004258632606561111 -0.0035775793501327488 0.004258632606561111 0.006094504302554423" free_energy=-1954.0111718243843 pbc="T T T"
Si       3.79215835       0.41971566       5.84866668       0.26899758       0.07512423      -0.12668290
Si      -1.64837907       3.52147622       0.18199383      -0.26899758      -0.07512423       0.12668290
Si       3.49212489       1.44146419       2.15536647      -0.10787044      -0.05144219      -0.63482718
Si      -1.34834562       2.49972769       3.87529404       0.10787044       0.05144219       0.63482718
Si      -1.95640215       5.94687183      -2.17324540      -0.16506365      -0.10040180      -0.54696824
Si       4.10018142      -2.00567995       8.20390591       0.16506365       0.10040180       0.54696824
Si       0.69452181       3.25420388       0.30875647       0.11168345       0.16400727       0.20086740
Si       1.44925746       0.68698800       5.72190404      -0.11168345      -0.16400727      -0.20086740
Si       1.17688596       1.14444381       1.52260559       0.53091010       0.12172982       0.42294779
Si       0.96689331       2.79674807       4.50805492      -0.53091010      -0.12172982      -0.42294779
Si      -3.40341116       5.01896850       0.88564971      -0.34201305       0.10125065       0.22195489
Si       5.54719043      -1.07777662       5.14501080       0.34201305      -0.10125065      -0.22195489
12
Lattice="5.889665954286513 -0.4892853685748065 0.3113631538828338 -3.957686983191079 5.910315092307638 -1.723307325606516 0.19628150679071077 -1.5294022909242093 7.391435430774212" Properties=species:S:1:pos:R:3:forces:R:3 unique_starting_index=262 config_type=initial n_minim_iter=12 energy=-1954.105408200827 stress="0.008710970758518578 0.0018437883751382636 -0.0051105921527575945 0.0018437883751382636 0.004486245086589227 0.0017939763854760205 -0.0051105921527575945 0.0017939763854760205 0.0027398051061076896" free_energy=-1954.105408200827 pbc="T T T"
Si       3.78842939       0.37695932       5.82176493       0.24985855      -0.10476021      -0.22577125
Si      -1.66016891       3.51466811       0.15772633      -0.24985855       0.10476021       0.22577125
Si       3.48596557       1.43436983       2.12871581      -0.00547719      -0.12224581      -0.55851924
Si      -1.35770509       2.45725760       3.85077545       0.00547719       0.12224581       0.55851924
Si      -2.00149175       5.96040990      -2.22943246       0.19690573      -0.16018249      -0.18793078
Si       4.12975223      -2.06878247       8.20892372      -0.19690573       0.16018249       0.18793078
Si       0.68863958       3.25507350       0.30100035      -0.04994532      -0.08722710       0.04678085
Si       1.43962089       0.63655393       5.67849091       0.04994532       0.08722710      -0.04678085
Si       1.19373333       1.13011285       1.53112475       0.38273121       0.17801615       0.23369737
Si       0.93452714       2.76151458       4.44836651      -0.38273121      -0.17801615      -0.23369737
Si      -3.43553702       5.02369821       0.85000330      -0.05464291       0.09096376       0.21380805
Si       5.56379749      -1.13207078       5.12948796       0.05464291      -0.09096376      -0.21380805
12
Lattice="5.874451048338614 -0.4978277683375018 0.4191296764020656 -3.9885911812706984 5.914330442548838 -1.807308113618164 0.33855108601972883 -1.5400304664216082 7.398663171508271" Properties=species:S:1:pos:R:3:forces:R:3 unique_starting_index=262 config_type=initial n_minim_iter=13 energy=-1954.1630924894807 stress="0.0005085480496280716 0.0015316841593127973 0.0008204239111461415 0.0015316841593127973 0.0032084502120954066 0.0005924912941913585 0.0008204239111461415 0.0005924912941913585 4.9952639884983046e-05" free_energy=-1954.1630924894807 pbc="T T T"
Si       3.88976372       0.36197478       5.89537718       0.23636580      -0.19180522      -0.13418061
Si      -1.66535277       3.51449743       0.11510756      -0.23636580       0.19180522       0.13418061
Si       3.51262976       1.42119042       2.18648744       0.24541241       0.01325288      -0.26300060
Si      -1.28821880       2.45528178       3.82399729      -0.24541241      -0.01325288       0.26300060
Si      -2.03262356       5.97098243      -2.29021606       0.24470812       0.01012653      -0.11118778
Si       4.25703451      -2.09451023       8.30070079      -0.24470812      -0.01012653       0.11118778
Si       0.68006877       3.24498146       0.31218645      -0.14047669      -0.14012757       0.11663070
Si       1.54434218       0.63149075       5.69829828       0.14047669       0.14012757      -0.11663070
Si       1.25182161       1.12788934       1.57452301       0.06887646       0.13613539       0.15721491
Si       0.97258934       2.74858287       4.43596173      -0.06887646      -0.13613539      -0.15721491
Si      -3.45446949       5.01534870       0.76289840       0.13752890       0.26555361       0.20473721
Si       5.67888044      -1.13887650       5.24758633      -0.13752890      -0.26555361      -0.20473721
12
Lattice="5.862564716484068 -0.5254592228075537 0.4227328128325791 -4.011671828900381 5.905776508644946 -1.8323013503218477 0.35044749733274955 -1.5533776579869496 7.4214822114691" Properties=species:S:1:pos:R:3:forces:R:3 unique_starting_index=262 config_type=initial n_minim_iter=14 energy=-1954.1826825985652 stress="-0.0027237038147357464 -0.0013005981786987132 0.000692350738052776 -0.0013005981786987132 -0.0033780384923269772 -0.0005349470415294297 0.000692350738052776 -0.0005349470415294297 0.000442611704014353" free_energy=-1954.1826825985652 pbc="T T T"
Si       3.88594655       0.32011016       5.90433909       0.12250566      -0.23266999      -0.06095277
Si      -1.68460616       3.50682947       0.10757458      -0.12250566       0.23266999       0.06095277
Si       3.49995705       1.39112651       2.17854315       0.28904724       0.10115216      -0.06619946
Si      -1.29861667       2.43581312       3.83337053      -0.28904724      -0.10115216       0.06619946
Si      -2.06231226       5.95043709      -2.32189805       0.24749268       0.12268140       0.00456509
Si       4.26365265      -2.12349747       8.33381172      -0.24749268      -0.12268140      -0.00456509
Si       0.66147033       3.22295246       0.30577883      -0.18372031      -0.18335977       0.07787614
Si       1.53987006       0.60398717       5.70613484       0.18372031       0.18335977      -0.07787614
Si       1.24268067       1.11522120       1.57764596       0.06846436       0.16836358       0.07249799
Si       0.95865971       2.71171843       4.43426771      -0.06846436      -0.16836358      -0.07249799
Si      -3.46438122       5.01057072       0.75669246       0.11670996       0.21675529       0.15553971
Si       5.66572161      -1.18363109       5.25522121      -0.11670996      -0.21675529      -0.15553971
12
Lattice="5.885942192944964 -0.5516969169453875 0.4372263778655899 -4.0565480396341105 5.936497155972359 -1.8504839548145045 0.37499436805253705 -1.5854671326656333 7.364580429464939" Properties=species:S:1:pos:R:3:forces:R:3 unique_starting_index=262 config_type=initial n_minim_iter=15 energy=-1954.226895990164 stress="-0.003761979512226881 -0.00166956626828661 0.0017115238927569553 -0.00166956626828661 -0.003271614657383322 -0.0017868363067049505 0.0017115238927569553 -0.0017868363067049505 -0.008020895066856567" free_energy=-1954.226895990164 pbc="T T T"
Si       3.93093829       0.26199400       5.85703371      -0.10317412      -0.31338650       0.04642170
Si      -1.72654977       3.53733911       0.09428915       0.10317412       0.31338650      -0.04642170
Si       3.53588994       1.37580629       2.14544678       0.31297426       0.12524081       0.16022527
Si      -1.33150141       2.42352682       3.80587607      -0.31297426      -0.12524081      -0.16022527
Si      -2.07388378       5.98706110      -2.34852575       0.13035769       0.30083670       0.12831309
Si       4.27827230      -2.18772799       8.29984860      -0.13035769      -0.30083669      -0.12831309
Si       0.63366595       3.20832768       0.30597458      -0.04858978      -0.07723850       0.12071785
Si       1.57072257       0.59100543       5.64534827       0.04858979       0.07723850      -0.12071785
Si       1.28223779       1.12353969       1.59562970      -0.14255618       0.10178350      -0.02350544
Si       0.92215073       2.67579342       4.35569315       0.14255618      -0.10178350       0.02350544
Si      -3.50829188       5.04847869       0.73345173       0.17051232       0.08490557      -0.34791885
Si       5.71268041      -1.24914558       5.21787112      -0.17051232      -0.08490557       0.34791885
12
Lattice="5.921822177565193 -0.5664892747091603 0.44598436532929836 -4.100792341507214 5.92089836267634 -1.877262698962034 0.3896609241923237 -1.5858002852847337 7.42485244978837" Properties=species:S:1:pos:R:3:forces:R:3 unique_starting_index=262 config_type=initial n_minim_iter=16 energy=-1954.2572802327168 stress="-0.0010139879308505152 -0.0015243881029685866 -0.0007356355063618063 -0.0015243881029685866 -0.0034416401845096764 -0.001787866461167399 -0.0007356355063618063 -0.001787866461167399 -0.000564582263330299" free_energy=-1954.2572802327168 pbc="T T T"
Si       3.96642660       0.23156970       5.90792796      -0.09444575      -0.25374566       0.08640010
Si      -1.75573584       3.53703911       0.08564615       0.09444575       0.25374566      -0.08640010
Si       3.57487915       1.35896729       2.16612719       0.27373841       0.08843894       0.04194672
Si      -1.36418839       2.40964151       3.82744693      -0.27373841      -0.08843894      -0.04194672
Si      -2.07640831       5.98647787      -2.37422064       0.00524228       0.22821224       0.07462880
Si       4.28709907      -2.21786907       8.36779476      -0.00524229      -0.22821225      -0.07462880
Si       0.60829617       3.17282751       0.30450922       0.12878703      -0.05023471       0.11843622
Si       1.60239459       0.59578129       5.68906489      -0.12878704       0.05023471      -0.11843622
Si       1.31700642       1.11906640       1.62710871      -0.20849301       0.10996242      -0.09998832
Si       0.89368434       2.64954240       4.36646541       0.20849301      -0.10996242       0.09998832
Si      -3.56129736       5.03671886       0.71618998       0.08752721       0.06474707      -0.13743816
Si       5.77198812      -1.26811006       5.27738414      -0.08752721      -0.06474707       0.13743816
12
Lattice="5.912140701794638 -0.5569176440943567 0.44224826952305596 -4.081422131703579 5.93493039261928 -1.867914497580103 0.3821740253560558 -1.58145657972645 7.432144169976302" Properties=species:S:1:pos:R:3:forces:R:3 unique_starting_index=262 config_type=initial n_minim_iter=17 energy=-1954.2728967341031 stress="0.002217099183331269 0.0009912834622549675 -6.387014221654174e-05 0.0009912834622549675 0.001155279794910763 0.0007135247954711247 -6.387014221654174e-05 0.0007135247954711247 0.0021405279342183833" free_energy=-1954.2728967341031 pbc="T T T"
Si       3.95935059       0.23830212       5.91196858      -0.09128318      -0.13754373       0.17049924