10
Lattice="6.405949999999997 -5.992299203624209e-16 7.057926474734711e-16 2.9561532838720295 5.683076030175259 -1.4871458503809692e-16 2.9561532838720295 1.7944732459893094 5.392329638864929" Properties=species:S:1:pos:R:3:forces:R:3 unique_starting_index=480 config_type=initial n_minim_iter=1 energy=-1607.2064278837588 stress="-0.41233828428989283 -0.2701446045377048 -0.2303224684400718 -0.05983206638084296 -0.09856528087502454 -0.13668058039053915" pbc="T T T"
Si       6.18682700       3.66240794       0.96264246      -2.98325844      -2.02079306      -4.49640375
Si       6.10416124       2.11282607       3.30029124      -3.16944245      -4.80760097      -0.20661485
Si       4.69129286       4.53351733       3.17107754      -5.72769371      -0.38335997      -0.49763650
Si       6.13142955       3.81514133       4.42968717       2.98325844       2.02079306       4.49640375
Si       6.21409531       5.36472320       2.09203839       3.16944245       4.80760097       0.20661485
Si       7.62696369       2.94403195       2.22125210       5.72769372       0.38335997       0.49763650
Si       2.34413343       1.42295894       1.02614685      20.30407910      12.32518183       8.88813177
Si       9.97412312       6.05459034       4.36618278     -20.30407910     -12.32518183      -8.88813177
Si       1.06315670       0.64536784       0.46539795     -20.96713385     -12.72767584      -9.17838468
Si      11.25509985       6.83218143       4.92693168      20.96713385      12.72767584       9.17838468
10
Lattice="6.458049556957206 0.01731122888950953 0.012483749578706946 2.9955534206733123 5.721307845471456 0.012483749578707065 2.9955534206733128 1.8183903046086827 5.424663676833977" Properties=species:S:1:pos:R:3:forces:R:3 unique_starting_index=480 config_type=initial n_minim_iter=2 energy=-1608.7978463925328 stress="-0.36564921088357644 -0.24393229557136598 -0.2098447919994269 -0.05121588082221809 -0.08437127420194851 -0.11699773614762128" pbc="T T T"
Si       6.24861540       3.69955126       0.98294408      -2.75024452      -1.87120134      -4.06363965
Si       6.16562664       2.14398535       3.32962879      -2.92920236      -4.35350122      -0.21261983
Si       4.74730043       4.57403173       3.19991022      -5.21397289      -0.38792826      -0.49234637
Si       6.20054098       3.85745812       4.46668709       2.75024452       1.87120134       4.06363965
Si       6.28352974       5.41302403       2.12000238       2.92920236       4.35350122       0.21261983
Si       7.70185595       2.98297765       2.24972096       5.21397289       0.38792826       0.49234637
Si       2.37109532       1.43932561       1.03794945      18.17839626      11.03482892       7.95761189
Si      10.07806106       6.11768377       4.41168172     -18.17839626     -11.03482892      -7.95761189
Si       1.07233533       0.65093954       0.46941591     -18.84401314     -11.43887823      -8.24898637
Si      11.37682105       6.90606983       4.98021526      18.84401314      11.43887822       8.24898637
10
Lattice="6.9614929946359645 0.18288778393408134 0.13188695673830747 3.374769637264247 6.091532036464823 0.13188695673830678 3.374769637264247 2.048585862745098 5.738244738907178" Properties=species:S:1:pos:R:3:forces:R:3 unique_starting_index=480 config_type=initial n_minim_iter=3 energy=-1617.8661224310918 stress="-0.1040606197157014 -0.07563584856958523 -0.06767533226934251 -0.011960537179730587 -0.019703376105265246 -0.027322692710104856" pbc="T T T"
Si       6.84417866       4.05750503       1.17773638      -0.91776912      -0.72187176      -1.23031209
Si       6.75802196       2.44348648       3.61271430      -1.06393560      -1.31927451      -0.06798982
Si       5.28637723       4.96493884       3.47804395      -1.66137639      -0.17031266      -0.29646064
Si       6.86685359       4.26550065       4.82428227       0.91776912       0.72187176       1.23031209
Si       6.95301029       5.87951920       2.38930435       1.06393560       1.31927451       0.06798982
Si       8.42465502       3.35806684       2.52397470       1.66137639       0.17031266       0.29646064
Si       2.63229297       1.59788037       1.15228899       7.72388734       4.68863008       3.38113973
Si      11.07873928       6.72512531       4.84972966      -7.72388734      -4.68863008      -3.38113973
Si       1.15940821       0.70379538       0.50753215      -7.35546059      -4.46498404      -3.21986053
Si      12.55162404       7.61921030       5.49448649       7.35546059       4.46498404       3.21986053
10
Lattice="7.2400777880514475 0.2621008063349054 0.18901031530146511 3.5736024381409077 6.302125738497345 0.1890103153014658 3.5736024381409086 2.1692833054470357 5.920027336409003" Properties=species:S:1:pos:R:3:forces:R:3 unique_starting_index=480 config_type=initial n_minim_iter=4 energy=-1619.7661176368533 stress="-0.03895300941588465 -0.021517992174310725 -0.016635218002120918 -0.007336283228820174 -0.012085539757141607 -0.01675903091724379" pbc="T T T"
Si       7.16492930       4.24976378       1.27627097      -0.25189396      -0.27072173      -0.60285570
Si       7.07660221       2.59881613       3.76741656      -0.35641386      -0.60312808       0.09685815
Si       5.57119404       5.17833567       3.62935370      -0.69954288       0.07994541      -0.06651546
Si       7.22235334       4.48374607       5.02177699       0.25189396       0.27072173       0.60285570
Si       7.31068044       6.13469372       2.53063140       0.35641386       0.60312808      -0.09685815
Si       8.81608860       3.55517418       2.66869426       0.69954288      -0.07994541       0.06651546
Si       2.77795451       1.68630128       1.21605248       4.14197805       2.51430426       1.81315520
Si      11.60932813       7.04720857       5.08199548      -4.14197805      -2.51430426      -1.81315520
Si       1.20151474       0.72935530       0.52596433      -3.50052014      -2.12492017      -1.53235634
Si      13.18576790       8.00415455       5.77208363       3.50052015       2.12492017       1.53235634
10
Lattice="7.439850240996647 0.35135337371917846 0.25337355072475154 3.7449723550360265 6.4381676633726785 0.253373550724752 3.744972355036028 2.273309958162726 6.028786183969599" Properties=species:S:1:pos:R:3:forces:R:3 unique_starting_index=480 config_type=initial n_minim_iter=5 energy=-1620.4509282152617 stress="-0.017431832633014226 -0.004497748748452236 -0.0008754861441451433 -0.005442386512966351 -0.00896559969628409 -0.012432606681233423" pbc="T T T"
Si       7.41723338       4.40179640       1.37083469      -0.08633415      -0.12648298      -0.31882502
Si       7.32790958       2.73706583       3.88336993      -0.15205073      -0.30826820       0.08337993
Si       5.80981387       5.33860988       3.74374914      -0.34364878       0.08143939      -0.01934075
Si       7.51256155       4.66103459       5.16469859       0.08633415       0.12648298       0.31882502
Si       7.60188535       6.32576516       2.65216335       0.15205073       0.30826820      -0.08337993
Si       9.11998106       3.72422112       2.79178414       0.34364878      -0.08143939       0.01934075
Si       2.89810405       1.75923563       1.26864807       2.36325377       1.43456555       1.03451680
Si      12.03169088       7.30359536       5.26688521      -2.36325377      -1.43456555      -1.03451680
Si       1.23380692       0.74895762       0.54010026      -1.97084672      -1.19636276      -0.86274020
Si      13.69598801       8.31387338       5.99543301       1.97084672       1.19636276       0.86274020
10
Lattice="7.622337574775367 0.47875524381047063 0.34524761999099596 3.9422100863842795 6.541270237661682 0.3452476199909961 3.9422100863842804 2.393039146068867 6.097604110354326" Properties=species:S:1:pos:R:3:forces:R:3 unique_starting_index=480 config_type=initial n_minim_iter=6 energy=-1620.847118854489 stress="-0.00714815629879705 0.0025336992315767018 0.005245157068489289 -0.004073918217185207 -0.006711232247248681 -0.009306472934403441" pbc="T T T"
Si       7.67892659       4.56064714       1.49133733      -0.11070659      -0.12925072      -0.05351957
Si       7.58959849       2.90156409       3.99605098      -0.16575330      -0.06295985      -0.01969630
Si       6.07651102       5.49486257       3.85642347      -0.13234536      -0.05594641      -0.10573905
Si       7.82783114       4.85241748       5.29676201       0.11070659       0.12925072       0.05351957
Si       7.91715923       6.51150054       2.79204836       0.16575329       0.06295985       0.01969630
Si       9.43024670       3.91820205       2.93167587       0.13234536       0.05594641       0.10573905
Si       3.02743188       1.83774149       1.32526146       1.16281627       0.70586417       0.50902403
Si      12.47932584       7.57532314       5.46283788      -1.16281627      -0.70586417      -0.50902403
Si       1.26703466       0.76912785       0.55464574      -1.00311776      -0.60892241      -0.43911584
Si      14.23972307       8.64393678       6.23345360       1.00311776       0.60892241       0.43911584
10
Lattice="7.769156542154235 0.6462869209190926 0.46606073596753883 4.158589332401315 6.59421071282129 0.4660607359675364 4.158589332401314 2.5243878045039003 6.109688514741947" Properties=species:S:1:pos:R:3:forces:R:3 unique_starting_index=480 config_type=initial n_minim_iter=7 energy=-1621.1511712172714 stress="-0.009605721336203089 -0.0024350108364245473 -0.0004268132131099555 -0.0030172819744866803 -0.004970566172945126 -0.006892689423786857" pbc="T T T"
Si       7.93257605       4.71594869       1.63767409      -0.22702786      -0.22937238       0.26326388
Si       7.84442678       3.08883868       4.09535780      -0.30825558       0.21962132      -0.17379927
Si       6.36024837       5.63318462       3.95757288       0.05258766      -0.28325968      -0.30076519
Si       8.15375913       5.04893674       5.40413589       0.22702786       0.22937238      -0.26326389
Si       8.24190841       6.67604675       2.94645218       0.30825558      -0.21962132       0.17379928
Si       9.72608682       4.13170081       3.08423710      -0.05258766       0.28325968       0.30076519
Si       3.15643567       1.91605064       1.38173300       0.47754331       0.28988303       0.20904508
Si      12.92989951       7.84883480       5.66007698      -0.47754330      -0.28988303      -0.20904508
Si       1.30071694       0.78957400       0.56939020      -0.35378627      -0.21475882      -0.15487031
Si      14.78561824       8.97531144       6.47241978       0.35378627       0.21475882       0.15487031
10
Lattice="8.020671043108463 0.8203482465661799 0.5915826162791498 4.4290752346488755 6.737019206831967 0.5915826162791478 4.429075234648875 2.6885808176499446 6.205556459502346" Properties=species:S:1:pos:R:3:forces:R:3 unique_starting_index=480 config_type=initial n_minim_iter=8 energy=-1621.3412628048754 stress="-0.003951588133697329 0.0003606919287430703 0.0015683701036869402 -0.0018145154368301164 -0.0029891701015656224 -0.0041450853724144315" pbc="T T T"
Si       8.28933407       4.93196343       1.80772462      -0.19411507      -0.23842109       0.63386467
Si       8.20069861       3.31865057       4.24738644      -0.30109493       0.58180039      -0.25915217
Si       6.72853606       5.84375001       4.10884158       0.37720136      -0.41501406      -0.42637091
Si       8.58948742       5.31398484       5.58099707       0.19411507       0.23842109      -0.63386467
Si       8.67812288       6.92729770       3.14133524       0.30109493      -0.58180039       0.25915217
Si      10.15028543       4.40219826       3.27988010      -0.37720136       0.41501406       0.42637091
Si       3.32110172       2.01600784       1.45381574      -0.33772859      -0.20501133      -0.14784104
Si      13.55771977       8.22994043       5.93490595       0.33772859       0.20501133       0.14784104
Si       1.35800588       0.82435009       0.59446849       0.02975209       0.01806040       0.01302401
Si      15.52081561       9.42159817       6.79425320      -0.02975209      -0.01806040      -0.01302401
10
Lattice="8.152872509708239 0.9414471702992989 0.6789114043036248 4.59751585475508 6.798418999980548 0.6789114043036226 4.597515854755079 2.7908292998133994 6.236240326790905" Properties=species:S:1:pos:R:3:forces:R:3 unique_starting_index=480 config_type=initial n_minim_iter=9 energy=-1621.4602270648763 stress="-0.0059367706132986 -0.0037490730388870927 -0.0031363960770680746 -0.0009205364652063982 -0.0015164599841466441 -0.0021028766865456346" pbc="T T T"
Si       8.49595146       5.05683010       1.92587009      -0.27887679      -0.31432355       0.77149870
Si       8.40682252       3.47043598       4.32933098      -0.40754723       0.69970904      -0.34072617
Si       6.95831337       5.95712590       4.19001477       0.43268018      -0.53941557      -0.54184916
Si       8.85195273       5.47386536       5.66819304       0.27887679       0.31432355      -0.77149870
Si       8.94108167       7.06025949       3.26473215       0.40754723      -0.69970904       0.34072617
Si      10.38959083       4.57356957       3.40404836      -0.43268018       0.53941557       0.54184916
Si       3.40551955       2.06725198       1.49076973      -0.53118655      -0.32244608      -0.23252746
Si      13.94238465       8.46344349       6.10329340       0.53118655       0.32244608       0.23252746
Si       1.39644064       0.84768114       0.61129335       0.13491981       0.08190035       0.05906129
Si      15.95146355       9.68301433       6.98276978      -0.13491981      -0.08190035      -0.05906129
10
Lattice="8.197498180801292 0.9599528949096194 0.6922565476947852 4.634526721855298 6.829469089841099 0.692256547694785 4.6345267218552975 2.81329600043564 6.2614880652169385" Properties=species:S:1:pos:R:3:forces:R:3 unique_starting_index=480 config_type=initial n_minim_iter=10 energy=-1621.4970744092745 stress="-0.004353931421736453 -0.0014327812199229598 -0.0006146967536949633 -0.0012291576768015408 -0.002024871926949211 -0.0028078920630738666" pbc="T T T"
Si       8.55040339       5.08921396       1.94866849      -0.23296556      -0.28753077       0.80110135
Si       8.46067998       3.50260268       4.35378853      -0.36259121       0.73675410      -0.32315829
Si       7.01170384       5.99073198       4.21354310       0.48629077      -0.51555104      -0.52577436
Si       8.91614821       5.51350402       5.69733266       0.23296556       0.28753077      -0.80110135
Si       9.00587162       7.10011530       3.29221262       0.36259121      -0.73675410       0.32315829
Si      10.45484776       4.61198600       3.43245805      -0.48629077       0.51555104       0.52577436
Si       3.42568520       2.07949314       1.49959727      -0.60856848      -0.36941922      -0.26640149
Si      14.04086640       8.52322484       6.14640389       0.60856848       0.36941923       0.26640149
Si       1.40678522       0.85396061       0.61582170       0.12786578       0.07761834       0.05597338
Si      16.05976638       9.74875737       7.03017945      -0.12786578      -0.07761834      -0.05597338
10
Lattice="8.233717787867484 0.9829292680173757 0.7088256364599382 4.67162460517289 6.850998620968607 0.7088256364599361 4.671624605172889 2.835815522498128 6.276684332493971" Properties=species:S:1:pos:R:3:forces:R:3 unique_starting_index=480 config_type=initial n_minim_iter=11 energy=-1621.533050508208 stress="-0.00399967987194185 -0.0009473998078121755 -9.259168792068734e-05 -0.0012843343217264493 -0.002115768029002841 -0.002933937787206469" pbc="T T T"
Si       8.60002413       5.11888397       1.97377546      -0.22282105      -0.28345196       0.82278702
Si       8.50990038       3.53600194       4.37463867      -0.35429128       0.75957774      -0.32325232
Si       7.06404793       6.01943665       4.23376748       0.51036906      -0.51664093      -0.52875163
Si       8.97694285       5.55085943       5.72056014       0.22282105       0.28345196      -0.82278702
Si       9.06706659       7.13374146       3.31969693       0.35429128      -0.75957774       0.32325232
Si      10.51291905       4.65030676       3.46056812      -0.51036906       0.51664093       0.52875163
Si       3.44357794       2.09035456       1.50742983      -0.64874133      -0.39380535      -0.28398720
Si      14.13338904       8.57938885       6.18690577       0.64874134       0.39380535       0.28398719
Si       1.41646887       0.85983887       0.62006072       0.13134376       0.07972958       0.05749587
Si      16.16049810       9.80990453       7.07427487      -0.13134376      -0.07972958      -0.05749587
10
Lattice="8.346351757394212 1.0612848372010069 0.765330654678385 4.7931153966948665 6.914763767316768 0.7653306546783842 4.793115396694866 2.9095640578699804 6.319345374478154" Properties=species:S:1:pos:R:3:forces:R:3 unique_starting_index=480 config_type=initial n_minim_iter=12 energy=-1621.6566510623445 stress="-0.0034298032820915935 -0.0004641765511080043 0.0003663638177928154 -0.0012478724527097494 -0.0020557019976878126 -0.002850644158476342" pbc="T T T"
Si       8.75910967       5.21413018       2.05765601      -0.20769161      -0.28130093       0.88102195
Si       8.66781180       3.64627659       4.44036142      -0.34540119       0.81875809      -0.32984680
Si       7.23475009       6.10996372       4.29765498       0.56697376      -0.52903100      -0.54509875
Si       9.17347286       5.67148248       5.79235067       0.20769161       0.28130092      -0.88102195
Si       9.26477072       7.23933607       3.40964526       0.34540119      -0.81875808       0.32984680
Si      10.69783243       4.77564894       3.55235169      -0.56697376       0.52903100       0.54509875
Si       3.49977212       2.12446610       1.53202889      -0.73486724      -0.44608634      -0.32168890
Si      14.43281041       8.76114655       6.31797779       0.73486724       0.44608634       0.32168890
Si       1.44785507       0.87889123       0.63380007       0.15317846       0.09298390       0.06705403
Si      16.48472745      10.00672142       7.21620661      -0.15317846      -0.09298389      -0.06705403
10
Lattice="8.448115262633568 1.1384047853385746 0.8209446221336711 4.908493607405317 6.969455319613222 0.8209446221336728 4.908493607405318 2.979602074308298 6.353678383698137" Properties=species:S:1:pos:R:3:forces:R:3 unique_starting_index=480 config_type=initial n_minim_iter=13 energy=-1621.7877735849224 stress="-0.0035846419819451805 -0.0011594766557510682 -0.00048029553263209804 -0.0010204578235169205 -0.0016810669856907963 -0.0023311373905545605" pbc="T T T"
Si       8.90733420       5.30286078       2.13962042      -0.20795575      -0.28499092       0.89824484
Si       8.81493083       3.75264008       4.50039968      -0.34879669       0.83556354      -0.33389169
Si       7.39700210       6.19264379       4.35596525       0.58031590      -0.53626889      -0.55403822
Si       9.35776825       5.78460140       5.85594720       0.20795575       0.28499092      -0.89824484
Si       9.45017162       7.33482209       3.49516794       0.34879669      -0.83556354       0.33389169
Si      10.86810035       4.89481838       3.63960237      -0.58031590       0.53626889       0.55403822
Si       3.54880499       2.15423052       1.55349308      -0.75232020      -0.45668081      -0.32932895
Si      14.71629747       8.93323166       6.44207454       0.75232020       0.45668081       0.32932895
Si       1.47800880       0.89719544       0.64699989       0.17468524       0.10603916       0.07646865
Si      16.78709366      10.19026673       7.34856773      -0.17468524      -0.10603916      -0.07646865
10
Lattice="8.511003830123313 1.178438467719638 0.8498143499125885 4.973030905704911 7.006772939768977 0.8498143499125898 4.973030905704912 3.0187781399740685 6.3799710031011045" Properties=species:S:1:pos:R:3:forces:R:3 unique_starting_index=480 config_type=initial n_minim_iter=14 energy=-1621.8642778082901 stress="-0.00243659210921521 -3.662406849409837e-05 0.000635500403266054 -0.0010098553401241034 -0.0016636008175525126 -0.0023069170412356927" pbc="T T T"
Si       8.99383809       5.35442604       2.18449937      -0.18317613      -0.26847816       0.90631845
Si       8.90059620       3.81194132       4.53646668      -0.32271225       0.84775940      -0.32281258
Si       7.48914353       6.24222177       4.39072157       0.60317271      -0.52022674      -0.54091956
Si       9.46322752       5.84956350       5.89510032       0.18317613       0.26847816      -0.90631845
Si       9.55646941       7.39204823       3.54313301       0.32271225      -0.84775940       0.32281258
Si      10.96792209       4.96176777       3.68887812      -0.60317272       0.52022674       0.54091956
Si       3.57615994       2.17083579       1.56546774      -0.76216010      -0.46265392      -0.33363638
Si      14.88090567       9.03315375       6.51413195       0.76216010       0.46265392       0.33363638
Si       1.49585100       0.90802619       0.65481033       0.17036293       0.10341538       0.07457655
Si      16.96121462      10.29596335       7.42478936      -0.17036293      -0.10341538      -0.07457655
10
Lattice="8.570820721560315 1.2277255922128587 0.8853570675067578 5.0443599631993 7.03709531927584 0.8853570675067612 5.044359963199302 3.062077006116645 6.397519212801933" Properties=species:S:1:pos:R:3:forces:R:3 unique_starting_index=480 config_type=initial n_minim_iter=15 energy=-1621.9577040189088 stress="-0.0031044157509364676 -0.0013414497729653913 -0.0008477212853940782 -0.000741818462298834 -0.0012220461297266546 -0.0016946126761681946" pbc="T T T"
Si       9.08374716       5.40807174       2.23754902      -0.19160379      -0.27101030       0.86517141
Si       8.98967864       3.87964595       4.57190916      -0.32884776       0.80672560      -0.31580551
Si       7.59031696       6.29093990       4.42487194       0.56393799      -0.50931774      -0.53032967
Si       9.57579346       5.91882617       5.93068432       0.19160379       0.27101030      -0.86517141
Si       9.66986198       7.44725196       3.59632418       0.32884776      -0.80672560       0.31580551
Si      11.06922366       5.03595801       3.74336139      -0.56393798       0.50931774       0.53032967
Si       3.60202743       2.18653813       1.57679126      -0.71618987      -0.43474862      -0.31351286
Si      15.05751319       9.14035978       6.59144208       0.71618987       0.43474862       0.31351286
Si       1.51524759       0.91980050       0.66330121       0.17190146       0.10434931       0.07525004
Si      17.14429303      10.40709741       7.50493213      -0.17190146      -0.10434931      -0.07525004
10
Lattice="8.676264786172135 1.2873624677634201 0.9283633627144238 5.1459264312209045 7.103120013602367 0.9283633627144251 5.1459264312209045 3.1237308826421804 6.446586525727897" Properties=species:S:1:pos:R:3:forces:R:3 unique_starting_index=480 config_type=initial n_minim_iter=16 energy=-1622.07503570354 stress="0.0005215566224688296 0.0023196670247087304 0.002823237907208645 -0.0007566064890141621 -0.001246407415441762 -0.0017283944942134844" pbc="T T T"
Si       9.22374245       5.49110653       2.30814622      -0.12668013      -0.22144575       0.84775979
Si       9.12794705       3.97374851       4.63110355      -0.25491596       0.80116939      -0.27735933
Si       7.73760731       6.37212656       4.48136708       0.59312606      -0.45131864      -0.47780299
Si       9.74437518       6.02310683       5.99516702       0.12668013       0.22144575      -0.84775979
Si       9.84017058       7.54046485       3.67220970       0.25491596      -0.80116939       0.27735933
Si      11.23051032       5.14208680       3.82194616      -0.59312606       0.45131864       0.47780299
Si       3.64270508       2.21123067       1.59459794      -0.69970440      -0.42474145      -0.30629633
Si      15.32541255       9.30298268       6.70871530       0.69970440       0.42474145       0.30629633
Si       1.54483957       0.93776372       0.67625513       0.12589791       0.07642379       0.05511194
Si      17.42327805      10.57644964       7.62705811      -0.12589791      -0.07642379      -0.05511194
10
Lattice="8.67414089047084 1.3116301015578482 0.9458636259881033 5.166475490560142 7.090037003887362 0.9458636259881064 5.166475490560142 3.1362047747829167 6.428647005870543" Properties=species:S:1:pos:R:3:forces:R:3 unique_starting_index=480 config_type=initial n_minim_iter=17 energy=-1622.1274125069656 stress="-0.00401700111748274 -0.003023213245695799 -0.00274489738071757 -0.00041816473504578856 -0.0006888701458411945 -0.000955256967270928" pbc="T T T"
Si       9.23799719       5.49954441       2.33117184      -0.20711148      -0.25506915       0.72826876
Si       9.14201090       3.99835976       4.63213762      -0.32186181       0.67015996      -0.29261139
Si       7.76593136       6.37346121       4.48210277       0.44600679      -0.46545396      -0.47197604
Si       9.76909465       6.03832746       5.98920241       0.20711148       0.25506915      -0.72826876
Si       9.86508095       7.53951212       3.68823663       0.32186181      -0.67015996       0.29261139
Si      11.24116048       5.16441066       3.83827148      -0.44600679       0.46545396       0.47197604
Si       3.64014598       2.20967723       1.59347770      -0.57203092      -0.34723983      -0.25040713
Si      15.36694586       9.32819465       6.72689655       0.57203092       0.34723983       0.25040713
Si       1.54982098       0.94078758       0.67843575       0.14131659       0.08578339       0.06186148
Si      17.45727087      10.59708430       7.64193850      -0.14131659      -0.08578339      -0.06186148
10
Lattice="8.71325619402707 1.325102830052376 0.9555792949184327 5.196478436793834 7.118521115294984 0.9555792949184355 5.196478436793834 3.154417458344002 6.452606074778776" Properties=species:S:1:pos:R:3:forces:R:3 unique_starting_index=480 config_type=initial n_minim_iter=18 energy=-1622.1569371849992 stress="-0.0011844223671113579 4.152113103925598e-05 0.0003848534785790734 -0.0005158508701355951 -0.0008497949116940334 -0.001178411508442857" pbc="T T T"
Si       9.28394989       5.52670338       2.34971642      -0.15702125      -0.22462090       0.74519258
Si       9.18731093       4.02487075       4.65307172      -0.27173433       0.69581285      -0.26912292
Si       7.81035534       6.40215106       4.50201670       0.49189722      -0.43286309      -0.44842935
Si       9.82226316       6.07133801       6.01404823       0.15702125       0.22462090      -0.74519258
Si       9.91890211       7.57317065       3.71069294       0.27173433      -0.69581285       0.26912292
Si      11.29585770       5.19589034       3.86174796      -0.49189722       0.43286309       0.44842935
Si       3.65448707       2.21838270       1.59975552      -0.59356693      -0.36031284      -0.25983454
Si      15.45172597       9.37965870       6.76400913       0.59356693       0.36031284       0.25983454
Si       1.55905003       0.94638989       0.68247578       0.11203516       0.06800868       0.04904351
Si      17.54716301      10.65165150       7.68128888      -0.11203516      -0.06800868      -0.04904351
10
Lattice="8.726942086016434 1.3366393109912063 0.9638986661184278 5.213028720958264 7.125338895437612 0.9638986661184308 5.213028720958263 3.1644639746422647 6.456448154099305" Properties=species:S:1:pos:R:3:forces:R:3 unique_starting_index=480 config_type=initial n_minim_iter=19 energy=-1622.181238398729 stress="-0.0013954025310249512 -0.0002935749838241741 1.4997991021740584e-05 -0.0004636255201609363 -0.0007637606824485998 -0.0010591077548260713" pbc="T T T"
Si       9.30451960       5.53882172       2.36299268      -0.16014972      -0.22178122       0.71327465
Si       9.20755408       4.04146411       4.66088844      -0.27065878       0.66423769      -0.26292143
Si       7.83441785       6.41282065       4.50932298       0.46438146      -0.42207668      -0.43565662
Si       9.84847990       6.08762046       6.02125279       0.16014972       0.22178122      -0.71327465
Si       9.94544542       7.58497807       3.72335704       0.27065878      -0.66423769       0.26292143
Si      11.31858165       5.21362153       3.87492250      -0.46438146       0.42207668       0.43565662
Si       3.65856562       2.22085850       1.60154091      -0.56276464      -0.34161493      -0.24635081
Si      15.49443388       9.40558368       6.78270457       0.56276464       0.34161493       0.24635081
Si       1.56378705       0.94926540       0.68454941       0.10383608       0.06303160       0.04545435
Si      17.58921245      10.67717677       7.69969607      -0.10383608      -0.06303160      -0.04545435
10
Lattice="8.831857183603729 1.4103513838169819 1.0170550921559791 5.326837980236143 7.184399033302709 1.0170550921559838 5.326837980236143 3.233549590748244 6.495702238740108" Properties=species:S:1:pos:R:3:forces:R:3 unique_starting_index=480 config_type=initial n_minim_iter=20 energy=-1622.3110486084959 stress="-0.00016564616022500615 0.00020230299026860712 0.0003053491934529203 -0.0001548251484995579 -0.00025505360165756506 -0.00035368310939794435" pbc="T T T"
Si       9.45224147       5.62581678       2.45055868      -0.13114403      -0.18147892       0.52342231
Si       9.35290146       4.15325469       4.71949475      -0.22151911       0.48635091      -0.19620487
Si       8.00066697       6.49285495       4.56421776       0.32924465      -0.31908772      -0.33746891
Si      10.03329165       6.20248322       6.07925373       0.13114403       0.18147892      -0.52342231
Si      10.13263165       7.67504531       3.81031766       0.22151911      -0.48635091       0.19620487
Si      11.48486615       5.33544505       3.96559465      -0.32924464       0.31908772       0.33746891
Si       3.69037716       2.24016905       1.61546645      -0.39352543      -0.23888168      -0.17226617