24
Lattice="3.92732 0.0 0.0 0.0 10.26192 0.0 0.0 0.0 11.79036" Properties=species:S:1:pos:R:3:forces:R:3 unique_starting_index=110 config_type=initial n_minim_iter=1 energy=-3743.7632384207022 stress="-0.7880422607530984 -0.9091158303224219 -0.410681757057092 -1.8251292798018246e-12 9.505006807595142e-13 3.67055094366683e-12" pbc="T T T"
Si       3.59296958       2.49677747      10.11570796       6.56737455      21.73846353     -12.93605771
Si       0.33435042       7.76514253       4.22052796      -6.56737455     -21.73846353     -12.93605771
Si       0.33435042       2.49677747       7.56983204      -6.56737455      21.73846353      12.93605771
Si       3.59296958       7.76514253       1.67465204       6.56737455     -21.73846353      12.93605771
Si       1.12324769       5.90768575       1.77206163     -13.29795633     -16.32912707       7.92064889
Si       2.80407231       4.35423425       7.66724163      13.29795633      16.32912707       7.92064889
Si       2.80407231       5.90768575       4.12311837      13.29795633     -16.32912707      -7.92064889
Si       1.12324769       4.35423425      10.01829837     -13.29795633      16.32912707      -7.92064889
Si       2.07087819       3.15577540      10.49336970      11.56115649       6.18042419      -4.54049849
Si       1.85644181       7.10614460       4.59818970     -11.56115649      -6.18042419      -4.54049849
Si       1.85644181       3.15577540       7.19217030     -11.56115649       6.18042419       4.54049849
Si       2.07087819       7.10614460       1.29699030      11.56115649      -6.18042419       4.54049849
Si       0.54311301       1.19789445      10.46385725       4.70812533     -30.98104160      -7.50831869
Si       3.38420699       9.06402555       4.56867725      -4.70812533      30.98104160      -7.50831869
Si       3.38420699       1.19789445       7.22168275      -4.70812533     -30.98104160       7.50831869
Si       0.54311301       9.06402555       1.32650275       4.70812533      30.98104160       7.50831869
Si       1.14698559       2.28677241      11.46868832     -17.97090599      12.82654602      29.67015955
Si       2.78033441       7.97514759       5.57350832      17.97090599     -12.82654602      29.67015955
Si       2.78033441       2.28677241       6.21685168      17.97090599      12.82654602     -29.67015954
Si       1.14698559       7.97514759       0.32167168     -17.97090599     -12.82654602     -29.67015955
Si       2.47644389       8.69399919       0.84767265       9.34882804      22.83902112      -3.00003380
Si       1.45087611       1.56792081       6.74285265      -9.34882803     -22.83902112      -3.00003380
Si       1.45087611       8.69399919       5.04750735      -9.34882804      22.83902112       3.00003380
Si       2.47644389       1.56792081      10.94268735       9.34882804     -22.83902112       3.00003380
24
Lattice="4.077169180380633 0.0 0.0 0.0 10.714936564835291 0.0 0.0 0.0 12.0227026120334" Properties=species:S:1:pos:R:3:forces:R:3 unique_starting_index=110 config_type=initial n_minim_iter=2 energy=-3778.895424353933 stress="-0.6140778378757852 -0.6858988921729025 -0.32455126450832766 -1.1563188390669103e-12 1.6289604738755982e-12 -1.3695645769033958e-13" pbc="T T T"
Si       3.73074322       2.60926852      10.31373053       6.75614348      17.10754965      -9.90244597
Si       0.34642596       8.10566804       4.30237922      -6.75614348     -17.10754965      -9.90244597
Si       0.34642596       2.60926852       7.72032339      -6.75614348      17.10754965       9.90244597
Si       3.73074322       8.10566804       1.70897208       6.75614348     -17.10754965       9.90244597
Si       1.16472532       6.16677790       1.80778982     -10.24815111     -12.17123289       5.91122744
Si       2.91244386       4.54815866       7.81914112      10.24815111      12.17123289       5.91122744
Si       2.91244386       6.16677790       4.20356149      10.24815111     -12.17123289      -5.91122743
Si       1.16472532       4.54815866      10.21491279     -10.24815111      12.17123289      -5.91122744
Si       2.15109398       3.29573369      10.69969063       8.82924976       6.02670434      -3.61054858
Si       1.92607520       7.41920287       4.68833932      -8.82924976      -6.02670434      -3.61054858
Si       1.92607520       3.29573369       7.33436329      -8.82924976       6.02670434       3.61054858
Si       2.15109398       7.41920287       1.32301198       8.82924976      -6.02670434       3.61054858
Si       0.56432458       1.24754111      10.66929397       3.69242266     -23.58684521      -5.48828561
Si       3.51284460       9.46739546       4.65794266      -3.69242266      23.58684521      -5.48828561
Si       3.51284460       1.24754111       7.36475995      -3.69242266     -23.58684521       5.48828561
Si       0.56432458       9.46739546       1.35340864       3.69242266      23.58684521       5.48828561
Si       1.18888383       2.38906217      11.69771751     -13.22478799       8.86154496      22.69500777
Si       2.88828535       8.32587439       5.68636620      13.22478799      -8.86154496      22.69500777
Si       2.88828535       2.38906217       6.33633641      13.22478799       8.86154496     -22.69500777
Si       1.18888383       8.32587439       0.32498511     -13.22478799      -8.86154495     -22.69500777
Si       2.57190460       9.08018399       0.86407110       5.22759243      17.16366214      -2.61244002
Si       1.50526458       1.63475258       6.87542241      -5.22759243     -17.16366214      -2.61244002
Si       1.50526458       9.08018399       5.14728021      -5.22759243      17.16366214       2.61244002
Si       2.57190460       1.63475258      11.15863151       5.22759243     -17.16366214       2.61244002
24
Lattice="5.0034189559765645 0.0 0.0 0.0 13.467786441720905 0.0 0.0 0.0 13.396509799873304" Properties=species:S:1:pos:R:3:forces:R:3 unique_starting_index=110 config_type=initial n_minim_iter=3 energy=-3872.9555004106855 stress="-0.0785090634314924 -0.10396251997657271 -0.029030267856341635 -2.288602566244098e-13 -1.311504347782283e-12 5.934116220686032e-13" pbc="T T T"
Si       4.58396380       3.29451398      11.48497507       2.23269516       4.57714397      -3.45959979
Si       0.41945515      10.17327246       4.78672017      -2.23269516      -4.57714397      -3.45959979
Si       0.41945515       3.29451398       8.60978963      -2.23269516       4.57714397       3.45959979
Si       4.58396380      10.17327246       1.91153473       2.23269516      -4.57714397       3.45959979
Si       1.42072395       7.74054193       2.01870900      -1.52629629      -2.45862057       2.06239861
Si       3.58269500       5.72724452       8.71696390       1.52629629       2.45862057       2.06239861
Si       3.58269500       7.74054193       4.67954590       1.52629629      -2.45862057      -2.06239861
Si       1.42072395       5.72724452      11.37780080      -1.52629629       2.45862057      -2.06239861
Si       2.64719079       4.14770580      11.91966502       1.93892606       2.20195898      -2.25832467
Si       2.35622817       9.32008064       5.22141012      -1.93892606      -2.20195898      -2.25832467
Si       2.35622817       4.14770580       8.17509968      -1.93892606       2.20195898       2.25832467
Si       2.64719079       9.32008064       1.47684478       1.93892606      -2.20195898       2.25832467
Si       0.69562739       1.54754020      11.88441412      -0.06202264      -5.99910672      -2.09935733
Si       4.30779157      11.92024624       5.18615922       0.06202264       5.99910671      -2.09935733
Si       4.30779157       1.54754020       8.21035058       0.06202264      -5.99910671       2.09935733
Si       0.69562739      11.92024624       1.51209568      -0.06202264       5.99910672       2.09935733
Si       1.44787192       3.01056061      13.05107926      -2.20973993       1.34504027       6.99837632
Si       3.55554703      10.45722583       6.35282436       2.20973994      -1.34504026       6.99837632
Si       3.55554703       3.01056061       7.04368544       2.20973993       1.34504027      -6.99837632
Si       1.44787192      10.45722583       0.34543054      -2.20973993      -1.34504027      -6.99837632
Si       3.16057745      11.42796675       0.96088538      -1.48622262       5.21647642      -0.72211686
Si       1.84284150       2.03981969       7.65914028       1.48622262      -5.21647642      -0.72211686
Si       1.84284150      11.42796675       5.73736952       1.48622262       5.21647642       0.72211686
Si       3.16057745       2.03981969      12.43562442      -1.48622262      -5.21647642       0.72211686
24
Lattice="5.305832272332571 0.0 0.0 0.0 14.556129317940396 0.0 0.0 0.0 13.690391082585489" Properties=species:S:1:pos:R:3:forces:R:3 unique_starting_index=110 config_type=initial n_minim_iter=4 energy=-3881.9739903508307 stress="-0.01992929171057754 -0.030503633787656134 -0.014607079493808406 -2.4344361952715126e-12 1.1502976953518946e-12 1.1915094650131612e-12" pbc="T T T"
Si       4.86420677       3.56780195      11.73314324       1.30203307       2.85347213      -2.28707691
Si       0.44162550      10.98832737       4.88794770      -1.30203307      -2.85347213      -2.28707691
Si       0.44162550       3.56780195       8.80244339      -1.30203307       2.85347213       2.28707691
Si       4.86420677      10.98832737       1.95724785       1.30203307      -2.85347213       2.28707691
Si       1.50441910       8.36227155       2.06524683      -0.65455844       0.08706127       1.26009744
Si       3.80141317       6.19385777       8.91044237       0.65455844      -0.08706127       1.26009744
Si       3.80141317       8.36227155       4.77994871       0.65455844       0.08706127      -1.26009744
Si       1.50441910       6.19385777      11.62514425      -0.65455844      -0.08706127      -1.26009744
Si       2.80995393       4.48627960      12.17868139       1.62407907       0.84414120      -1.05841211
Si       2.49587834      10.06984972       5.33348585      -1.62407907      -0.84414120      -1.05841211
Si       2.49587834       4.48627960       8.35690523      -1.62407907       0.84414120       1.05841211
Si       2.80995393      10.06984972       1.51170969       1.62407907      -0.84414120       1.05841211
Si       0.73758364       1.66335068      12.14283085       0.23431369      -2.72617752      -1.50115517
Si       4.56824864      12.89277864       5.29763531      -0.23431369       2.72617752      -1.50115517
Si       4.56824864       1.66335068       8.39275577      -0.23431369      -2.72617752       1.50115517
Si       0.73758364      12.89277864       1.54756023       0.23431369       2.72617752       1.50115517
Si       1.53223387       3.25591984      13.34502826      -1.09017381       0.89458054       4.29176350
Si       3.77359840      11.30020948       6.49983271       1.09017381      -0.89458054       4.29176350
Si       3.77359840       3.25591984       7.19055837       1.09017381       0.89458054      -4.29176350
Si       1.53223387      11.30020948       0.34536283      -1.09017381      -0.89458054      -4.29176350
Si       3.34948878      12.35951124       0.98117558      -1.74317314       2.04488806      -0.11271675
Si       1.95634350       2.19661808       7.82637112       1.74317314      -2.04488806      -0.11271675
Si       1.95634350      12.35951124       5.86401996       1.74317314       2.04488806       0.11271675
Si       3.34948878       2.19661808      12.70921550      -1.74317314      -2.04488806       0.11271675
24
Lattice="5.448323505985618 0.0 0.0 0.0 15.158703761624922 0.0 0.0 0.0 13.958912737521644" Properties=species:S:1:pos:R:3:forces:R:3 unique_starting_index=110 config_type=initial n_minim_iter=5 energy=-3883.4097465469986 stress="0.004068691906815222 -0.0025668872713444234 0.0008670319429355378 2.4139146200213118e-12 -1.293582605845495e-12 3.748149780970927e-12" pbc="T T T"
Si       4.99790696       3.72301628      11.95932151       0.59791023       2.29001884      -1.66572114
Si       0.45041655      11.43568748       4.97986514      -0.59791023      -2.29001884      -1.66572114
Si       0.45041655       3.72301628       8.97904759      -0.59791023       2.29001884       1.66572114
Si       4.99790696      11.43568748       1.99959123       0.59791023      -2.29001884       1.66572114
Si       1.54327827       8.70867069       2.10793293      -0.59898041       1.04661872       1.32477511
Si       3.90504523       6.45003308       9.08738930       0.59898041      -1.04661872       1.32477511
Si       3.90504523       8.70867069       4.87152344       0.59898041       1.04661872      -1.32477511
Si       1.54327827       6.45003308      11.85097981      -0.59898041      -1.04661872      -1.32477511
Si       2.88924506       4.67422084      12.41572266       1.35289304       0.36855820      -0.85856738
Si       2.55907845      10.48448292       5.43626629      -1.35289304      -0.36855820      -0.85856738
Si       2.55907845       4.67422084       8.52264645      -1.35289304       0.36855820       0.85856737
Si       2.88924506      10.48448292       1.54319008       1.35289304      -0.36855820       0.85856738
Si       0.75794419       1.72502378      12.37840348       0.55216288      -1.50920694      -0.96951401
Si       4.69037932      13.43367998       5.39894711      -0.55216288       1.50920694      -0.96951401
Si       4.69037932       1.72502378       8.55996562      -0.55216288      -1.50920694       0.96951401
Si       0.75794419      13.43367998       1.58050925       0.55216288       1.50920694       0.96951401
Si       1.57081322       3.39306128      13.61419610      -0.19291576       0.27097958       2.79280921
Si       3.87751028      11.76564248       6.63473973       0.19291576      -0.27097958       2.79280921
Si       3.87751028       3.39306128       7.32417301       0.19291576       0.27097958      -2.79280921
Si       1.57081322      11.76564248       0.34471664      -0.19291576      -0.27097958      -2.79280921
Si       3.43533237      12.87654179       1.00022536      -2.09209784       0.50917838       0.38525727
Si       2.01299114       2.28216197       7.97968173       2.09209784      -0.50917838       0.38525727
Si       2.01299114      12.87654179       5.97923101       2.09209784       0.50917838      -0.38525727
Si       3.43533237       2.28216197      12.95868738      -2.09209784      -0.50917838      -0.38525727
24
Lattice="5.4162410959130645 0.0 0.0 0.0 15.215289802221262 0.0 0.0 0.0 13.941355970630902" Properties=species:S:1:pos:R:3:forces:R:3 unique_starting_index=110 config_type=initial n_minim_iter=6 energy=-3883.7134932742924 stress="0.0036725751704173716 -0.002948352621803566 0.000337776770243612 2.0488760620015788e-13 -1.2842749923393576e-12 -3.867552249951686e-13" pbc="T T T"
Si       4.96991714       3.74322904      11.94134370       0.69198753       2.15544224      -1.66824460
Si       0.44632396      11.47206077       4.97066572      -0.69198753      -2.15544224      -1.66824460
Si       0.44632396       3.74322904       8.97069025      -0.69198753       2.15544224       1.66824460
Si       4.96991714      11.47206077       2.00001227       0.69198753      -2.15544224       1.66824460
Si       1.53274779       8.74406556       2.10761675      -0.54307755       0.99021740       1.21863782
Si       3.88349330       6.47122424       9.07829473       0.54307755      -0.99021740       1.21863782
Si       3.88349330       8.74406556       4.86306124       0.54307755       0.99021740      -1.21863782
Si       1.53274779       6.47122424      11.83373922      -0.54307755      -0.99021740      -1.21863782
Si       2.87549077       4.69268563      12.39859351       1.27369383       0.38299156      -0.80041114
Si       2.54075032      10.52260417       5.42791552      -1.27369384      -0.38299156      -0.80041115
Si       2.54075032       4.69268563       8.51344045      -1.27369384       0.38299156       0.80041115
Si       2.87549077      10.52260417       1.54276246       1.27369384      -0.38299156       0.80041115
Si       0.75481115       1.72730127      12.36112572       0.57308124      -1.39266612      -0.92384662
Si       4.66142994      13.48798853       5.39044773      -0.57308124       1.39266612      -0.92384662
Si       4.66142994       1.72730127       8.55090824      -0.57308124      -1.39266612       0.92384662
Si       0.75481115      13.48798853       1.58023025       0.57308124       1.39266612       0.92384662
Si       1.56109878       3.40647453      13.60199554      -0.35849936       0.28355236       2.75274508
Si       3.85514231      11.80881527       6.63131755       0.35849936      -0.28355236       2.75274508
Si       3.85514231       3.40647453       7.31003842       0.35849936       0.28355236      -2.75274508
Si       1.56109878      11.80881527       0.33936043      -0.35849936      -0.28355236      -2.75274508
Si       3.41006374      12.92601287       0.99964639      -1.96135194       0.56738801       0.43829293
Si       2.00617736       2.28927694       7.97032437       1.96135194      -0.56738801       0.43829293
Si       2.00617736      12.92601287       5.97103160       1.96135194       0.56738801      -0.43829293
Si       3.41006374       2.28927694      12.94170958      -1.96135194      -0.56738801      -0.43829293
24
Lattice="5.246432311164345 0.0 0.0 0.0 15.609397125335132 0.0 0.0 0.0 13.900572061791813" Properties=species:S:1:pos:R:3:forces:R:3 unique_starting_index=110 config_type=initial n_minim_iter=7 energy=-3885.217226801849 stress="0.001518585450091756 -0.0035850854604973924 5.230330822146251e-05 4.935203450582883e-13 -1.873240527844033e-12 3.6218662644606172e-12" pbc="T T T"
Si       4.82372582       3.87688521      11.88885362       1.16274535       1.35899583      -1.64133815
Si       0.42270649      11.73251191       4.93856759      -1.16274535      -1.35899583      -1.64133816
Si       0.42270649       3.87688521       8.96200448      -1.16274535       1.35899583       1.64133815
Si       4.82372582      11.73251191       2.01171845       1.16274535      -1.35899583       1.64133816
Si       1.47714010       8.98741443       2.11427637      -0.22799823       0.66427624       0.65232329
Si       3.76929221       6.62198270       9.06456240       0.22799823      -0.66427624       0.65232329
Si       3.76929221       8.98741443       4.83600966       0.22799823       0.66427624      -0.65232329
Si       1.47714010       6.62198270      11.78629569      -0.22799823      -0.66427624      -0.65232329
Si       2.80305404       4.82075671      12.35389907       0.67453984       0.47261598      -0.49155243
Si       2.44337828      10.78864041       5.40361304      -0.67453984      -0.47261598      -0.49155243
Si       2.44337828       4.82075671       8.49695902      -0.67453984       0.47261598       0.49155243
Si       2.80305404      10.78864041       1.54667299       0.67453984      -0.47261598       0.49155243
Si       0.73911711       1.74833021      12.31524182       0.66229776      -0.77043019      -0.55814660
Si       4.50731520      13.86106691       5.36495579      -0.66229776       0.77043019      -0.55814660
Si       4.50731520       1.74833021       8.53561627      -0.66229776      -0.77043019       0.55814660
Si       0.73911711      13.86106691       1.58533024       0.66229776       0.77043019       0.55814660
Si       1.50716942       3.49953703      13.59117492      -1.13278223       0.29931202       2.27667787
Si       3.73926289      12.10986009       6.64088889       1.13278223      -0.29931202       2.27667787
Si       3.73926289       3.49953703       7.25968317       1.13278223       0.29931202      -2.27667787
Si       1.50716942      12.10986009       0.30939714      -1.13278223      -0.29931202      -2.27667787
Si       3.27587297      13.27048363       1.00133473      -1.20526168       0.84348345       0.67351919
Si       1.97055934       2.33891350       7.95162076       1.20526168      -0.84348345       0.67351919
Si       1.97055934      13.27048363       5.94895130       1.20526168       0.84348345      -0.67351919
Si       3.27587297       2.33891350      12.89923733      -1.20526168      -0.84348345      -0.67351919
24
Lattice="5.132808276272641 0.0 0.0 0.0 16.437475074241995 0.0 0.0 0.0 13.890093279274206" Properties=species:S:1:pos:R:3:forces:R:3 unique_starting_index=110 config_type=initial n_minim_iter=8 energy=-3886.63108139666 stress="0.00742071399938622 0.001338184632521718 0.006071330378760792 -1.3569909510421896e-12 -2.8406373762822616e-13 -8.089683034435191e-13" pbc="T T T"
Si       4.74496881       4.12449224      11.85101703       1.15529423       0.58684996      -1.35897870
Si       0.38783946      12.31298283       4.90597039      -1.15529423      -0.58684996      -1.35897870
Si       0.38783946       4.12449224       8.98412289      -1.15529423       0.58684996       1.35897870
Si       4.74496881      12.31298283       2.03907625       1.15529423      -0.58684996       1.35897870
Si       1.44010727       9.48469590       2.12415818      -0.12740793       0.44399859       0.37554108
Si       3.69270100       6.95277917       9.06920482       0.12740793      -0.44399859       0.37554108
Si       3.69270100       9.48469590       4.82088846       0.12740793       0.44399859      -0.37554108
Si       1.44010727       6.95277917      11.76593510      -0.12740793      -0.44399859      -0.37554108
Si       2.75726360       5.09108254      12.33593887      -0.01456215       0.38954874      -0.15463883
Si       2.37554468      11.34639253       5.39089223       0.01456215      -0.38954874      -0.15463882
Si       2.37554468       5.09108254       8.49920105       0.01456215       0.38954874       0.15463883
Si       2.75726360      11.34639253       1.55415441      -0.01456215      -0.38954874       0.15463883
Si       0.73775545       1.81730370      12.29613925       0.78669450       0.13570877       0.03966036
Si       4.39505283      14.62017137       5.35109261      -0.78669450      -0.13570877       0.03966036
Si       4.39505283       1.81730370       8.53900067      -0.78669450       0.13570877      -0.03966036
Si       0.73775545      14.62017137       1.59395403       0.78669450      -0.13570877      -0.03966036
Si       1.44947834       3.69442407      13.62098054      -0.94857982      -0.04820760       0.87790442
Si       3.68332993      12.74305101       6.67593390       0.94857982       0.04820760       0.87790442
Si       3.68332993       3.69442407       7.21415938       0.94857982      -0.04820760      -0.87790442
Si       1.44947834      12.74305101       0.26911274      -0.94857982       0.04820760      -0.87790442
Si       3.17827362      14.00051208       1.01242839      -0.79468907       0.71523205       0.64403607
Si       1.95453466       2.43696300       7.95747503       0.79468907      -0.71523205       0.64403606
Si       1.95453466      14.00051208       5.93261825       0.79468907       0.71523205      -0.64403607
Si       3.17827362       2.43696300      12.87766489      -0.79468907      -0.71523205      -0.64403607
24
Lattice="4.922528109318797 0.0 0.0 0.0 16.31394762158008 0.0 0.0 0.0 13.422758753482665" Properties=species:S:1:pos:R:3:forces:R:3 unique_starting_index=110 config_type=initial n_minim_iter=9 energy=-3886.9021802241177 stress="-0.009503626190392746 -0.009738691050424247 -0.0006158036009561238 1.5754725583433746e-12 3.584451089560425e-13 -1.2823604748593963e-12" pbc="T T T"
Si       4.55968087       4.10068489      11.44352040       2.09786224       0.20630082      -1.92347238
Si       0.36284724      12.21326273       4.73214102      -2.09786224      -0.20630082      -1.92347238
Si       0.36284724       4.10068489       8.69061773      -2.09786224       0.20630082       1.92347238
Si       4.55968087      12.21326273       1.97923835       2.09786224      -0.20630082       1.92347238
Si       1.38010524       9.41885693       2.05511325       0.16889645      -0.04956880       0.20883130
Si       3.54242287       6.89509069       8.76649262      -0.16889645       0.04956880       0.20883130
Si       3.54242287       9.41885693       4.65626613      -0.16889645      -0.04956880      -0.20883130
Si       1.38010524       6.89509069      11.36764551       0.16889645       0.04956880      -0.20883130
Si       2.64418967       5.05759458      11.91989651      -0.66769795       0.69268309      -0.13537911
Si       2.27833844      11.25635304       5.20851713       0.66769796      -0.69268309      -0.13537911
Si       2.27833844       5.05759458       8.21424162       0.66769796       0.69268309       0.13537911
Si       2.64418967      11.25635304       1.50286224      -0.66769795      -0.69268309       0.13537911
Si       0.71373003       1.80530895      11.88268943       0.13415847      -0.28548613      -0.19159369
Si       4.20879808      14.50863868       5.17131006      -0.13415847       0.28548613      -0.19159369
Si       4.20879808       1.80530895       8.25144870      -0.13415847      -0.28548613       0.19159369
Si       0.71373003      14.50863868       1.54006932       0.13415847       0.28548613       0.19159369
Si       1.38262188       3.66607003      13.16836397      -1.49411536       0.32545233       1.96749047
Si       3.53990623      12.64787759       6.45698460       1.49411536      -0.32545233       1.96749047
Si       3.53990623       3.66607003       6.96577416       1.49411536       0.32545233      -1.96749047
Si       1.38262188      12.64787759       0.25439478      -1.49411536      -0.32545233      -1.96749047
Si       3.04180471      13.90405906       0.98251993      -0.16275130       1.14436295       0.85020809
Si       1.88072340       2.40988857       7.69389931       0.16275130      -1.14436295       0.85020809
Si       1.88072340      13.90405906       5.72885945       0.16275130       1.14436295      -0.85020809
Si       3.04180471       2.40988857      12.44023882      -0.16275130      -1.14436295      -0.85020809
24
Lattice="5.015996498419646 0.0 0.0 0.0 16.631450895082654 0.0 0.0 0.0 13.439128614548226" Properties=species:S:1:pos:R:3:forces:R:3 unique_starting_index=110 config_type=initial n_minim_iter=10 energy=-3887.301729256113 stress="0.00015049997973365416 -0.004040783952570104 0.0028900155339395797 -1.3157347389231224e-13 -2.732492089890134e-12 3.2833219200708607e-12" pbc="T T T"
Si       4.65242603       4.18146871      11.45289344       1.42611833       0.32065179      -1.57633153
Si       0.36357047      12.44998219       4.73332913      -1.42611833      -0.32065179      -1.57633153
Si       0.36357047       4.18146871       8.70579948      -1.42611833       0.32065179       1.57633153
Si       4.65242603      12.44998219       1.98623518       1.42611833      -0.32065179       1.57633153
Si       1.40680697       9.60193293       2.05811716       0.05469636       0.07414728       0.18098420
Si       3.60918953       7.02951797       8.77768147      -0.05469636      -0.07414728       0.18098420
Si       3.60918953       9.60193293       4.66144715      -0.05469636       0.07414728      -0.18098420
Si       1.40680697       7.02951797      11.38101146       0.05469636      -0.07414728      -0.18098420
Si       2.69243459       5.15930285      11.93411098      -0.26741513       0.46641916      -0.12407087
Si       2.32356190      11.47214805       5.21454667       0.26741513      -0.46641916      -0.12407087
Si       2.32356190       5.15930285       8.22458195       0.26741513       0.46641916       0.12407087
Si       2.69243459      11.47214805       1.50501764      -0.26741513      -0.46641916       0.12407087
Si       0.72767660       1.83909341      11.89672458       0.51306537      -0.00101988       0.03129126
Si       4.28831990      14.79235748       5.17716027      -0.51306537       0.00101988       0.03129126
Si       4.28831990       1.83909341       8.26196834      -0.51306536      -0.00101988      -0.03129126
Si       0.72767660      14.79235748       1.54240403       0.51306537       0.00101988      -0.03129126
Si       1.40448313       3.73895902      13.18911149      -1.03845501      -0.01058200       1.24913930
Si       3.61151337      12.89249187       6.46954718       1.03845502       0.01058200       1.24913930
Si       3.61151337       3.73895902       6.96958143       1.03845502      -0.01058200      -1.24913930
Si       1.40448313      12.89249187       0.25001713      -1.03845501       0.01058200      -1.24913930
Si       3.09908375      14.18007471       0.98574395      -0.54225467       0.83336704       0.74171156
Si       1.91691275       2.45137619       7.70530826       0.54225467      -0.83336704       0.74171156
Si       1.91691275      14.18007471       5.73382036       0.54225467       0.83336704      -0.74171156
Si       3.09908375       2.45137619      12.45338467      -0.54225467      -0.83336704      -0.74171156
24
Lattice="5.014169879606344 0.0 0.0 0.0 16.794889389324013 0.0 0.0 0.0 13.345461581178634" Properties=species:S:1:pos:R:3:forces:R:3 unique_starting_index=110 config_type=initial n_minim_iter=11 energy=-3887.4846235953714 stress="0.0022501197258086737 -0.002273929557591369 0.0032070356867208148 -2.104794902637861e-13 -1.499569207534556e-12 -3.813877023201329e-12" pbc="T T T"
Si       4.65575170       4.22439625      11.36867983       1.31368376       0.29146598      -1.52889587
Si       0.35841818      12.57049314       4.69594904      -1.31368376      -0.29146598      -1.52889587
Si       0.35841818       4.22439625       8.64951254      -1.31368376       0.29146598       1.52889587
Si       4.65575170      12.57049314       1.97678175       1.31368376      -0.29146598       1.52889587
Si       1.40648720       9.69671637       2.04427669       0.10367822       0.12230878       0.15097745
Si       3.60768268       7.09817302       8.71700748      -0.10367822      -0.12230878       0.15097745