8
Lattice="7.874782108076663 -0.05363667940625982 -0.07677711693967758 -3.8900122218563546 6.847107057500279 0.0767771169396786 -3.8900126514096174 -2.283664942701067 6.455512440550229" Properties=species:S:1:pos:R:3:forces:R:3 unique_starting_index=16 config_type=initial n_minim_iter=8 energy=-1299.5762332500078 stress="8.228998656211647e-06 1.1343179680393167e-05 1.6237070649179012e-05 1.1343179680393167e-05 2.0914077508338266e-05 -9.52399678661863e-06 1.6237070649179012e-05 -9.52399678661863e-06 1.3934499677864688e-05" free_energy=-1299.5762332500078 pbc="T T T"
Si      -2.31228399       1.35866743       3.89296263       0.00611557      -0.00358714       0.00429595
Si       3.96594784       2.24150138       1.26046134      -0.00161325       0.00094627      -0.00807620
Si       2.40714021       1.32665175       3.84713444      -0.00611557      -0.00526784       0.00189012
Si      -3.87109145       4.10218166       3.92391156       0.00161326       0.00790872       0.00189012
Si       2.40714029       3.15583368       2.56927236      -0.00611557       0.00358714      -0.00429595
Si      -3.87109154       2.27299973       5.20177365       0.00161325      -0.00094627       0.00807620
Si       3.96594776       0.41231945       2.53832343      -0.00161326      -0.00790872      -0.00189012
Si      -2.31228391       3.18784936       2.61510054       0.00611557       0.00526784      -0.00189012
