6
Lattice="6.734941173877371 -2.069518101772835e-15 -4.0388738801298107e-32 -3.367470586938684 5.83263014957159 2.0194369400649083e-32 3.1108475918491027e-32 -3.7604700678342947e-47 5.18743" Properties=species:S:1:pos:R:3:forces:R:3 unique_starting_index=264 config_type=initial n_minim_iter=2 energy=-975.1443638501395 stress="0.002122515507205292 -5.162577939888914e-16 -1.3384377734217935e-35 -5.162577939888914e-16 0.0021225155072078007 2.7570307496794333e-44 -1.3384377734217935e-35 2.7570307496794333e-44 1.4013166743659774e-68" free_energy=-975.1443638501395 pbc="T T T"
Si       4.48970433       0.00001167       1.18327872       0.00661960      -0.00000000      -0.00000000
Si       4.49005871       3.88822716       1.18327872      -0.00330980       0.00573274      -0.00000000
Si       1.12258812       1.94442632       1.18327872      -0.00330980      -0.00573274       0.00000000
Si       5.61231265       1.94442632       1.18327872       0.00330980      -0.00573274      -0.00000000
Si       2.24519645       0.00001167       1.18327872      -0.00661960       0.00000000       0.00000000
Si       2.24484207       3.88822716       1.18327872       0.00330980       0.00573274       0.00000000
