18
Lattice="3.9810768711407514 -0.6518218064572009 0.43520226723042305 -0.7147794272262094 8.764216452434201 -3.024987583844818 -0.2941108655649317 -7.983442662364324 15.455363794795227" Properties=species:S:1:pos:R:3:forces:R:3 unique_starting_index=394 config_type=initial n_minim_iter=1 energy=-2928.0790736237786 stress="-2.1976060950556587e-06 -0.0008780975212838886 -0.0004909068317262397 -0.0008780975212838886 0.00034276693771630943 -0.0002559057267772989 -0.0004909068317262397 -0.0002559057267772989 0.0004846520064693731" free_energy=-2928.0790736237786 pbc="T T T"
Si       0.90770912      -2.50496905       9.58065517      -0.00087966      -0.07979721       0.09711022
Si       0.50304199       4.43901327      -0.49859613       0.02189923       0.21494070       0.01536931
Si       2.71010977      -4.07288857       9.53270833       0.09871628       0.00898914       0.01155511
Si       0.80294092       6.34411060       1.19870157      -0.10482455       0.17148257      -0.05864426
Si       4.29240199       2.34885676       1.82150085      -0.10232112       0.05136215      -0.16106961
Si       2.40328221       3.95604915       2.10960634       0.08115771       0.00238244       0.07447246
Si       0.61701433       1.11365173      -0.14259255      -0.02759419      -0.02263793      -0.03911241
Si       1.05137608      -1.57414404      11.77786271       0.04950529      -0.13719567       0.05244515
Si      -0.90472916      -0.44161760      12.61958291      -0.05570835       0.04101273       0.06379915
Si       1.81839069      -6.06038764      10.42207501       0.03069062       0.11143640       0.03394223
Si       2.63296105      -5.31269890      12.45874938       0.01978119      -0.07385653       0.10477222
Si       1.25076151      -2.09436446       7.22798596       0.11065619      -0.04466450       0.07538279
Si       2.56763731      -6.51325622      14.48371086      -0.12500968      -0.05436402      -0.12379728
Si       3.08596047      -3.63145128       7.16223211      -0.22372041      -0.13058546      -0.12741742
Si       0.78048509      -3.78572138      12.64651500       0.12241091       0.02833122      -0.08034181
Si       2.90441352       5.76107377      -0.10078963      -0.04551827      -0.04002559       0.03613081
Si       1.69144173      -0.28860949       5.78508433      -0.07656130      -0.03056118       0.00652060
Si      -0.42709499      -1.11455665       4.89762160       0.22732011      -0.01624925       0.01888275
18
Lattice="3.9801544207615414 -0.6415672195836338 0.4394248757952205 -0.6981577703854606 8.752444866434432 -3.0159932396082123 -0.2925643253745026 -7.9662280599915105 15.42946849246143" Properties=species:S:1:pos:R:3:forces:R:3 unique_starting_index=394 config_type=initial n_minim_iter=2 energy=-2928.0819468026702 stress="-0.0002964271880975109 0.0005323414848576378 0.00031208552968753237 0.0005323414848576378 -0.0007839870397975433 0.00021121526654044326 0.00031208552968753237 0.00021121526654044326 -0.0008692167768908326" free_energy=-2928.0819468026702 pbc="T T T"
Si       0.91441826      -2.49445628       9.56830422      -0.05379956      -0.06473375       0.10799193
Si       0.51296458       4.43710471      -0.49414803       0.02526664       0.20425103       0.01319579
Si       2.71369500      -4.05619483       9.52119313       0.14970480      -0.00852750       0.02415093
Si       0.81880240       6.34206233       1.20219914      -0.06415070       0.15752431      -0.05300232
Si       4.29973502       2.35836113       1.82541286      -0.04844018       0.04473460      -0.12519747
Si       2.41587538       3.95954487       2.11320068       0.02005686      -0.01703554       0.05367396
Si       0.61928201       1.11384746      -0.14107109      -0.03394054      -0.03421476      -0.03724298
Si       1.06346993      -1.56298656      11.76321964       0.07453442      -0.11877935       0.04940062
Si      -0.88952398      -0.43443243      12.60212342      -0.08041164       0.04868970       0.05153729
Si       1.81805049      -6.04273882      10.40700740       0.02851843       0.09796524       0.03626752
Si       2.63699542      -5.29355072      12.44305684       0.07774819      -0.06405808       0.08232104
Si       1.25602711      -2.08481928       7.21928556       0.04317093      -0.05323636       0.05688599
Si       2.57062565      -6.49165841      14.46309034      -0.12646932      -0.06522767      -0.10150708
Si       3.08550019      -3.61676015       7.15373616      -0.14066306      -0.12687234      -0.11743673
Si       0.78896493      -3.77157259      12.62806463       0.07253566       0.01853075      -0.07841532
Si       2.91757538       5.76231973      -0.09266801      -0.03907441      -0.01743847       0.02762226
Si       1.69791736      -0.28058677       5.77965130      -0.11788153      -0.00937395      -0.00870038
Si      -0.42189367      -1.11127667       4.89006464       0.21329502       0.00780213       0.01845496
18
Lattice="3.9869949701941443 -0.6378743863394591 0.4434135137709781 -0.6891682134034852 8.778053425905144 -3.024463265269976 -0.2935834294729786 -7.990071241181871 15.472363661687513" Properties=species:S:1:pos:R:3:forces:R:3 unique_starting_index=394 config_type=initial n_minim_iter=3 energy=-2928.0866699866247 stress="0.0027079260810760077 0.0012515749792422549 0.0006647160328804878 0.0012515749792422549 0.001565722043311179 0.0002926293460481672 0.0006647160328804878 0.0002926293460481672 0.002335911689003363" free_energy=-2928.0866699866247 pbc="T T T"
Si       0.91852033      -2.50212107       9.59855862      -0.03654674      -0.06181427       0.06044964
Si       0.52052934       4.45695327      -0.49452544       0.03797853       0.18605380       0.00104458
Si       2.72305800      -4.06417738       9.55023930       0.14428851      -0.00309594       0.00122804
Si       0.82797641       6.36705596       1.20507862       0.00338076       0.16389994      -0.01918130
Si       4.31044037       2.37303049       1.82994773       0.02786603       0.09164385      -0.15335188
Si       2.42878036       3.97499952       2.12279413      -0.04277881      -0.03472125       0.00397746
Si       0.62108745       1.11734874      -0.14198497      -0.07224159      -0.01446379      -0.06157086
Si       1.07315833      -1.56892506      11.79845467       0.06255188      -0.11920230       0.04025887
Si      -0.88479064      -0.43505290      12.63859626      -0.05875939       0.04161936       0.05249945
Si       1.82098497      -6.05523846      10.43825140       0.01385223       0.06755279       0.03987318
Si       2.64450313      -5.30707287      12.48220090       0.09937471      -0.04543871       0.05368521
Si       1.26246408      -2.09028128       7.24217774      -0.04556889      -0.04907855       0.04695163
Si       2.57300500      -6.50862341      14.50236325      -0.10204246      -0.08569907      -0.06667678
Si       3.08636106      -3.62647653       7.17261913      -0.04099630      -0.06323959      -0.05826171
Si       0.79649575      -3.78059886      12.66195729       0.03862188       0.01221512      -0.03960655
Si       2.93001457       5.78332406      -0.08969545      -0.04684802      -0.01718595       0.05714922
Si       1.70211461      -0.27921482       5.79709943      -0.07055718      -0.07524415       0.02603040
Si      -0.41497019      -1.11503292       4.90402841       0.08842484       0.00619872       0.01550138
18
Lattice="3.9698162085071482 -0.6448773288640529 0.4400563781207339 -0.695681587884095 8.795518363452805 -3.028201098166846 -0.2944078413132651 -8.01605116128399 15.46184456726002" Properties=species:S:1:pos:R:3:forces:R:3 unique_starting_index=394 config_type=initial n_minim_iter=4 energy=-2928.098513346609 stress="-0.0008375494285159557 0.0004661797467814961 3.098459140367112e-05 0.0004661797467814961 0.0009464531272413324 -0.00042725543203806307 3.098459140367112e-05 -0.00042725543203806307 0.00028132828011597134" free_energy=-2928.098513346609 pbc="T T T"
Si       0.90791586      -2.52011076       9.59469477       0.06814848      -0.03539953       0.02735380
Si       0.51402079       4.47591181      -0.49761855       0.06313751       0.10532495      -0.04951751
Si       2.71605906      -4.08295439       9.54147585       0.02072372      -0.04587612      -0.02627553
Si       0.81022379       6.38451729       1.19426292       0.10972170       0.10675705      -0.00976888
Si       4.28287662       2.37218276       1.81358531       0.02268809       0.09169172      -0.14934973
Si       2.41288818       3.97526472       2.11803879      -0.05819134      -0.10364103      -0.07314733
Si       0.61478178       1.11672919      -0.14576548      -0.12363319      -0.00603239      -0.04465545
Si       1.06421783      -1.59091740      11.78822401      -0.02330659      -0.03677359       0.04952925
Si      -0.89502772      -0.44315625      12.62845823       0.02742936       0.02253463       0.03188069
Si       1.81405210      -6.07072316      10.43213662       0.04863003       0.07085906       0.02685917
Si       2.63284748      -5.33417768      12.47543655       0.05790982      -0.02491030       0.02212361
Si       1.25710431      -2.10473241       7.23831803      -0.12293062      -0.01119278       0.02443757
Si       2.55096115      -6.53921977      14.48289193      -0.03703241      -0.11560890      -0.03057713
Si       3.06197786      -3.65013537       7.15812868       0.04027223      -0.00985162       0.08751507
Si       0.79261756      -3.79767963      12.64559995       0.05210134      -0.02221119       0.01030531
Si       2.90658313       5.78679625      -0.09522552      -0.06815462       0.01475490      -0.04353056
Si       1.68435147      -0.28876557       5.78925781       0.12326936      -0.03551491       0.12219982
Si      -0.40371406      -1.12065927       4.90080994      -0.20078288       0.03509005       0.02461785
18
Lattice="3.9794735578884297 -0.6493196195922661 0.43820005688043573 -0.7108146511243992 8.773043984796685 -3.0158485096736443 -0.2852932967288361 -7.979099833396199 15.442851790521907" Properties=species:S:1:pos:R:3:forces:R:3 unique_starting_index=394 config_type=initial n_minim_iter=5 energy=-2928.1011315403525 stress="0.00032247813754636943 -0.00036330287765568085 0.00010946849455819175 -0.00036330287765568085 -0.0002652653650732466 0.0005389967266104432 0.00010946849455819175 0.0005389967266104432 -7.376357491224486e-05" free_energy=-2928.1011315403525 pbc="T T T"
Si       0.91209255      -2.50566253       9.58698521       0.09069239      -0.05600416       0.02123495
Si       0.50877334       4.46761977      -0.49235166       0.07586114       0.11555127      -0.08438707
Si       2.72837826      -4.06715028       9.53019288       0.01502875       0.00321423      -0.03163786
Si       0.80128290       6.37286374       1.20012591       0.10631632       0.13207403       0.01317195
Si       4.28742643       2.36327173       1.81152342       0.01537998       0.05571730      -0.12018794
Si       2.41137013       3.96391896       2.12106743      -0.05609719      -0.09813006      -0.08027597
Si       0.61303925       1.11262502      -0.14531034      -0.10734344       0.03848428      -0.05953405
Si       1.06729099      -1.57695315      11.77974771      -0.04066042       0.04374208       0.03738590
Si      -0.89954853      -0.42510021      12.62116889       0.04786549      -0.03459580       0.01493497
Si       1.82638715      -6.04578407      10.41876298       0.03365688       0.04210985       0.05415318
Si       2.64577036      -5.31259012      12.46210263       0.04007123       0.01586969      -0.01233243
Si       1.26165954      -2.09413955       7.23202694      -0.12768964      -0.07137089       0.02675091
Si       2.56232659      -6.51300688      14.46409968      -0.04307415      -0.14157683       0.02040355
Si       3.07134998      -3.63994357       7.14792649       0.04043150       0.02047928       0.09235081
Si       0.79935121      -3.77530137      12.63222698       0.04453474      -0.09092877       0.03267461
Si       2.90259983       5.76857190      -0.08888056      -0.07404420       0.02220850      -0.01013071
Si       1.68698613      -0.28456170       5.78583386       0.16999298      -0.02103349       0.07232120
Si      -0.40266168      -1.11144986       4.89692514      -0.23092235       0.02418949       0.01310399
18
Lattice="3.992511043765664 -0.6472047053949701 0.4299534605090085 -0.7010931559136143 8.75150559333189 -3.0585383659085 -0.3340185738272769 -8.028027001947041 15.474823978810342" Properties=species:S:1:pos:R:3:forces:R:3 unique_starting_index=394 config_type=initial n_minim_iter=6 energy=-2928.1121696474484 stress="0.0008221908986469174 0.00016771578855434409 -0.0011204308016513499 0.00016771578855434409 -0.0022040552875047135 -0.001756739452314239 -0.0011204308016513499 -0.001756739452314239 -0.0009180950492769672" free_energy=-2928.1121696474484 pbc="T T T"
Si       0.89130491      -2.55326996       9.59762147       0.09801536      -0.05829931      -0.08772526
Si       0.52057130       4.47059502      -0.52199999       0.11085181       0.02139634      -0.08520594
Si       2.71735077      -4.10104678       9.53571728       0.01521171      -0.01937996      -0.05213691
Si       0.80758907       6.35725417       1.16026113       0.03044473       0.13591210       0.01650819
Si       4.29694043       2.35330075       1.76791351       0.03760927       0.12448777      -0.11184186
Si       2.41356952       3.92861447       2.08863723      -0.05921066      -0.14196657      -0.13077374
Si       0.60582280       1.10897085      -0.15898455      -0.02699968       0.00797069      -0.09299435
Si       1.03750396      -1.63876016      11.78210190      -0.06762597       0.13033151       0.09614767
Si      -0.93991214      -0.48987735      12.62114301       0.06130612      -0.06038033       0.03778956
Si       1.80511154      -6.06581363      10.44313267       0.01585910       0.02799732      -0.04428759
Si       2.62391893      -5.35918726      12.47843844       0.10133184       0.01710243       0.11085432
Si       1.23853305      -2.12957445       7.23948543      -0.10282042      -0.02878177       0.01900005
Si       2.51786511      -6.57476896      14.47518879      -0.12003003      -0.12845426      -0.00880911
Si       3.05480525      -3.66730304       7.15394160       0.06534075       0.07846448       0.15686158
Si       0.77272066      -3.83013315      12.63846454      -0.02120355      -0.09848794       0.01380069
Si       2.90829836       5.74571254      -0.12804582      -0.06353088       0.06346540      -0.06348877
Si       1.68260126      -0.31689835       5.78513250       0.04690289      -0.02363801       0.16666132
Si      -0.42404814      -1.13113713       4.90264562      -0.12145239      -0.04773989       0.05964015
18
Lattice="3.9858268701217776 -0.6543073282294066 0.4332135449531167 -0.7137166827657416 8.777709668131752 -3.0585321869476534 -0.3104936909987305 -8.04728476222762 15.481368214737776" Properties=species:S:1:pos:R:3:forces:R:3 unique_starting_index=394 config_type=initial n_minim_iter=7 energy=-2928.1396307255213 stress="-0.0013055213319714792 -0.0003439072902272967 -0.0007136624002521868 -0.0003439072902272967 -0.001872355800119014 -0.0005392881086163865 -0.0007136624002521868 -0.0005392881086163865 -0.0008030457623656424" free_energy=-2928.1396307255213 pbc="T T T"
Si       0.90977930      -2.57386313       9.61528267       0.14770961       0.00354521      -0.06481055
Si       0.52692126       4.51954547      -0.53020888       0.14835536      -0.05258537      -0.09655924
Si       2.74056493      -4.11686927       9.53930589      -0.04621000      -0.03142003       0.01207646
Si       0.80613880       6.41049715       1.15864500      -0.13339020       0.11484830       0.02693478
Si       4.28347684       2.37180462       1.73905591       0.02484749       0.08359117      -0.10752163
Si       2.40055396       3.92103765       2.08637525      -0.06554761      -0.05084551      -0.00272601
Si       0.58358887       1.11154609      -0.17090482      -0.00491205      -0.02051507      -0.02063188
Si       1.04785479      -1.65139192      11.80140585      -0.08025566       0.17649539       0.02961007
Si      -0.92814674      -0.48446051      12.63675454       0.06239581      -0.07743227      -0.01163110
Si       1.82630353      -6.06559201      10.45779029       0.01490011      -0.10306608      -0.06100428
Si       2.64923620      -5.38181637      12.49700013       0.06705755       0.02889071       0.09997937
Si       1.23232643      -2.14739559       7.25429940      -0.03236843       0.01373147      -0.02012536
Si       2.51337062      -6.61966802      14.47294350      -0.12566790      -0.10434071      -0.04351781
Si       3.04904121      -3.69052460       7.16229242       0.02513955       0.04158811      -0.00707751
Si       0.80147105      -3.84674973      12.64117829      -0.04391813      -0.09300556       0.03908527
Si       2.87994852       5.75973599      -0.12489126       0.03931867       0.08471335      -0.12711524
Si       1.69563395      -0.32503859       5.80468800      -0.14629695       0.04666233       0.19861181
Si      -0.42830516      -1.12957876       4.90990498       0.14884279      -0.06085545       0.15642284
18
Lattice="4.0004081005179435 -0.6620013212103307 0.44014230032938645 -0.7269574683053107 8.84616067439278 -3.061940116669799 -0.27745138623814597 -8.128656635262008 15.434582088927732" Properties=species:S:1:pos:R:3:forces:R:3 unique_starting_index=394 config_type=initial n_minim_iter=8 energy=-2928.152331361884 stress="0.0007618327745382687 -0.0006339642723798549 0.00035415310148406205 -0.0006339642723798549 0.001112627079207747 -0.0003483037689228241 0.00035415310148406205 -0.0003483037689228241 -0.0020298291732998098" free_energy=-2928.152331361884 pbc="T T T"
Si       0.94329539      -2.62156034       9.59620965       0.14967845      -0.03060019      -0.06705817
Si       0.54064253       4.58848463      -0.54438003       0.15746024      -0.08022281      -0.04641671
Si       2.78567079      -4.16558666       9.51274257      -0.09435429      -0.05727163       0.10263774
Si       0.81084531       6.49126850       1.14138569      -0.18875686       0.08326237       0.04926183
Si       4.29660735       2.40143282       1.70176219       0.05982193       0.12670340      -0.06879275
Si       2.40506307       3.92888499       2.07236328      -0.10775780      -0.04604967      -0.00953384
Si       0.56572704       1.11885633      -0.18307635      -0.02857861      -0.09201428      -0.00582591
Si       1.07535228      -1.68984530      11.77295855      -0.07091161       0.16433172       0.05547100
Si      -0.90759417      -0.50511099      12.59661502       0.05370609      -0.02880174      -0.06374560
Si       1.86423370      -6.11075698      10.43879083      -0.00519786      -0.15220753      -0.14511858
Si       2.69936557      -5.44768706      12.47524749       0.08369664       0.11804343       0.10309539
Si       1.24034953      -2.18589316       7.24217563       0.00083170       0.02889706      -0.11821907
Si       2.53137647      -6.71742833      14.42092221      -0.11493428      -0.13955801       0.00299175
Si       3.06388267      -3.74038964       7.14658263       0.03659584       0.15110169      -0.09005804
Si       0.84487185      -3.90227606      12.59679878      -0.06452702      -0.06877839      -0.02568342
Si       2.87283652       5.80157169      -0.13004573       0.14124636       0.07771835      -0.12299296
Si       1.71858003      -0.34294915       5.80340791      -0.23306138       0.01509730       0.23592751
Si      -0.42324214      -1.14305767       4.90000310       0.22504247      -0.06965108       0.21405982
18
Lattice="3.9924420307672057 -0.653402110946023 0.4403130913617735 -0.7057230640085519 8.84121732472417 -3.07851929691499 -0.30299331511141436 -8.123232555832018 15.530057599474992" Properties=species:S:1:pos:R:3:forces:R:3 unique_starting_index=394 config_type=initial n_minim_iter=9 energy=-2928.1641472309743 stress="-0.00015357670943098997 0.00017338120402271475 0.0003989145758825171 0.00017338120402271475 0.0005892796619550694 0.0008343234663092092 0.0003989145758825171 0.0008343234663092092 0.002167112749884813" free_energy=-2928.1641472309743 pbc="T T T"
Si       0.94284326      -2.63069306       9.66624149       0.12237676       0.10161563      -0.07587499
Si       0.56682600       4.62216516      -0.55743373       0.20309990      -0.14653444      -0.09779630
Si       2.78094975      -4.16001108       9.56940086      -0.03382886      -0.06756252       0.07006890
Si       0.82321035       6.52818000       1.14601444      -0.16057394       0.00991804       0.04207767
Si       4.29145064       2.42885690       1.67498316       0.10740095       0.05288976      -0.08340949
Si       2.40155293       3.91702079       2.08054009      -0.14689264       0.05679124       0.09066209
Si       0.54846899       1.11772758      -0.19632092       0.00147550      -0.08071381       0.06686534
Si       1.06287945      -1.69042260      11.85840249      -0.05304124       0.16470400      -0.06882346
Si      -0.91481053      -0.50286994      12.68443697       0.01242127      -0.06465562      -0.07767386
Si       1.85061391      -6.08936314      10.50779833       0.00426732      -0.24894976      -0.05849164
Si       2.69154586      -5.44254666      12.56431681       0.03408301       0.02977590       0.02458072
Si       1.21870291      -2.19165810       7.29465547      -0.02651291       0.03864115      -0.07221192
Si       2.48205539      -6.73464138      14.49660078      -0.14889049      -0.10144416      -0.06741919
Si       3.03652255      -3.73983813       7.18742645       0.09503999       0.05478251      -0.11983899
Si       0.84123185      -3.90517706      12.67051595      -0.10083149      -0.00118046       0.04941920
Si       2.86924149       5.80831846      -0.13469976       0.19277656       0.15196894      -0.15533061
Si       1.71427963      -0.34351038       5.85859297      -0.30871830       0.10434469       0.28805333
Si      -0.42801885      -1.14157983       4.94129198       0.20634860      -0.05439109       0.24514322
18
Lattice="4.002718131970179 -0.6388932375221151 0.42443628135380895 -0.6591121091786274 8.863970876240527 -3.08515901090271 -0.39865284209729157 -8.18252576414401 15.479378584004833" Properties=species:S:1:pos:R:3:forces:R:3 unique_starting_index=394 config_type=initial n_minim_iter=10 energy=-2928.208735924134 stress="-0.0001895433477360405 0.0005427316526824685 -0.00040159556334221563 0.0005427316526824685 0.0010950793080609883 0.0007342438616135849 -0.00040159556334221563 0.0007342438616135849 -0.0006054818658842892" free_energy=-2928.208735924134 pbc="T T T"
Si       0.92357891      -2.66727683       9.62573559      -0.11581845       0.09259653       0.01740351
Si       0.62535562       4.65762012      -0.58925548       0.18367261       0.01438876       0.05687012
Si       2.74446969      -4.19166083       9.52838064       0.15222568      -0.12728568       0.07545160
Si       0.84000082       6.58200259       1.12026434       0.07609849      -0.12247626      -0.04525979
Si       4.31795908       2.47431750       1.60114202      -0.00567611      -0.01343186      -0.03559064
Si       2.39934484       3.91138220       2.04684300      -0.00942676       0.08830138       0.10018681
Si       0.53548752       1.11505868      -0.21036597       0.03104225      -0.12901106       0.09241639
Si       1.00591820      -1.70904466      11.81335573       0.04032357      -0.08479463      -0.09076972
Si      -0.96484814      -0.54730853      12.63109469      -0.10074135       0.05805072      -0.05360484
Si       1.79966569      -6.12639619      10.46561806       0.02286424      -0.11743598      -0.06291664
Si       2.65020374      -5.47490482      12.52633608      -0.06443371      -0.06374058      -0.01111504
Si       1.16892439      -2.21856092       7.26216810       0.04338840       0.02677640      -0.04149753
Si       2.37202974      -6.81616331      14.42260512      -0.18876095      -0.09744857      -0.08487685
Si       3.00399366      -3.75230860       7.14736290       0.07497804      -0.00475498      -0.11330542
Si       0.78347753      -3.95729928      12.61733679       0.01743089       0.21337799      -0.11670999
Si       2.90636894       5.84743702      -0.17861730       0.16436120       0.13671375      -0.07041102
Si       1.68065088      -0.35233490       5.86961872      -0.13676777       0.08506935       0.23264551
Si      -0.44525628      -1.16342969       4.95225070      -0.18476027       0.04510474       0.15108354
18
Lattice="4.010401401839571 -0.6392298144665836 0.4387367088655853 -0.6678265713450753 8.855698144006373 -3.136628631532112 -0.3592467187993585 -8.24155850862154 15.539323085625334" Properties=species:S:1:pos:R:3:forces:R:3 unique_starting_index=394 config_type=initial n_minim_iter=11 energy=-2928.2227302763663 stress="-1.340146484269161e-05 -0.00020287043560154457 0.0009161831638283863 -0.00020287043560154457 0.00023508587925229988 -0.0006164860582763049 0.0009161831638283863 -0.0006164860582763049 -0.0002557477720236999" free_energy=-2928.2227302763663 pbc="T T T"
Si       0.96404271      -2.71787212       9.65799998      -0.16859348       0.11047466      -0.03338949
Si       0.64939704       4.66919987      -0.62423118       0.12367406       0.02705050       0.14190947
Si       2.78429091      -4.23747399       9.57140633       0.21955510      -0.09746000      -0.01205663
Si       0.84168095       6.58630887       1.08779006       0.21186702      -0.19204542      -0.07047828
Si       4.33160900       2.47730441       1.57013819      -0.03177699       0.00490418      -0.00231898
Si       2.39786794       3.87805054       2.03378746       0.02708602       0.09228629       0.05966756
Si       0.52126992       1.10708812      -0.22188078      -0.07787901      -0.08315403       0.04472506
Si       1.03539484      -1.76411977      11.84641730       0.12043856      -0.13526442      -0.11309360
Si      -0.93293329      -0.61383626      12.64925496      -0.19376990       0.07090638      -0.01549911
Si       1.83659503      -6.16419589      10.51500524       0.01584706      -0.11836075       0.04284187
Si       2.70013702      -5.52816708      12.58894828      -0.13415085      -0.16170914      -0.03613195
Si       1.17955372      -2.25745936       7.28809319       0.05574703       0.02897691       0.03005376
Si       2.38697190      -6.90151778      14.47007941      -0.06063141      -0.10238418      -0.12425878
Si       3.02491678      -3.78183658       7.17921772       0.03465973      -0.01718729       0.00173716
Si       0.82430404      -4.01853602      12.65182604       0.07132772       0.27347272      -0.17329867
Si       2.91065215       5.84230580      -0.21189971       0.21556454       0.15471714      -0.05655758
Si       1.69012916      -0.38263678       5.91298338      -0.07860809       0.08884147       0.21476447
Si      -0.43182816      -1.18774606       4.98219330      -0.35035712       0.05593497       0.10138371
18
Lattice="4.014999988191044 -0.6155505936011025 0.4081334717842538 -0.5956730128375094 8.827702116348714 -3.1565734492681283 -0.532021892264214 -8.25561306993133 15.574460353801543" Properties=species:S:1:pos:R:3:forces:R:3 unique_starting_index=394 config_type=initial n_minim_iter=12 energy=-2928.249441310204 stress="0.0009221711013432284 -0.00022334800538563926 -0.001640429857871843 -0.00022334800538563926 -0.00012276067475767172 -5.2252484271330624e-05 -0.001640429857871843 -5.2252484271330624e-05 -0.0007952704446588281" free_energy=-2928.249441310204 pbc="T T T"
Si       0.89255540      -2.73481089       9.66756513      -0.19125440       0.14541009       0.00689059
Si       0.73071944       4.68962551      -0.65864461       0.08485791       0.07913143       0.14641764
Si       2.71509559      -4.24863030       9.57151956       0.22143590      -0.11628703      -0.07657516
Si       0.87159351       6.60280327       1.06009191       0.19813950      -0.20665219      -0.09086261
Si       4.34990302       2.51885147       1.47732503      -0.13147752      -0.09199700       0.05151583
Si       2.39004120       3.85615126       2.00631741       0.18894907       0.13089956       0.02096481
Si       0.50460033       1.09225976      -0.23740235      -0.01026303       0.03519443       0.02657233
Si       0.92999291      -1.78042391      11.85788565       0.07331206      -0.13978978      -0.17495083
Si      -1.04730894      -0.65305459      12.66942705      -0.15993458       0.03067250       0.03785155
Si       1.73412162      -6.16840782      10.52380243       0.03556215       0.00901013       0.02568545
Si       2.59185204      -5.53553091      12.60956234      -0.19451342      -0.23647412      -0.02001393
Si       1.09604920      -2.27178746       7.29325098       0.09312511       0.02019231       0.16103382
Si       2.18988997      -6.95389264      14.45594077      -0.09214161      -0.13444217      -0.17542121
Si       2.95417277      -3.77261749       7.16168618       0.03130261      -0.13621201       0.12750434
Si       0.71321909      -4.03340876      12.65355126       0.06523236       0.25829715      -0.14344223
Si       2.96410966       5.86285399      -0.27328758       0.18833108       0.19188179       0.00472917
Si       1.62243859      -0.38398799       5.96671937       0.01748396       0.10837022       0.08263731
Si      -0.48880398      -1.20144824       5.03175148      -0.41814715       0.05279469      -0.01053689
18