8
Lattice="6.491261276630537 1.998475504228618e-15 -1.4206709829539085e-15 3.2456306383152667 5.390800638785528 -0.2834899452348183 3.2456306383152707 0.82871136642828 5.334260543630417" Properties=species:S:1:pos:R:3:forces:R:3 unique_starting_index=396 config_type=initial n_minim_iter=12 energy=-1299.8900582025583 stress="0.00012539547957604117 -1.754720565648955e-14 2.1263425366618465e-14 -1.754720565648955e-14 9.853047116606025e-05 -2.149681179824126e-05 2.1263425366618465e-14 -2.149681179824126e-05 0.00010754438365667326" free_energy=-1299.8900582025583 pbc="T T T"
Si       3.72121152       2.33151692       1.89507207       0.00079794       0.00163161      -0.00368263
Si       6.96684216       0.77823909       0.63031323       0.00079794      -0.00163161       0.00368263
Si       2.77005040       0.77659207       0.63234138      -0.00079794       0.00326947      -0.00235255
Si       6.01568104       2.33316394       1.89304393      -0.00079794      -0.00326947       0.00235255
Si       9.26131168       3.88799509       3.15569853      -0.00079794      -0.00163161       0.00368263
Si       6.01568104       5.44127292       4.42045737      -0.00079794       0.00163161      -0.00368263
Si      10.21247280       5.44291995       4.41842923       0.00079794      -0.00326947       0.00235255
Si       6.96684216       3.88634807       3.15772668       0.00079794       0.00326947      -0.00235255
