12
Lattice="6.072280607367658 1.3168126667080065e-14 -1.651569628382415e-14 3.036140303683814 6.384283755209617 -0.5264230797142395 3.036140303683848 -0.4973662240306278 6.386613121606989" Properties=species:S:1:pos:R:3:forces:R:3 unique_starting_index=488 config_type=initial n_minim_iter=1 energy=-1951.354428916542 stress="0.0015170013278820581 -2.3303643066042797e-12 -3.961136826119798e-12 -2.3303643066042797e-12 0.002965793868644551 -0.000223299668371471 -3.961136826119798e-12 -0.000223299668371471 0.0029678261301969234" free_energy=-1951.354428916542 pbc="T T T"
Si       2.03625904       1.12439996       2.63177638      -0.08005799      -0.00203642       0.00932554
Si       5.07239934       1.81905882       0.29831865      -0.08005799       0.00203641      -0.00932554
Si       4.03602156       0.30659311       1.81768250       0.08005799      -0.00931618       0.00207883
Si       7.07216187       2.63686566       1.11241253       0.08005799       0.00931618      -0.00207883
Si       8.77681525       5.43956171       5.05546282       0.11197689      -0.01575692      -0.07863629
Si       5.74067495       3.39081459       3.73482225       0.11197689       0.01575693       0.07863629
Si       9.44002657       3.75021334       3.37378434      -0.11197689       0.07870718       0.01539893
Si       6.40388626       5.08016296       5.41650073      -0.11197689      -0.07870718      -0.01539893
Si       7.36389144       4.69986111      -0.04889087       0.22080945      -0.09326785       0.08194026
Si       7.36389144       4.62788142       2.45256282       0.22080945       0.09326785      -0.08194026
Si       7.81681007       2.47359640       4.61667322      -0.22080945      -0.08151500       0.09363975
Si       7.81681007      -0.02750385       4.70003493      -0.22080945       0.08151500      -0.09363975
12
Lattice="6.064700208418115 1.3131745259143142e-14 -1.6539867791195164e-14 3.032350104209043 6.368615159904021 -0.5239671703231701 3.032350104209076 -0.4949816393276647 6.370933513015509" Properties=species:S:1:pos:R:3:forces:R:3 unique_starting_index=488 config_type=initial n_minim_iter=2 energy=-1951.3570964564797 stress="-0.0005119406149370968 -4.851072654041678e-12 -1.3288535863406226e-12 -4.851072654041678e-12 -0.0007193011207908264 0.0005430369398558144 -1.3288535863406226e-12 0.0005430369398558144 -0.0007242432974844306" free_energy=-1951.3570964564797 pbc="T T T"
Si       2.03344941       1.12213334       2.62559014      -0.07099465      -0.01005184      -0.01655105
Si       5.06579952       1.81468342       0.29789304      -0.07099465       0.01005184       0.01655105
Si       4.03125079       0.30614759       1.81330909       0.07099465       0.01659662       0.00997642
Si       7.06360090       2.63066918       1.11017409       0.07099465      -0.01659661      -0.00997642
Si       8.76623296       5.42716859       5.04385865       0.07969635       0.01220072      -0.07458950
Si       5.73388286       3.38328170       3.72659087       0.07969635      -0.01220072       0.07458950
Si       9.42786766       3.74194776       3.36628898      -0.07969635       0.07453321      -0.01254001
Si       6.39551756       5.06850252       5.40416054      -0.07969635      -0.07453321       0.01254001
Si       7.35543683       4.68807724      -0.04763593       0.22628556      -0.10596639       0.05607847
Si       7.35543683       4.61735469       2.44715193       0.22628556       0.10596639      -0.05607847
Si       7.80631369       2.46813767       4.60617123      -0.22628556      -0.05559569       0.10622048
Si       7.80631369      -0.02630254       4.68824546      -0.22628556       0.05559569      -0.10622048
12
Lattice="6.072027758595384 1.3126016771100317e-14 -1.6531432289531463e-14 3.0360138792976774 6.362814554316222 -0.5648419910605781 3.0360138792977107 -0.5358824322758142 6.365318966576746" Properties=species:S:1:pos:R:3:forces:R:3 unique_starting_index=488 config_type=initial n_minim_iter=3 energy=-1951.3695926119779 stress="0.0012246881878468484 -1.2302647942989025e-11 -1.49463056054324e-11 -1.2302647942989025e-11 -0.0014054443018409607 -0.0030096863028157977 -1.49463056054324e-11 -0.0030096863028157977 -0.0013780531241683884" free_energy=-1951.3695926119779 pbc="T T T"
Si       2.03072473       1.10277426       2.61384505      -0.02086698      -0.05772666      -0.09488676
Si       5.06673861       1.81069181       0.28639345      -0.02086698       0.05772666       0.09488675
Si       4.04130303       0.29462996       1.80936984       0.02086698       0.09514846       0.05729428
Si       7.07731691       2.61883611       1.09086865       0.02086698      -0.09514845      -0.05729428
Si       8.78298236       5.38682573       4.99606430      -0.01385189      -0.01687200       0.07598579
Si       5.74696849       3.35357246       3.70465117      -0.01385189       0.01687200      -0.07598579
Si       9.43310091       3.71987310       3.33667989       0.01385189      -0.07590823       0.01721760
Si       6.39708703       5.02052509       5.36403558       0.01385189       0.07590823      -0.01721760
Si       7.38030912       4.67427761      -0.07378779       0.14567410      -0.11743121      -0.03924253
Si       7.38030912       4.60200301       2.40918429       0.14567410       0.11743121       0.03924253
Si       7.79976028       2.43010056       4.59099247      -0.14567410       0.03977649       0.11725142
Si       7.79976028      -0.05251693       4.67456499      -0.14567410      -0.03977649      -0.11725142
12
Lattice="6.048959743731775 1.3059855122550134e-14 -1.64943689122129e-14 3.0244798718658727 6.375531780723189 -0.5355965949992998 3.0244798718659056 -0.5065794698178626 6.377902981415222" Properties=species:S:1:pos:R:3:forces:R:3 unique_starting_index=488 config_type=initial n_minim_iter=4 energy=-1951.37919920996 stress="0.00017386494908386724 9.741887588063827e-12 1.039720764733432e-11 9.741887588063827e-12 6.494873268284916e-06 0.0009143637586912418 1.039720764733432e-11 0.0009143637586912418 -1.8267691808014622e-06" free_energy=-1951.37919920996 pbc="T T T"
Si       2.01802534       1.11668474       2.62336436       0.06626535      -0.05694374      -0.02836469
Si       5.04250521       1.81779142       0.29778884       0.06626535       0.05694374       0.02836469
Si       4.03093441       0.30605753       1.81641753      -0.06626535       0.02862351       0.05681407
Si       7.05541428       2.62841863       1.10473567      -0.06626535      -0.02862351      -0.05681407
Si       8.75501673       5.42402723       5.03009284      -0.05411290      -0.11542534       0.15794474
Si       5.73053686       3.37940124       3.73336675      -0.05411290       0.11542534      -0.15794474
Si       9.39186250       3.74870591       3.36237773       0.05411290      -0.15741787       0.11614286
Si       6.36738263       5.05472256       5.40108186       0.05411290       0.15741787      -0.11614286
Si       7.36876161       4.67698404      -0.04803209       0.02727920      -0.02826969       0.00781187
Si       7.36876161       4.63302390       2.43358869       0.02727920       0.02826969      -0.00781187
Si       7.75363775       2.45464587       4.62190199      -0.02727920      -0.00768315       0.02830494
Si       7.75363775      -0.02674918       4.67715419      -0.02727920       0.00768315      -0.02830494
12
Lattice="6.029044917471626 1.3034950505840137e-14 -1.6394156449635497e-14 3.014522458735799 6.379652325638024 -0.5584203233123533 3.014522458735832 -0.529384211467832 6.382127342051034" Properties=species:S:1:pos:R:3:forces:R:3 unique_starting_index=488 config_type=initial n_minim_iter=5 energy=-1951.383646326957 stress="-0.0024750143753714863 -1.0011388316394097e-12 -6.272449212913185e-12 -1.0011388316394097e-12 0.0006219100245302201 -0.0013786818859355132 -6.272449212913185e-12 -0.0013786818859355132 0.0006344574279944991" free_energy=-1951.383646326957 pbc="T T T"
Si       2.01365946       1.10574768       2.61918121      -0.08344505       0.00067643       0.00977698
Si       5.02818191       1.81938638       0.29267231      -0.08344505      -0.00067643      -0.00977698
Si       4.01538546       0.30094831       1.81803575       0.08344505      -0.00977996      -0.00063194
Si       7.02990792       2.62418575       1.09381776       0.08344505       0.00977996       0.00063194
Si       8.72413589       5.40419740       5.01844855      -0.00434659      -0.08026336       0.15714438
Si       5.70961343       3.37120477       3.71711199      -0.00434659       0.08026336      -0.15714438
Si       9.36299886       3.73241402       3.35425531       0.00434659      -0.15677752       0.08097761
Si       6.34847640       5.04298816       5.38130522       0.00434659       0.15677752      -0.08097761
Si       7.34514928       4.67778072      -0.06474074       0.05343154      -0.06637054       0.03623703
Si       7.34514928       4.62700567       2.41817393       0.05343154       0.06637054      -0.03623703
Si       7.72746301       2.43920388       4.61595397      -0.05343154      -0.03593464       0.06653475
Si       7.72746301      -0.04345403       4.67802689      -0.05343154       0.03593464      -0.06653475
12
Lattice="6.082062526707068 1.3156159689027132e-14 -1.6552117041734538e-14 3.0410312633535197 6.3644658033558015 -0.5783647819355091 3.0410312633535526 -0.54939756920724 6.367031733391769" Properties=species:S:1:pos:R:3:forces:R:3 unique_starting_index=488 config_type=initial n_minim_iter=6 energy=-1951.3956472524649 stress="0.003461972843306938 -5.3064265096724055e-12 5.317169289849355e-12 -5.3064265096724055e-12 -7.446909556002905e-05 -0.002032036408464279 5.317169289849355e-12 -0.002032036408464279 -5.597552481753683e-05" free_energy=-1951.3956472524649 pbc="T T T"
Si       2.03300225       1.08786785       2.60483339      -0.10378247       0.06917493      -0.06470005
Si       5.07403352       1.81966628       0.28950009      -0.10378247      -0.06917493       0.06470005
Si       4.04906027       0.29777741       1.81833008       0.10378247       0.06438460      -0.06946863
Si       7.09009153       2.60975672       1.07600340       0.10378247      -0.06438460       0.06946863
Si       8.79777896       5.35960494       5.00535296       0.10183592      -0.04305880       0.08418549
Si       5.75674770       3.36299742       3.67764747       0.10183592       0.04305880      -0.08418549
Si       9.44840861       3.69291257       3.34622763      -0.10183592      -0.08398868       0.04344144
Si       6.40737735       5.02968979       5.33677280      -0.10183592       0.08398868      -0.04344144
Si       7.42130125       4.65690414      -0.07733769       0.15075851       0.01333519      -0.12359479
Si       7.42130125       4.61509579       2.39330639       0.15075851      -0.01333519       0.12359479
Si       7.78385506       2.41428240       4.60415737      -0.15075851       0.12353283      -0.01389746
Si       7.78385506      -0.05614585       4.65720784      -0.15075851      -0.12353283       0.01389746
12
Lattice="6.05157297341088 1.3038010914960323e-14 -1.643441748437942e-14 3.0257864867054254 6.36611890545352 -0.613609587902195 3.0257864867054596 -0.5846344879018684 6.368845198330218" Properties=species:S:1:pos:R:3:forces:R:3 unique_starting_index=488 config_type=initial n_minim_iter=7 energy=-1951.4354761647023 stress="0.0015462818361433983 7.440229907250405e-12 -1.5524859113025773e-12 7.440229907250405e-12 -0.0007813737559631455 -0.0012429975380883291 -1.5524859113025773e-12 -0.0012429975380883291 -0.0007700612100037921" free_energy=-1951.4354761647023 pbc="T T T"
Si       2.01469286       1.05905425       2.58518215      -0.20037732       0.22768198       0.01837087
Si       5.04047934       1.83168796       0.29243566      -0.20037732      -0.22768198      -0.01837087
Si       4.03688011       0.30076765       1.83033828       0.20037732      -0.01940674      -0.22759603
Si       7.06266660       2.58997457       1.04727953       0.20037732       0.01940674       0.22759603
Si       8.76028968       5.29763956       5.01219245       0.20787569      -0.08970337       0.18114507
Si       5.73450320       3.37458707       3.62066097       0.20787569       0.08970337      -0.18114507
Si       9.39442923       3.63597939       3.35807647      -0.20787569      -0.18073501       0.09052673
Si       6.36864275       5.03624724       5.27477695      -0.20787569       0.18073501      -0.09052673
Si       7.44632121       4.62218653      -0.09224932       0.08248142       0.17565842      -0.19222928
Si       7.44632121       4.63467459       2.35625754       0.08248143      -0.17565842       0.19222928
Si       7.68261122       2.37732303       4.62390456      -0.08248143       0.19142796      -0.17653133
Si       7.68261122      -0.07121530       4.62255845      -0.08248143      -0.19142796       0.17653133
12
Lattice="6.0145067660575515 1.2904509864772193e-14 -1.629404264084283e-14 3.007253383028761 6.3765682313452485 -0.6470533962382621 3.007253383028796 -0.6180304007786729 6.379446600630668" Properties=species:S:1:pos:R:3:forces:R:3 unique_starting_index=488 config_type=initial n_minim_iter=8 energy=-1951.4634145061736 stress="-0.0012893706467606663 -9.095969974132514e-12 8.203721912827679e-12 -9.095969974132514e-12 -0.0008847843286949784 -0.0010250597071765788 8.203721912827679e-12 -0.0010250597071765788 -0.0008754552613404502" free_energy=-1951.4634145061736 pbc="T T T"
Si       1.99056943       1.03466636       2.56833029      -0.22560643       0.33995188       0.11809658
Si       4.99782282       1.84460256       0.29786631      -0.22560643      -0.33995188      -0.11809658
Si       4.02393733       0.30625701       1.84322804       0.22560643      -0.11964229      -0.33941097
Si       7.03119071       2.57301191       1.02296857       0.22560643       0.11964229       0.33941097
Si       8.71653766       5.23507714       5.04274983       0.28302671      -0.13119540       0.24417587
Si       5.70928428       3.40272961       3.55583998       0.28302671       0.13119540      -0.24417587
Si       9.32698264       3.57128714       3.38651369      -0.28302671      -0.24357634       0.13230516
Si       6.31972925       5.06651961       5.21207613      -0.28302671       0.24357634      -0.13230516
Si       7.47147681       4.59289625      -0.10704951      -0.02271659       0.37351924      -0.15053101
Si       7.47147681       4.66294090       2.32619272      -0.02271659      -0.37351924       0.15053101
Si       7.56479010       2.34738715       4.65230739       0.02271659       0.14882977      -0.37420036
Si       7.56479010      -0.08614863       4.59333582       0.02271659      -0.14882977       0.37420036
12
Lattice="5.979710498376101 1.2783433518767677e-14 -1.6102517403038175e-14 2.9898552491880355 6.404293765981806 -0.6179808718661348 2.9898552491880714 -0.588832013566533 6.407039554957103" Properties=species:S:1:pos:R:3:forces:R:3 unique_starting_index=488 config_type=initial n_minim_iter=9 energy=-1951.5214115347019 stress="-0.0005911060479853492 -2.593955190849507e-12 -7.803714740612227e-12 -2.593955190849507e-12 0.0014474127836218002 0.0026052655409347157 -7.803714740612227e-12 0.0026052655409347157 0.0014237022550615942" free_energy=-1951.5214115347019 pbc="T T T"
Si       1.96559135       1.05481548       2.57757881       0.00042233       0.18188599       0.32846264
Si       4.95544660       1.85291541       0.31695054       0.00042233      -0.18188599      -0.32846264
Si       4.01411915       0.32537887       1.85145395      -0.00042233      -0.32928690      -0.18038946
Si       7.00397440       2.58235201       1.04307539      -0.00042233       0.32928690       0.18038945
Si       8.67948824       5.24331046       5.15158888       0.20400983      -0.12912113       0.11722260
Si       5.68963299       3.47988217       3.53199915       0.20400983       0.12912113      -0.11722260
Si       9.25964326       3.54779764       3.46377393      -0.20400983      -0.11663382       0.12965321
Si       6.26978801       5.17539500       5.21981410      -0.20400983       0.11663382      -0.12965321
Si       7.47439118       4.60504644      -0.08719655      -0.01012377       0.35625350       0.13388617
Si       7.47439118       4.70697821       2.36374503      -0.01012377      -0.35625350      -0.13388617
Si       7.47488506       2.38513946       4.69617336       0.01012377      -0.13550590      -0.35564057
Si       7.47488506      -0.06624059       4.60539555       0.01012377       0.13550590       0.35564057
12
Lattice="5.952301591161659 1.2430926500747699e-14 -1.6050185119281035e-14 2.976150795580814 6.418799901999004 -0.6183289005059618 2.9761507955808515 -0.5891140290623555 6.421547124475934" Properties=species:S:1:pos:R:3:forces:R:3 unique_starting_index=488 config_type=initial n_minim_iter=10 energy=-1951.567545347172 stress="-0.00045948770985849443 6.055217460644458e-12 -1.1569527831309253e-12 6.055217460644458e-12 0.0003535074680462152 0.004354551370617669 -1.1569527831309253e-12 0.004354551370617669 0.0003138766463530404" free_energy=-1951.567545347172 pbc="T T T"
Si       1.94862704       1.07192896       2.59218690       0.20038752      -0.02571482       0.43471358
Si       4.92477784       1.84291398       0.30942222       0.20038752       0.02571482      -0.43471358
Si       4.00367455       0.31780511       1.84148689      -0.20038752      -0.43459206       0.02769270
Si       6.97982534       2.59703783       1.06012223      -0.20038752       0.43459207      -0.02769270
Si       8.65383268       5.22482447       5.21137693      -0.08041320      -0.00142567      -0.06564819
Si       5.67768188       3.51970434       3.49345041      -0.08041320       0.00142567       0.06564819
Si       9.20307209       3.50943050       3.50377111       0.08041320       0.06565400       0.00112693
Si       6.22692130       5.23509831       5.20105624       0.08041320      -0.06565400      -0.00112693
Si       7.45232431       4.63573731      -0.09279592       0.15894612       0.10165968       0.38348615
Si       7.45232431       4.69790553       2.37607614       0.15894612      -0.10165968      -0.38348615
Si       7.42842966       2.39742916       4.68704466      -0.15894612      -0.38394477      -0.09991359
Si       7.42842966      -0.07170024       4.63611158      -0.15894612       0.38394477       0.09991359
12
Lattice="5.949332067661725 1.1933132578254341e-14 -1.573352071656217e-14 2.974666033830846 6.423062216473681 -0.7129827698763338 2.974666033830885 -0.6837475229686344 6.426240113135087" Properties=species:S:1:pos:R:3:forces:R:3 unique_starting_index=488 config_type=initial n_minim_iter=11 energy=-1951.6064137243352 stress="0.003505681352660991 -6.475742929433847e-12 6.691498075503362e-13 -6.475742929433847e-12 0.0002107713694556891 -0.003116231736111196 6.691498075503362e-13 -0.003116231736111196 0.00023913221279892797" free_energy=-1951.6064137243352 pbc="T T T"
Si       1.94498925       1.03393913       2.58642163       0.13847525       0.10251373       0.17808280
Si       4.91965528       1.83571823       0.27020705       0.13847524      -0.10251373      -0.17808280
Si       4.00434282       0.27855761       1.83446965      -0.13847525      -0.17854744      -0.10170231
Si       6.97900885       2.59109974       1.02215902      -0.13847525       0.17854744       0.10170231
Si       8.65733283       5.12301753       5.15646103      -0.17386870       0.07676398      -0.00912399
Si       5.68266680       3.48595452       3.41342499      -0.17386870      -0.07676398       0.00912399
Si       9.19066337       3.42925233       3.47038578       0.17386870       0.00877458      -0.07680470
Si       6.21599734       5.17971972       5.09950024       0.17386870      -0.00877458       0.07680470
Si       7.47894610       4.63293333      -0.14936527       0.13483320       0.13269466       0.21298881
Si       7.47894610       4.65978624       2.29301118       0.13483320      -0.13269466      -0.21298881
Si       7.39438407       2.31419159       4.64930375      -0.13483320      -0.21359043      -0.13172409
Si       7.39438407      -0.12828176       4.63356504      -0.13483320       0.21359043       0.13172409
12
Lattice="5.922485315423621 1.1470155452111835e-14 -1.5563564081741755e-14 2.961242657711794 6.430337917087139 -0.7024772888537337 2.961242657711833 -0.6732090429542296 6.433467933686184" Properties=species:S:1:pos:R:3:forces:R:3 unique_starting_index=488 config_type=initial n_minim_iter=12 energy=-1951.6264332291812 stress="-0.00033290470466891016 5.356486175411252e-13 -7.134945513542163e-12 5.356486175411252e-13 -0.002798638598035235 -0.003578975705888552 -7.134945513542163e-12 -0.003578975705888552 -0.0027660663359355187" free_energy=-1951.6264332291812 pbc="T T T"
Si       1.94129163       1.04872128       2.60704092       0.10828320       0.06100125       0.05545827
Si       4.90253429       1.82984317       0.25845441       0.10828320      -0.06100125      -0.05545827
Si       3.98119368       0.26677836       1.82864814      -0.10828320      -0.05573528      -0.06074826
Si       6.94243634       2.61178609       1.03684719      -0.10828320       0.05573528       0.06074826
Si       8.61559062       5.15682867       5.15091951      -0.15163463       0.01687721       0.03159188
Si       5.65434796       3.47886465       3.44556646      -0.15163464      -0.01687720      -0.03159188
Si       9.15186533       3.46136121       3.46314973       0.15163464      -0.03166836      -0.01673327
Si       6.19062267       5.17433211       5.13333625       0.15163464       0.03166836       0.01673327
Si       7.42565148       4.65722761      -0.13735721       0.12407428      -0.01187719       0.20554614
Si       7.42565148       4.65167475       2.30037524       0.12407428       0.01187719      -0.20554614
Si       7.38056181       2.32151867       4.64115883      -0.12407428      -0.20548996       0.01281239
Si       7.38056181      -0.11616327       4.65780443      -0.12407428       0.20548996      -0.01281240
12
Lattice="5.804474661201611 1.0698964871874355e-14 -1.4673996405921047e-14 2.902237330600787 6.506619071679587 -0.6419878140588675 2.9022373306008284 -0.6123730803552195 6.509473043787853" Properties=species:S:1:pos:R:3:forces:R:3 unique_starting_index=488 config_type=initial n_minim_iter=13 energy=-1951.6711424974164 stress="-0.007848168600736978 -3.5203708511427294e-12 5.255213968721729e-12 -3.5203708511427294e-12 -0.0008763527096409469 -5.334302589142718e-05 5.255213968721729e-12 -5.334302589142718e-05 -0.0008758672317872892" free_energy=-1951.6711424974164 pbc="T T T"
Si       1.90361765       1.10470697       2.68061275       0.14984247       0.16881534      -0.12011799
Si       4.80585498       1.84241603       0.25312987       0.14984247      -0.16881534       0.12011799
Si       3.90085701       0.26151109       1.84124510      -0.14984247       0.11934856      -0.16936018
Si       6.80309434       2.68561192       1.09249752      -0.14984247      -0.11934856       0.16936018
Si       8.44979647       5.25446515       5.30772132      -0.09972451      -0.10705425      -0.05075053
Si       5.54755914       3.58690384       3.49350653      -0.09972451       0.10705425       0.05075053
Si       8.96362751       3.50979241       3.57096965       0.09972451       0.05123715       0.10682220
Si       6.06139018       5.33157658       5.23025820       0.09972451      -0.05123715      -0.10682220
Si       7.32486252       4.72732418      -0.05852819       0.05438753      -0.00020500       0.16325124
Si       7.32486252       4.72641789       2.35028300       0.05438752       0.00020499      -0.16325124
Si       7.18632413       2.37176602       4.71567410      -0.05438752      -0.16324861       0.00094786
Si       7.18632413      -0.03701610       4.72754157      -0.05438752       0.16324861      -0.00094786
12
Lattice="5.875611502696435 1.0337822465284839e-14 -1.4990086310831323e-14 2.937805751348198 6.510729229755049 -0.6135369231875162 2.9378057513482405 -0.5839037809512986 6.513453694768372" Properties=species:S:1:pos:R:3:forces:R:3 unique_starting_index=488 config_type=initial n_minim_iter=14 energy=-1951.6953018789914 stress="0.0038951335067996563 -1.121000116264825e-12 -1.5466885128627003e-11 -1.121000116264825e-12 0.0013826288565377827 0.0001206383845538098 -1.5466885128627003e-11 0.0001206383845538098 0.0013815309179466529" free_energy=-1951.6953018789914 pbc="T T T"
Si       1.93530914       1.12309663       2.69134533       0.22207150       0.17285579      -0.20025919
Si       4.87311489       1.84031610       0.25861307       0.22207150      -0.17285579       0.20025919
Si       3.94030236       0.26698467       1.83912024      -0.22207150       0.19947054      -0.17376527
Si       6.87810811       2.69642806       1.11083815      -0.22207150      -0.19947054       0.17376527
Si       8.54903415       5.27238154       5.34646813       0.00098716      -0.15220579      -0.10080980
Si       5.61122840       3.61785664       3.50340703       0.00098716       0.15220579       0.10080980
Si       9.07780035       3.51983366       3.60187708      -0.00098716       0.10150136       0.15174549
Si       6.13999460       5.37040452       5.24799808      -0.00098716      -0.10150136      -0.15174549
Si       7.43335227       4.73232029      -0.02270548       0.04787405       0.08644012      -0.06131283
Si       7.43335227       4.74182167       2.35912695       0.04787405      -0.08644012       0.06131283
Si       7.25567648       2.38067998       4.73103747      -0.04787405       0.06091885      -0.08671823
Si       7.25567648      -0.00117103       4.73237462      -0.04787405      -0.06091885       0.08671823
12
Lattice="5.847021299781066 1.0363088282812766e-14 -1.443883721955687e-14 2.9235106498905132 6.519548198957135 -0.5942535624116384 2.923510649890557 -0.5645804894877877 6.522184824570192" Properties=species:S:1:pos:R:3:forces:R:3 unique_starting_index=488 config_type=initial n_minim_iter=15 energy=-1951.7251324608371 stress="-0.000361948086798962 -1.6758316622614743e-11 1.1090760625576636e-11 -1.6758316622614743e-11 -0.0006743640604072944 0.00043187279555230733 1.1090760625576636e-11 0.00043187279555230733 -0.0006782945235518168" free_energy=-1951.7251324608371 pbc="T T T"
Si       1.93854838       1.15066919       2.69467555       0.11831893       0.17126746      -0.04169129
Si       4.86205903       1.82681467       0.26929008       0.11831893      -0.17126745       0.04169129
Si       3.90847292       0.27760014       1.82557037      -0.11831893       0.04091151      -0.17145539
Si       6.83198357       2.69988372       1.13839527      -0.11831893      -0.04091151       0.17145540
Si       8.50853991       5.25544931       5.40968153      -0.03949467      -0.04241646      -0.16982032
Si       5.58502926       3.67700226       3.48221537      -0.03949467       0.04241646       0.16982032
Si       9.03252399       3.49891135       3.66111852       0.03949467       0.17001158       0.04164326
Si       6.10901334       5.43354022       5.23077838       0.03949467      -0.17001158      -0.04164326
Si       7.44103289       4.74290580       0.00772761       0.12390428       0.03840244      -0.10686037
Si       7.44103289       4.75412626       2.36198447       0.12390427      -0.03840244       0.10686037
Si       7.17652035       2.38359346       4.74332893      -0.12390428       0.10668452      -0.03888830
Si       7.17652035       0.02930991       4.74282153      -0.12390428      -0.10668452       0.03888830
12
Lattice="5.839327671553331 1.0270001862820119e-14 -1.4225335416262453e-14 2.9196638357766456 6.537362389313415 -0.5516767581060689 2.9196638357766895 -0.5219230632980253 6.539805086594056" Properties=species:S:1:pos:R:3:forces:R:3 unique_starting_index=488 config_type=initial n_minim_iter=16 energy=-1951.7488227658816 stress="-0.0008878675398417969 2.933847893930375e-12 1.1771453342425223e-11 2.933847893930375e-12 -0.0010024636823556903 0.0010606547967770238 1.1771453342425223e-11 0.0010606547967770238 -0.001012116711932944" free_energy=-1951.7488227658816 pbc="T T T"
Si       1.95527150       1.19874573       2.71186055       0.03817687       0.10831455       0.11601286
Si       4.87493533       1.80897394       0.28220362       0.03817687      -0.10831455      -0.11601287
Si       3.88405617       0.29043236       1.80767106      -0.03817687      -0.11650455      -0.10778552
Si       6.80372001       2.71728731       1.18639311      -0.03817687       0.11650455       0.10778552
Si       8.49494996       5.28567746       5.46944815       0.00385692      -0.06431376      -0.10712388
Si       5.57528612       3.73748153       3.51274435       0.00385692       0.06431376       0.10712388
Si       9.02303306       3.52971523       3.72145825      -0.00385692       0.10741543       0.06382563
Si       6.10336922       5.49344377       5.26073425      -0.00385692      -0.10741543      -0.06382563
Si       7.46418621       4.76928163       0.05850937       0.07981711      -0.06628506      -0.17431211
Si       7.46418621       4.77580043       2.38387804       0.07981711       0.06628506       0.17431211
Si       7.13413297       2.40558543       4.76490325      -0.07981711       0.17461193       0.06549117
Si       7.13413297       0.08021118       4.76896601      -0.07981711      -0.17461193      -0.06549117
12
Lattice="5.82851321772057 1.010136879601846e-14 -1.3868731584736212e-14 2.9142566088602657 6.555195587363099 -0.543797684588775 2.91425660886031 -0.5139629221640413 6.557602246628654" Properties=species:S:1:pos:R:3:forces:R:3 unique_starting_index=488 config_type=initial n_minim_iter=17 energy=-1951.7599972982382 stress="-0.0003888337191873943 3.0137809976042817e-12 5.968261947957509e-12 3.0137809976042817e-12 -0.00031536897720407954 8.965662250874127e-05 5.968261947957509e-12 8.965662250874127e-05 -0.0003161849302968498" free_energy=-1951.7599972982382 pbc="T T T"