6
Lattice="5.932937265047667 1.739378416359257e-57 1.2682841240546277e-44 -1.7371572609971125e-57 5.932937265047668 -1.0390396891038829e-15 -1.6475648101960563e-44 1.349764769341916e-15 7.707183645683123" Properties=species:S:1:pos:R:3:forces:R:3 unique_starting_index=46 config_type=initial n_minim_iter=1 energy=-971.1752943713387 stress="-8.477694641560892e-05 -3.4427292953008554e-12 -8.260389694476001e-13 -3.4427292953008554e-12 -8.477694641553117e-05 2.0472289409072744e-13 -8.260389694476001e-13 2.0472289409072744e-13 -0.00019219101493935954" free_energy=-971.1752943713387 pbc="T T T"
Si       4.57010106       1.36283620       6.38226849       0.00490611      -0.00490611      -0.00132911
Si       1.36283620       4.57010106       6.38226849      -0.00490611       0.00490611      -0.00132910
Si       4.57010106       4.57010106       1.32491515       0.00490611       0.00490611       0.00132911
Si       1.36283620       1.36283620       1.32491515      -0.00490611      -0.00490611       0.00132910
Si       2.96646863       2.96646863       6.28572015      -0.00000000       0.00000000      -0.00274191
Si       2.96646863       2.96646863       1.42146349      -0.00000000       0.00000000       0.00274191
