18
Lattice="5.12909 -6.646199091098471e-16 4.536710763713797e-48 -2.5645450000000003 4.441922238296727 -1.3418767902553766e-47 1.264418306362512e-31 2.1900367486400615e-31 16.21279" Properties=species:S:1:pos:R:3:forces:R:3 unique_starting_index=376 config_type=initial n_minim_iter=1 energy=-2826.665463820101 stress="-0.830233672059929 -0.8302336720549146 -0.2573654530922236 1.3653944283267088e-12 1.2645070329435674e-12 1.132789645547282e-11" pbc="T T T"
Si       1.22316435      -0.16630113       1.45471528       4.77773170     -12.08935841      -1.61468983
Si       4.66152882       1.14244197       1.45471528       8.08082564      10.18231623      -1.61468983
Si       1.80894181       3.46578140       1.45471528     -12.85855735       1.90704218      -1.61468983
Si       4.18115338       0.77780501      13.78404759      18.77601359      -1.27086760     -14.51492689
Si       2.36491440       3.23208254      13.78404759      -8.28740317      16.89593855     -14.51492689
Si       1.14756720       0.43203468      13.78404759     -10.48861042     -15.62507095     -14.51492689
Si       1.65473291       1.64058089      14.70176284     -26.54449083      20.09343820      10.66011533
Si       2.88093881       0.61275030      14.70176284      -4.12918252     -33.03492249      10.66011533
Si       3.15796326       2.18859105      14.70176284      30.67367335      12.94148429      10.66011533
Si       1.23573960       1.42832275       1.58518284      12.84160027      23.32000042       1.28667215
Si       3.27425641       0.35602052       1.58518284     -26.61651291      -0.53884815       1.28667214
Si       3.18363898       2.65757897       1.58518284      13.77491264     -22.78115227       1.28667214
Si      -1.93090953       3.73073318       8.97513952      17.61012762     -20.17022682       0.06982335
Si       0.29909005       0.90433895       8.97513952       8.66286501      25.33593129       0.06982335
Si       1.63181947       4.24877235       8.97513952     -26.27299263      -5.16570448       0.06982335
Si       4.22570748       0.22068003       3.24764882     -29.96529076       7.46078916       4.11300589
Si       2.82512174       3.54923002       3.24764882       8.52141243     -29.68109761       4.11300589
Si       0.64280576       0.67201219       3.24764882      21.44387833      22.22030845       4.11300589
18
Lattice="5.288819795037958 -4.491175502512403e-16 -4.446937215893493e-32 -2.64440989751898 4.58025229854088 -8.769302857790425e-32 -1.0185926832014423e-32 -1.754066879013834e-31 16.367651326461736" Properties=species:S:1:pos:R:3:forces:R:3 unique_starting_index=376 config_type=initial n_minim_iter=2 energy=-2845.908120562164 stress="-0.6484666151159322 -0.6484666151136991 -0.19743249736442056 -1.1526742629794277e-12 2.6096822628732333e-12 -2.4708742477057402e-12" pbc="T T T"
Si       1.26174871      -0.17272665       1.46844742       3.95634233      -8.86468172      -1.26345057
Si       4.80753110       1.17906977       1.46844742       5.69886840       7.85863383      -1.26345057
Si       1.86394986       3.57390919       1.46844742      -9.65521073       1.00604790      -1.26345057
Si       4.31329867       0.80189632      13.91424470      16.51394664      -1.33010824     -11.56044938
Si       2.43770787       3.33447806      13.91424470      -7.10506579      14.96655142     -11.56044938
Si       1.18222314       0.44387791      13.91424470      -9.40888085     -13.63644318     -11.56044938
Si       1.70352738       1.69374367      14.84326733     -19.96896368      16.96031529       8.55014852
Si       2.97023105       0.62842616      14.84326733      -4.70358205     -25.77378748       8.55014852
Si       3.25947125       2.25808247      14.84326733      24.67254573       8.81347219       8.55014852
Si       1.27554708       1.47520811       1.60045409      10.55107317      18.80630782       0.71847272
Si       3.37347855       0.36705212       1.60045409     -21.56227691      -0.26565651       0.71847272
Si       3.28420405       2.73799207       1.60045409      11.01120374     -18.54065131       0.71847272
Si      -1.98922594       3.84483560       9.06087531      14.54012347     -15.25295871       0.01775305
Si       0.30929756       0.93511431       9.06087531       5.93938800      20.21859565       0.01775305
Si       1.67992836       4.38055469       9.06087531     -20.47951146      -4.96563694       0.01775305
Si       4.35421435       0.22832175       3.27908494     -21.66450358       5.47567913       3.53752566
Si       2.91398018       3.65669937       3.27908494       6.09017456     -21.49985002       3.53752566
Si       0.66503515       0.69523118       3.27908494      15.57432902      16.02417089       3.53752566
18
Lattice="6.176947056658681 -2.868060782340565e-16 -3.83388813389955e-32 -3.0884735283293416 5.3493930688979345 -6.849620779635715e-32 1.4009964424232818e-32 -1.0551956052956947e-31 17.159775654383246" Properties=species:S:1:pos:R:3:forces:R:3 unique_starting_index=376 config_type=initial n_minim_iter=3 energy=-2901.999937839738 stress="-0.14746366589219106 -0.14746366589061202 -0.04601624355963606 7.858857761923966e-14 -1.4859424861769578e-12 3.465886267499348e-12" pbc="T T T"
Si       1.47659456      -0.20837793       1.53869893      -0.91867545      -3.47844792      -0.95871577
Si       5.61911035       1.38295737       1.53869893       3.47176199       0.94362768      -0.95871577
Si       2.16971565       4.17481363       1.53869893      -2.55308654       2.53482024      -0.95871577
Si       5.04999208       0.93555788      14.58017688       6.10040770       0.17352866      -3.91265468
Si       2.84173412       3.90564250      14.58017688      -3.20048407       5.19634371      -3.91265469
Si       1.37369437       0.50819270      14.58017688      -2.89992362      -5.36987237      -3.91265469
Si       1.97462167       1.99088188      15.56713377      -6.72151491       7.37547975       3.39500381
Si       3.46548193       0.71463159      15.56713377      -3.02659538      -9.50874254       3.39500380
Si       3.82531697       2.64387960      15.56713377       9.74811028       2.13326278       3.39500381
Si       1.49765427       1.73703263       1.67837271       2.05441249       7.85049909      -0.23133437
Si       3.92380553       0.42849033       1.67837271      -7.82593789      -2.14607613      -0.23133437
Si       3.84396077       3.18387011       1.67837271       5.77152539      -5.70442295      -0.23133437
Si      -2.31236642       4.47904567       9.49939437       5.68468491      -3.21643328       0.00000000
Si       0.36568939       1.10730218       9.49939437      -0.05682953       6.53129819      -0.00000000
Si       1.94667700       5.11243829       9.49939437      -5.62785539      -3.31486491       0.00000000
Si       5.06915515       0.27076803       3.44006072      -3.26808715      -0.47063386       1.70770102
Si       3.40787748       4.25463313       3.44006072       2.04162446      -2.59492956       1.70770102
Si       0.78838794       0.82399191       3.44006072       1.22646270       3.06556343       1.70770102
18
Lattice="6.657225734961677 2.4599686196957173e-16 -2.8914267715231957e-31 -3.3286128674808406 5.765326605204343 -5.660265304510909e-31 -7.697760955880003e-31 -2.3668075155018806e-30 17.56545206657149" Properties=species:S:1:pos:R:3:forces:R:3 unique_starting_index=376 config_type=initial n_minim_iter=4 energy=-2911.586929954669 stress="-0.05451404328023664 -0.05451404327088362 -0.014775083058436623 -3.744575813372939e-12 3.305419497552197e-12 -3.818392347013173e-12" pbc="T T T"
Si       1.59011884      -0.22944920       1.57409098      -0.66095553      -1.84848644      -0.59841322
Si       6.06087514       1.49180792       1.57409098       1.93131398       0.35183895      -0.59841322
Si       2.33484460       4.50296789       1.57409098      -1.27035846       1.49664750      -0.59841322
Si       5.45118559       1.00854359      14.92085068       3.23283589       0.26764930      -1.75671244
Si       3.05820855       4.21659341      14.92085068      -1.84820904       2.66589335      -1.75671244
Si       1.47644443       0.54018960      14.92085068      -1.38462685      -2.93354266      -1.75671244
Si       2.11874637       2.15600402      15.93864475      -3.89794578       4.53725282       1.77802719
Si       3.73069829       0.75688618      15.93864475      -1.98040331      -5.64434647       1.77802719
Si       4.13639392       2.85243641      15.93864475       5.87834909       1.10709366       1.77802719
Si       1.61697778       1.88308206       1.71781377       0.86192379       3.41681675      -0.26356499
Si       4.21793993       0.45880281       1.71781377      -3.39001200      -0.96196048      -0.26356499
Si       4.15092087       3.42344174       1.71781377       2.52808821      -2.45485627      -0.26356499
Si      -2.48420329       4.82280433       9.72397075       0.27607701      -1.31607898       0.00000000
Si       0.39404344       1.20254129       9.72397075       1.00171933       0.89712920      -0.00000000
Si       2.09015983       5.50530759       9.72397075      -1.27779634       0.41894979       0.00000000
Si       5.45872453       0.29116237       3.52314131      -1.47487391       0.23118829       0.84066346
Si       3.67570945       4.58181293       3.52314131       0.53722202      -1.39287242       0.84066346
Si       0.85140460       0.89235130       3.52314131       0.93765189       1.16168413       0.84066346
18
Lattice="7.057797572435843 -6.304299548102942e-18 1.065648711288569e-29 -3.5288987862179217 6.112231992497581 2.1328941211168531e-29 3.363216837047733e-29 9.694542803510808e-29 17.845841504299976" Properties=species:S:1:pos:R:3:forces:R:3 unique_starting_index=376 config_type=initial n_minim_iter=5 energy=-2915.038109535353 stress="-0.011949722520381227 -0.01194972252271932 -0.014013287296812688 -4.736854483357392e-14 -2.6061035179326226e-12 -3.5152251140549635e-13" pbc="T T T"
Si       1.68392111      -0.24850407       1.59808291      -0.43132763      -1.09449015       0.40772613
Si       6.43104785       1.58257050       1.59808291       1.16352009       0.17370439       0.40772613
Si       2.47172738       4.77816556       1.59808291      -0.73219246       0.92078576       0.40772613
Si       5.78836828       1.06998863      15.15569484       2.09847052      -0.10368811      -1.11111825
Si       3.23697608       4.47787967      15.15569484      -0.95943872       1.86917283      -1.11111825
Si       1.56135197       0.56436369      15.15569484      -1.13903179      -1.76548472      -1.11111825
Si       2.23516541       2.29861621      16.19643729      -1.32029799       2.90030689       0.62340519
Si       3.94955483       0.78640193      16.19643729      -1.85159045      -2.59356504       0.62340519
Si       4.40197610       3.02721386      16.19643729       3.17188844      -0.30674185       0.62340519
Si       1.71672032       2.00609084       1.74473475       0.71610798       1.67753611      -0.37969327
Si       4.46211177       0.48367799       1.74473475      -1.81084287      -0.21860035      -0.37969327
Si       4.40786425       3.62246316       1.74473475       1.09473489      -1.45893576      -0.37969327
Si      -2.63289635       5.10926028       9.87919014      -1.15860055       0.28334031      -0.00000000
Si       0.42059775       1.27744674       9.87919014       0.33392037      -1.14504766       0.00000000
Si       2.21229857       5.83775697       9.87919014       0.82468018       0.86170735      -0.00000000
Si       5.78299353       0.30933834       3.58097351      -0.32669703       0.36436478       0.45968019
Si       3.89840593       4.85355014       3.58097351      -0.15220064      -0.46511032       0.45968019
Si       0.90529687       0.94934350       3.58097351       0.47889767       0.10074553       0.45968019
18
Lattice="7.198173203393749 9.907445298014626e-16 -5.869318354808225e-28 -3.5990866016968757 6.233800854979398 -1.1738457672555399e-27 -1.8560270804042743e-27 -5.358027908795393e-27 18.26279046764529" Properties=species:S:1:pos:R:3:forces:R:3 unique_starting_index=376 config_type=initial n_minim_iter=6 energy=-2915.603842666475 stress="0.006349473666182829 0.006349473662993788 -0.012430698262509374 -1.6480128456155774e-12 8.136508630331187e-13 4.4372426322740886e-13" pbc="T T T"
Si       1.71563019      -0.25797146       1.63650266      -0.61591214      -0.75839924       1.03488445
Si       6.56376794       1.61476506       1.63650266       0.96474908      -0.15419594       1.03488445
Si       2.51786166       4.87700726       1.63650266      -0.34883694       0.91259518       1.03488445
Si       5.91217106       1.09084145      15.50684207       1.61807936      -0.38449681      -0.73527129
Si       3.29739126       4.57466962      15.50684207      -0.47605568       1.59354623      -0.73527129
Si       1.58769746       0.56828979      15.50684207      -1.14202368      -1.20904943      -0.73527129
Si       2.27416329       2.35632469      16.57650445      -0.21409283       2.19606923       0.00663196
Si       4.02045451       0.79132084      16.57650445      -1.79480533      -1.28344444       0.00663196
Si       4.50264199       3.08615533      16.57650445       2.00889816      -0.91262479       0.00663196
Si       1.75382542       2.05292605       1.78449075       0.59302659       1.36331501      -0.43025849
Si       4.54337438       0.49239435       1.78449075      -1.47717873      -0.16808141      -0.43025849
Si       4.50005999       3.68848046       1.78449075       0.88415214      -1.19523360      -0.43025849
Si      -2.69005300       5.21205197      10.11000683      -0.20605187       0.23160120      -0.00000000
Si       0.43034368       1.29812064      10.11000683      -0.09754658      -0.29424675       0.00000000
Si       2.25970930       5.95742910      10.11000683       0.30359846       0.06264556      -0.00000000
Si       5.89666341       0.31699725       3.66585929       0.24025442       0.05206037       0.12401337
Si       3.97531382       4.94816170       3.66585929      -0.16521281       0.18203625       0.12401337
Si       0.92528255       0.96864191       3.66585929      -0.07504161      -0.23409662       0.12401337
18
Lattice="7.141603854548228 -1.285427171546709e-16 4.4277062034443027e-26 -3.5708019272741156 6.184810361803636 8.855414264631819e-26 1.4027859015556768e-25 4.0494927336124035e-25 18.547075789178646" Properties=species:S:1:pos:R:3:forces:R:3 unique_starting_index=376 config_type=initial n_minim_iter=7 energy=-2915.905286990684 stress="0.00029296401648746146 0.00029296402027496015 -0.011116877939949912 -2.2789713937821778e-12 -1.7466191490419437e-13 9.257364903214875e-13" pbc="T T T"
Si       1.70032237      -0.25819122       1.66399920      -0.73785744      -0.80880408       1.09902431
Si       6.51504282       1.60161799       1.66399920       1.06937360      -0.23460124       1.09902431
Si       2.49704057       4.84138360       1.66399920      -0.33151617       1.04340533       1.09902431
Si       5.87050254       1.08112943      15.74679059       1.65123414      -0.40775522      -0.62121244
Si       3.27006702       4.54343963      15.74679059      -0.47249070       1.63388832      -0.62121244
Si       1.57183620       0.56024130      15.74679059      -1.17874345      -1.22613311      -0.62121244
Si       2.25565663       2.34431360      16.83455338      -0.40616539       2.18956855      -0.13959785
Si       3.98354040       0.78129915      16.83455338      -1.69313929      -1.44653382      -0.13959785
Si       4.47320873       3.05919761      16.83455338       2.09930468      -0.74303473      -0.13959785
Si       1.74179949       2.04083188       1.81142808       0.56889433       1.25301687      -0.25501255
Si       4.50329184       0.48802667       1.81142808      -1.36959161      -0.13383149      -0.25501255
Si       4.46731443       3.65595180       1.81142808       0.80069727      -1.11918538      -0.25501255
Si      -2.66952281       5.17177747      10.26738292      -0.48064253       0.19051125       0.00000000
Si       0.42667265       1.28704706      10.26738292       0.07533369      -0.51150427       0.00000000
Si       2.24285014       5.91079619      10.26738292       0.40530885       0.32099302      -0.00000000
Si       5.85103430       0.31466027       3.72316572      -0.12627492       0.19441346      -0.08320147
Si       3.94358291       4.90981422       3.72316572      -0.10522953      -0.20656401      -0.08320147
Si       0.91778855       0.96033588       3.72316572       0.23150445       0.01215056      -0.08320147
18
Lattice="7.138468446432398 8.774996721541459e-16 -4.6224914303331e-24 -3.569234223216201 6.182095018724093 -9.244982841029693e-24 -1.4632584040712414e-23 -4.2240631806269066e-23 18.858721460303457" Properties=species:S:1:pos:R:3:forces:R:3 unique_starting_index=376 config_type=initial n_minim_iter=8 energy=-2916.169496006751 stress="0.000994539682252282 0.000994539679854734 -0.00851731961423448 9.801390374899627e-13 -2.103288050236e-12 4.548543997579622e-13" pbc="T T T"
Si       1.69695965      -0.26094565       1.69463515      -0.85464387      -0.73115984       1.19899878
Si       6.51597417       1.60008300       1.69463515       1.06052493      -0.37456338       1.19899878
Si       2.49476883       4.84295767       1.69463515      -0.20588107       1.10572322       1.19899878
Si       5.87377997       1.07920900      16.00987070       1.56475050      -0.47614821      -0.42178101
Si       3.26695604       4.54723818      16.00987070      -0.37001881       1.59318779      -0.42178101
Si       1.56696664       0.55564784      16.00987070      -1.19473170      -1.11703959      -0.42178101
Si       2.25322618       2.35104792      17.11708373      -0.28635452       2.02641124      -0.31371330
Si       3.97578813       0.77582716      17.11708373      -1.61174635      -1.26119591      -0.31371330
Si       4.47868834       3.05521994      17.11708373       1.89810087      -0.76521533      -0.31371330
Si       1.74305191       2.04437871       1.84124453       0.53160731       1.08225974      -0.17364654
Si       4.49645858       0.48733789       1.84124453      -1.20306808      -0.08074444      -0.17364654
Si       4.46819215       3.65037842       1.84124453       0.67146078      -1.00151530      -0.17364654
Si      -2.67005501       5.17018238      10.43990529      -0.42953136       0.14251722       0.00000000
Si       0.42675243       1.28466836      10.43990529       0.09134215      -0.44324368      -0.00000000
Si       2.24330256       5.90933929      10.43990529       0.33818921       0.30072646       0.00000000
Si       5.84801776       0.31521145       3.78552333      -0.24712869       0.20400141      -0.28985793
Si       3.94147843       4.90692623       3.78552333      -0.05310606      -0.31602043      -0.28985792
Si       0.91820646       0.95995734       3.78552333       0.30023475       0.11201901      -0.28985792
18
Lattice="7.098394696854692 -2.0393021326162365e-15 7.783661694056803e-22 -3.5491973484273465 6.1473901335649055 1.5567323388318195e-21 2.4687562965637667e-21 7.126685561793717e-21 19.790217711064987" Properties=species:S:1:pos:R:3:forces:R:3 unique_starting_index=376 config_type=initial n_minim_iter=9 energy=-2916.754522922406 stress="-0.0014607970503659985 -0.001460797051544074 0.0005256219773667558 3.9047668012869935e-13 -2.166854753473766e-12 -5.308981619836204e-15" pbc="T T T"
Si       1.67623708      -0.26905928       1.78991784      -1.04489438      -0.37202930       1.06742258
Si       6.49328832       1.58619355       1.78991784       0.84463402      -0.71889043       1.06742258
Si       2.47806662       4.83025587       1.78991784       0.20026036       1.09091973       1.06742258
Si       5.86130484       1.06691281      16.79657934       1.33206454      -0.52397245       0.00765338
Si       3.24376867       4.54258249      16.79657934      -0.21225881       1.41558796       0.00765338
Si       1.54251852       0.53789483      16.79657934      -1.11980573      -0.89161550       0.00765338
Si       2.23682570       2.36439657      17.95952501      -0.28844201       1.63459001      -0.42629700
Si       3.93235434       0.75494961      17.95952501      -1.27137547      -1.06709311      -0.42629700
Si       4.47841198       3.02804396      17.95952501       1.55981748      -0.56749690      -0.42629700
Si       1.74023111       2.04708012       1.93051292       0.50820407       0.59524363       0.11963118
Si       4.45545574       0.48354429       1.93051292      -0.76959814       0.14249582       0.11963118
Si       4.45190517       3.61676572       1.93051292       0.26139407      -0.73773945       0.11963118
Si      -2.66069298       5.14302519      10.95556764      -0.46170976      -0.01577059      -0.00000000
Si       0.42555337       1.27164983      10.95556764       0.24451261      -0.39196708       0.00000000
Si       2.23513959       5.88010525      10.95556764       0.21719714       0.40773767      -0.00000000
Si       5.81195082       0.31611444       3.96970398      -0.75110127       0.32132653      -0.76841014
Si       3.91865614       4.87523984       3.96970398       0.09727369      -0.81113604      -0.76841014
Si       0.91698506       0.95603586       3.96970398       0.65382757       0.48980951      -0.76841014
18
Lattice="7.154541712176381 -1.093452021476909e-15 -2.042969394930241e-19 -3.57727085608819 6.19601487518016 -4.085938789860258e-19 -6.453301941262028e-19 -1.862907806474906e-18 19.73419381240359" Properties=species:S:1:pos:R:3:forces:R:3 unique_starting_index=376 config_type=initial n_minim_iter=10 energy=-2917.0037594523214 stress="0.008468979667454954 0.008468979659615229 0.0007070269424585885 -1.7475955238477e-12 9.58212838933759e-13 3.606313892353387e-13" pbc="T T T"
Si       1.67689795      -0.27567290       1.79475577      -1.07457071      -0.23749827       1.04260322
Si       6.55483246       1.59007268       1.79475577       0.74296488      -0.81185639       1.04260322
Si       2.50008214       4.88161509       1.79475577       0.33160582       1.04935466       1.04260322
Si       5.92372685       1.06903458      16.74910112       0.99241192      -0.64958819       0.09242368
Si       3.26686717       4.59558066      16.74910112       0.06635391       1.18424803       0.09242368
Si       1.54121852       0.53139964      16.74910112      -1.05876583      -0.53465984       0.09242369
Si       2.25104096       2.40280610      17.90472784       0.07570894       1.36626059      -0.48230557
Si       3.94813010       0.74805562      17.90472784      -1.22107085      -0.61756443      -0.48230557
Si       4.53264148       3.04515316      17.90472784       1.14536191      -0.74869616      -0.48230556
Si       1.76012323       2.07044876       1.92615795       0.54861458       0.45816007       0.05171727
Si       4.48141886       0.48908705       1.92615795      -0.67108555       0.24603412       0.05171727
Si       4.49027046       3.63647906       1.92615795       0.12247098      -0.70419420       0.05171727
Si      -2.68730523       5.18351544      10.92455365       0.11290182      -0.13950252       0.00000000
Si       0.43186740       1.27698257      10.92455365       0.06436182       0.16752711      -0.00000000
Si       2.25543780       5.93153174      10.92455365      -0.17726364      -0.02802458       0.00000000
Si       5.84886657       0.32248895       3.95133584      -0.34446522       0.12839279      -0.70443860
Si       3.95082479       4.90402257       3.95133584       0.06104120      -0.36251203      -0.70443860
Si       0.93212118       0.96950336       3.95133584       0.28342403       0.23411924      -0.70443860
18
Lattice="7.088404844183568 2.4206381364764472e-17 5.011278116616214e-17 -3.544202422091784 6.138738667371645 1.0022556233232428e-16 1.5848938136934785e-16 4.575194349864511e-16 19.71889939946727" Properties=species:S:1:pos:R:3:forces:R:3 unique_starting_index=376 config_type=initial n_minim_iter=11 energy=-2917.1155234260805 stress="-0.000872022898014537 -0.0008720228982327981 0.0001411256968662224 -6.461125494667076e-13 -1.2983138077947845e-13 -3.411373790894117e-13" pbc="T T T"
Si       1.65879997      -0.27369847       1.79529961      -1.15245225      -0.28095267       1.02960532
Si       6.49603468       1.57341216       1.79529961       0.81953827      -0.85757659       1.02960532
Si       2.47777259       4.83902498       1.79529961       0.33291398       1.13852926       1.02960532
Si       5.87136582       1.05758267      16.73629173       1.08393273      -0.49924403       0.03519282
Si       3.23682847       4.55596063      16.73629173      -0.10960835       1.18833530       0.03519282
Si       1.52441295       0.52519537      16.73629173      -0.97432438      -0.68909127       0.03519282
Si       2.23041520       2.38389599      17.88995626      -0.28966221       1.46663262      -0.44812956
Si       3.90868274       0.73964823      17.88995626      -1.12531000      -0.98417115      -0.44812956
Si       4.49350930       3.01519444      17.88995626       1.41497222      -0.48246148      -0.44812956
Si       1.74517829       2.05241658       1.92476111       0.64738581       0.60568521       0.08381011
Si       4.43837079       0.48516045       1.92476111      -0.84823168       0.25780995       0.08381011
Si       4.44905817       3.60116163       1.92476111       0.20084588      -0.86349516       0.08381011
Si      -2.66219085       5.13526172      10.91608689      -0.36218482      -0.12268465      -0.00000000
Si       0.42803073       1.26558291      10.91608689       0.28734044      -0.25231893       0.00000000
Si       2.23416009       5.87663271      10.91608689       0.07484438       0.37500358      -0.00000000
Si       5.79396703       0.31981811       3.94696621      -0.58061979       0.32756587      -0.70047868
Si       3.91445072       4.85781359       3.94696621       0.00662953      -0.66661442      -0.70047868
Si       0.92418950       0.96110697       3.94696621       0.57399026       0.33904856      -0.70047868
18
Lattice="7.094232175201621 4.59489462357169e-16 -1.2721265803744015e-14 -3.5471160876008114 6.143785284069541 -2.5442531607488024e-14 -4.020877058877671e-14 -1.1607272261607074e-13 19.71627714566237" Properties=species:S:1:pos:R:3:forces:R:3 unique_starting_index=376 config_type=initial n_minim_iter=12 energy=-2917.1645913265897 stress="0.0002988282165537429 0.00029882821602361995 0.0002093804020403244 -7.16804068720822e-13 -4.2558142709549755e-13 3.401675441446266e-13" pbc="T T T"
Si       1.65774430      -0.27451329       1.79673337      -1.16149551      -0.26313918       1.02242773
Si       6.50309549       1.57290533       1.79673337       0.80863297      -0.87431503       1.02242773
Si       2.48050845       4.84539325       1.79673337       0.35286254       1.13745421       1.02242773
Si       5.87846815       1.05740403      16.73412327       1.04093939      -0.51464564       0.04598410
Si       3.23925934       4.56220075      16.73412327      -0.07477350       1.15880277       0.04598410
Si       1.52362075       0.52418051      16.73412327      -0.96616589      -0.64415714       0.04598410
Si       2.23164071       2.38893470      17.88684928      -0.24539902       1.43403174      -0.45231771
Si       3.90953367       0.73819021      17.88684928      -1.11920841      -0.92953765      -0.45231771
Si       4.50017386       3.01666037      17.88684928       1.36460743      -0.50449409      -0.45231771
Si       1.74797206       2.05537539       1.92464130       0.65791216       0.58663431       0.07753857
Si       4.44023883       0.48610052       1.92464130      -0.83699630       0.27645149       0.07753857
Si       4.45313735       3.60230938       1.92464130       0.17908413      -0.86308580       0.07753857
Si      -2.66513976       5.13922583      10.91463525      -0.30452892      -0.13309406       0.00000000
Si       0.42898583       1.26609364      10.91463525       0.26752729      -0.19718275       0.00000000
Si       2.23615390       5.88225110      10.91463525       0.03700162       0.33027681      -0.00000000
Si       5.79751130       0.32076869       3.94530347      -0.53765251       0.30812864      -0.69363268
Si       3.91768268       4.86040773       3.94530347       0.00197903      -0.61968505      -0.69363268
Si       0.92615426       0.96260886       3.94530347       0.53567348       0.31155641      -0.69363268
18
Lattice="7.091961284117232 2.0037612661878934e-15 -1.110026277136946e-14 -3.54598064205862 6.141818634701238 -2.2200525542738956e-14 -3.5078703196690906e-14 -1.0126349366716262e-13 19.71185481657609" Properties=species:S:1:pos:R:3:forces:R:3 unique_starting_index=376 config_type=initial n_minim_iter=13 energy=-2917.218243919928 stress="0.0002811128114027553 0.00028111281321716345 0.00021690236231308304 -7.556872996995062e-13 -1.0414065359592983e-12 1.7527415479651163e-12" pbc="T T T"
Si       1.65444428      -0.27505282       1.79821507      -1.17952627      -0.25108178       1.01056007
Si       6.50294186       1.57031719       1.79821507       0.80720634      -0.89595883       1.01056007
Si       2.48055576       4.84655427       1.79821507       0.37231994       1.14704061       1.01056007
Si       5.87906836       1.05583847      16.73045460       1.01087210      -0.50888095       0.04856629
Si       3.23804416       4.56350332      16.73045460      -0.06473222       1.12988139       0.04856629
Si       1.52082939       0.52247684      16.73045460      -0.94613988      -0.62100044       0.04856629
Si       2.23034125       2.39158918      17.88200350      -0.24488499       1.41355517      -0.44912888
Si       3.90561366       0.73573760      17.88200350      -1.10173219      -0.91885421      -0.44912888
Si       4.50198699       3.01449186      17.88200350       1.34661718      -0.49470096      -0.44912888