12
Lattice="4.87554 -2.985407227557443e-16 -1.7854473978751355e-64 3.480017576797076e-16 5.6833 5.840432981385366e-77 -1.2019134055753912e-31 7.359597024950986e-48 8.83067" Properties=species:S:1:pos:R:3:forces:R:3 unique_starting_index=282 config_type=initial n_minim_iter=1 energy=-1945.9147638179631 stress="-0.06421731370560912 0.07106624265360577 -0.0073566407610492004 -4.454301642411536e-12 8.589698225049743e-12 -4.346295352865574e-12" pbc="T T T"
Si       2.29748170       4.62154817       3.65136195       3.75112589       0.42061883      -1.02942255
Si       2.57805830       3.90340183       8.06669695      -3.75112589      -0.42061883      -1.02942255
Si       4.73525170       1.06175183       5.17930805       3.75112589      -0.42061883       1.02942255
Si       0.14028830       1.77989817       0.76397305      -3.75112589       0.42061883       1.02942255
Si       2.57805830       1.06175183       5.17930805      -3.75112589      -0.42061883       1.02942255
Si       2.29748170       1.77989817       0.76397305       3.75112589       0.42061883       1.02942255
Si       0.14028830       4.62154817       3.65136195      -3.75112589       0.42061883      -1.02942255
Si       4.73525170       3.90340183       8.06669695       3.75112589      -0.42061883      -1.02942255
Si       1.21888500       1.19477345       7.66088881      -0.00000000      -0.53881820      -2.56591698
Si       3.65665500       4.48852655       1.16978119       0.00000000       0.53881820       2.56591698
Si       1.21888500       4.03642345       5.58511619      -0.00000000      -0.53881820       2.56591698
Si       3.65665500       1.64687655       3.24555381       0.00000000       0.53881820      -2.56591698
12
Lattice="4.8832071343812675 -2.991963049392747e-16 2.1963988771061373e-34 3.4718019648013273e-16 5.673425767496127 -2.9407388984230592e-18 -1.2026232295142091e-31 -4.569298606115735e-18 8.832259751541644" Properties=species:S:1:pos:R:3:forces:R:3 unique_starting_index=282 config_type=initial n_minim_iter=2 energy=-1945.9843680137174 stress="-0.062259189266608034 0.07024399597824582 -0.007451420991108861 -4.842426122439783e-12 1.2086560275477595e-11 1.5286840880126654e-13" pbc="T T T"
Si       2.30147036       4.61356063       3.65191633       3.68807926       0.41342226      -1.02482862
Si       2.58173678       3.89657802       8.06804621      -3.68807927      -0.41342226      -1.02482862
Si       4.74307392       1.05986514       5.18034342       3.68807927      -0.41342226       1.02482862
Si       0.14013321       1.77684774       0.76421355      -3.68807926       0.41342226       1.02482862
Si       2.58173678       1.05986514       5.18034342      -3.68807926      -0.41342226       1.02482862
Si       2.30147036       1.77684774       0.76421355       3.68807926       0.41342226       1.02482862
Si       0.14013321       4.61356063       3.65191633      -3.68807926       0.41342226      -1.02482862
Si       4.74307392       3.89657802       8.06804621       3.68807927      -0.41342226      -1.02482862
Si       1.22080178       1.19264385       7.66201133      -0.00000000      -0.53670824      -2.55748297
Si       3.66240535       4.48078192       1.17024842      -0.00000000       0.53670824       2.55748297
Si       1.22080178       4.02935673       5.58637829      -0.00000000      -0.53670824       2.55748297
Si       3.66240535       1.64406904       3.24588146       0.00000000       0.53670824      -2.55748297
12
Lattice="5.215310045588089 -3.271860958361261e-16 9.799198907360885e-33 3.1340188617338837e-16 5.267513038422463 -1.3200852575420954e-16 -1.2338024835983933e-31 -2.0512643427604427e-16 8.902086253316163" Properties=species:S:1:pos:R:3:forces:R:3 unique_starting_index=282 config_type=initial n_minim_iter=3 energy=-1948.179615772256 stress="-0.03234383517858986 0.0394516832531252 -0.030896359951687716 -1.3425757282040002e-11 -1.194069730723289e-11 5.425257482891067e-13" pbc="T T T"
Si       2.47505685       4.28512938       3.67632507       1.91790445       0.08195502      -0.80821370
Si       2.74025320       3.61614017       8.12736819      -1.91790445      -0.08195502      -0.80821370
Si       5.08271187       0.98238366       5.22576119       1.91790445      -0.08195502       0.80821370
Si       0.13259818       1.65137286       0.77471806      -1.91790445       0.08195502       0.80821370
Si       2.74025320       0.98238366       5.22576119      -1.91790445      -0.08195502       0.80821370
Si       2.47505685       1.65137286       0.77471806       1.91790445       0.08195502       0.80821370
Si       0.13259818       4.28512938       3.67632507      -1.91790444       0.08195502      -0.80821370
Si       5.08271187       3.61614017       8.12736819       1.91790445      -0.08195502      -0.80821370
Si       1.30382751       1.10516988       7.71144911      -0.00000000      -0.45512653      -2.18881973
Si       3.91148253       4.16234315       1.19063714       0.00000000       0.45512653       2.18881972
Si       1.30382751       3.73892640       5.64168027       0.00000000      -0.45512653       2.18881973
Si       3.91148253       1.52858664       3.26040599      -0.00000000       0.45512653      -2.18881973
12
Lattice="5.529956587143245 -3.5872053109142135e-16 7.48280862262737e-32 2.7556331594880835e-16 4.90425463940674 -1.511923592886528e-15 -1.4662817375759556e-31 -2.3249658568315243e-15 9.414446829477775" Properties=species:S:1:pos:R:3:forces:R:3 unique_starting_index=282 config_type=initial n_minim_iter=4 energy=-1949.5867194107877 stress="0.036262324393600366 0.0427365003239945 0.009474642058577051 -1.2736059128402567e-12 -3.01599680744337e-12 1.1191025626560082e-12" pbc="T T T"
Si       2.64161383       3.99010361       3.88148333       0.88222260      -0.12974522      -0.14489415
Si       2.88834276       3.36627835       8.58870674      -0.88222260       0.12974522      -0.14489415
Si       5.40659212       0.91415103       5.53296350       0.88222260       0.12974522       0.14489415
Si       0.12336447       1.53797629       0.82574009      -0.88222260      -0.12974522       0.14489415
Si       2.88834276       0.91415103       5.53296350      -0.88222260       0.12974522       0.14489415
Si       2.64161383       1.53797629       0.82574009       0.88222260      -0.12974522       0.14489415
Si       0.12336447       3.99010361       3.88148333      -0.88222260      -0.12974522      -0.14489415
Si       5.40659212       3.36627835       8.58870674       0.88222260       0.12974522      -0.14489415
Si       1.38248915       1.02625924       8.13786035       0.00000000      -0.11443506      -0.10352092
Si       4.14746744       3.87799540       1.27658648      -0.00000000       0.11443506       0.10352092
Si       1.38248915       3.47838656       5.98380990       0.00000000      -0.11443506       0.10352092
Si       4.14746744       1.42586808       3.43063693      -0.00000000       0.11443506      -0.10352092
12
Lattice="5.32088283166656 -3.681280627926869e-16 1.6939788578717773e-31 2.361122494761873e-16 4.686478447155943 -3.3249816665469585e-15 -1.4214537161787856e-31 -4.987347376793001e-15 9.320119598190061" Properties=species:S:1:pos:R:3:forces:R:3 unique_starting_index=282 config_type=initial n_minim_iter=5 energy=-1949.9290875169552 stress="-0.021565515277775636 0.015776952633700502 -0.03970820832746215 4.714968292755273e-12 1.1231005263919497e-12 9.683092652701598e-14" pbc="T T T"
Si       2.54628687       3.81253649       3.84191448       1.20704363      -0.48732153      -0.92211837
Si       2.77459596       3.21718118       8.50197428      -1.20704363       0.48732153      -0.92211837
Si       5.20672829       0.87394195       5.47820512       1.20704363       0.48732153       0.92211837
Si       0.11415454       1.46929727       0.81814532      -1.20704363      -0.48732153       0.92211837
Si       2.77459596       0.87394195       5.47820512      -1.20704363       0.48732153       0.92211838
Si       2.54628687       1.46929727       0.81814532       1.20704363      -0.48732153       0.92211837
Si       0.11415454       3.81253649       3.84191448      -1.20704363      -0.48732153      -0.92211837
Si       5.20672829       3.21718118       8.50197428       1.20704363       0.48732153      -0.92211837
Si       1.33022071       0.98034866       8.05583889      -0.00000000      -0.23843226      -0.66908366
Si       3.99066212       3.70612979       1.26428071      -0.00000000       0.23843226       0.66908366
Si       1.33022071       3.32358788       5.92434051      -0.00000000      -0.23843226       0.66908365
Si       3.99066212       1.36289056       3.39577909      -0.00000000       0.23843226      -0.66908366
12
Lattice="5.38655667963746 -3.936882304046629e-16 1.078682689598055e-31 2.067613177722446e-16 4.644608262881823 -2.750193274006771e-15 -1.5035500244740286e-31 -3.932862762207415e-15 9.53303064581928" Properties=species:S:1:pos:R:3:forces:R:3 unique_starting_index=282 config_type=initial n_minim_iter=6 energy=-1950.2136988419634 stress="-0.003375787670034509 0.026005638183943 -0.015607903012178485 -1.4274339410788651e-12 2.3813795634281732e-12 4.2415385425798785e-13" pbc="T T T"
Si       2.58127690       3.77767054       3.92710862       0.92131839      -0.43378521      -0.62305900
Si       2.80527978       3.18924185       8.69362394      -0.92131839       0.43378521      -0.62305900
Si       5.27455524       0.86693772       5.60592203       0.92131839       0.43378521       0.62305900
Si       0.11200144       1.45536641       0.83940670      -0.92131839      -0.43378521       0.62305900
Si       2.80527978       0.86693772       5.60592203      -0.92131839       0.43378521       0.62305900
Si       2.58127690       1.45536641       0.83940670       0.92131839      -0.43378521       0.62305900
Si       0.11200144       3.77767054       3.92710862      -0.92131839      -0.43378521      -0.62305900
Si       5.27455524       3.18924185       8.69362394       0.92131839       0.43378521      -0.62305900
Si       1.34663917       0.97119671       8.23800255      -0.00000000      -0.16947790      -0.13937674
Si       4.03991751       3.67341155       1.29502809      -0.00000000       0.16947790       0.13937674
Si       1.34663917       3.29350084       6.06154342      -0.00000000      -0.16947790       0.13937674
Si       4.03991751       1.35110742       3.47148723      -0.00000000       0.16947790      -0.13937674
12
Lattice="5.399548173828531 -4.1404620173745114e-16 1.5457753356730058e-31 1.7633215701879103e-16 4.559211246164599 -3.613626231836739e-15 -1.504235478676378e-31 -5.138253399827308e-15 9.639799812530441" Properties=species:S:1:pos:R:3:forces:R:3 unique_starting_index=282 config_type=initial n_minim_iter=7 energy=-1950.409907237011 stress="-0.0004114874533203141 0.030640184152647833 -0.009741583919339417 4.390247689412703e-12 5.2889765205211296e-12 1.0001219526638508e-12" pbc="T T T"
Si       2.59087533       3.70736239       3.96889507       0.69439849      -0.50600721      -0.63679914
Si       2.80867285       3.13145448       8.78879498      -0.69439849       0.50600721      -0.63679914
Si       5.29064941       0.85184886       5.67090474       0.69439849       0.50600721       0.63679914
Si       0.10889876       1.42775677       0.85100483      -0.69439849      -0.50600721       0.63679914
Si       2.80867285       0.85184886       5.67090474      -0.69439849       0.50600721       0.63679914
Si       2.59087533       1.42775677       0.85100483       0.69439849      -0.50600721       0.63679914
Si       0.10889876       3.70736239       3.96889507      -0.69439849      -0.50600721      -0.63679914
Si       5.29064941       3.13145448       8.78879498       0.69439849       0.50600721      -0.63679914
Si       1.34988704       0.95300759       8.32977608       0.00000000      -0.20949610      -0.01681194
Si       4.04966113       3.60620366       1.31002373       0.00000000       0.20949610       0.01681194
Si       1.34988704       3.23261321       6.12992364       0.00000000      -0.20949610       0.01681194
Si       4.04966113       1.32659804       3.50987618       0.00000000       0.20949610      -0.01681194
12
Lattice="5.399926755859041 -4.343618519187272e-16 1.9168968880615093e-31 1.5043108115424285e-16 4.53547135683479 -4.207231956456391e-15 -1.4395493386979055e-31 -6.0285783929154044e-15 9.655813406759828" Properties=species:S:1:pos:R:3:forces:R:3 unique_starting_index=282 config_type=initial n_minim_iter=8 energy=-1950.459009814206 stress="-0.0012838769978749977 0.030781932249178315 -0.010206676052420382 3.0195007987476044e-12 -2.327365145993086e-12 2.021937756718686e-12" pbc="T T T"
Si       2.59166852       3.68782551       3.97494244       0.64179336      -0.53246323      -0.66321760
Si       2.80825824       3.11538153       8.80284914      -0.64179336       0.53246323      -0.66321760
Si       5.29163190       0.84764585       5.68087097       0.64179336       0.53246323       0.66321760
Si       0.10829486       1.42008983       0.85296426      -0.64179336      -0.53246323       0.66321760
Si       2.80825824       0.84764585       5.68087097      -0.64179336       0.53246323       0.66321760
Si       2.59166852       1.42008983       0.85296426       0.64179336      -0.53246323       0.66321760
Si       0.10829486       3.68782551       3.97494244      -0.64179336      -0.53246323      -0.66321760
Si       5.29163190       3.11538153       8.80284914       0.64179336       0.53246323      -0.66321760
Si       1.34998169       0.94794897       8.34359906       0.00000000      -0.22851181      -0.02148705
Si       4.04994507       3.58752239       1.31221434      -0.00000000       0.22851181       0.02148705
Si       1.34998169       3.21568464       6.14012105       0.00000000      -0.22851181       0.02148704
Si       4.04994507       1.31978671       3.51569236       0.00000000       0.22851181      -0.02148704
12
Lattice="5.416346633140029 -4.374216421717575e-16 1.974578240190716e-31 1.1513788127702997e-16 4.217046944519963 -4.538366058468411e-15 -1.4585895198779015e-31 -6.120973530069899e-15 9.891711367083735" Properties=species:S:1:pos:R:3:forces:R:3 unique_starting_index=282 config_type=initial n_minim_iter=9 energy=-1950.9946422775442 stress="-0.013880154317235858 0.002679279853686089 -0.02717579166303172 1.135716932769803e-12 -6.5619229142570714e-12 -1.0300154013574804e-12" pbc="T T T"
Si       2.60744583       3.42575928       4.06392970      -0.24064861      -0.81988898      -0.93379326
Si       2.80890080       2.89981114       9.00978538       0.24064861       0.81988898      -0.93379326
Si       5.31561915       0.79128766       5.82778167      -0.24064861       0.81988897       0.93379326
Si       0.10072748       1.31723581       0.88192598       0.24064861      -0.81988898       0.93379326
Si       2.80890080       0.79128766       5.82778167       0.24064861       0.81988898       0.93379326
Si       2.60744583       1.31723581       0.88192598      -0.24064861      -0.81988898       0.93379326
Si       0.10072748       3.42575928       4.06392970       0.24064861      -0.81988897      -0.93379326
Si       5.31561915       2.89981114       9.00978538      -0.24064861       0.81988898      -0.93379326
Si       1.35408666       0.88004265       8.54717557      -0.00000000      -0.64089769       0.00874164
Si       4.06225997       3.33700430       1.34453579      -0.00000000       0.64089768      -0.00874164
Si       1.35408666       2.98856612       6.29039148      -0.00000000      -0.64089768      -0.00874164
Si       4.06225997       1.22848082       3.60131989      -0.00000000       0.64089769       0.00874164
12
Lattice="5.5106831077246055 -4.599007005653361e-16 1.662968434058427e-31 9.006746081517244e-17 4.203014705919107 -4.387308056152396e-15 -1.4243716958724837e-31 -5.720493617306411e-15 10.231837044419823" Properties=species:S:1:pos:R:3:forces:R:3 unique_starting_index=282 config_type=initial n_minim_iter=10 energy=-1951.1750925204033 stress="0.01589351099480065 0.030149557096735103 -0.00045112331528196546 -1.4200249427863254e-12 -1.2307516901613556e-12 -1.1490251166963565e-12" pbc="T T T"
Si       2.65119595       3.41188286       4.19699451      -0.39739036      -0.63063513      -0.48024378
Si       2.85948716       2.89263920       9.31291303       0.39739036       0.63063513      -0.48024378
Si       5.40653751       0.79113185       6.03484254      -0.39739036       0.63063513       0.48024378
Si       0.10414560       1.31037550       0.91892401       0.39739036      -0.63063513       0.48024378
Si       2.85948716       0.79113185       6.03484254       0.39739036       0.63063513       0.48024378
Si       2.65119595       1.31037550       0.91892401      -0.39739036      -0.63063513       0.48024378
Si       0.10414560       3.41188286       4.19699451       0.39739036      -0.63063513      -0.48024378
Si       5.40653751       2.89263920       9.31291303      -0.39739036       0.63063513      -0.48024378
Si       1.37767078       0.87517791       8.84113197      -0.00000000      -0.54723810       0.49360460
Si       4.13301233       3.32783680       1.39070508      -0.00000000       0.54723810      -0.49360460
Si       1.37767078       2.97668526       6.50662360       0.00000000      -0.54723810      -0.49360460
Si       4.13301233       1.22632945       3.72521345       0.00000000       0.54723810       0.49360460
12
Lattice="5.459021122350795 -4.700398139581634e-16 1.2553684229890418e-31 6.818201977948814e-17 4.128583129158374 -3.924899878307838e-15 -1.1440862718109797e-31 -4.947535250712748e-15 10.234572920850862" Properties=species:S:1:pos:R:3:forces:R:3 unique_starting_index=282 config_type=initial n_minim_iter=11 energy=-1951.2972273392531 stress="-0.0014308170436762757 0.010609234356807287 -0.014559173664722994 -5.536239053536907e-12 -5.82249798935975e-12 -1.0547568193985644e-12" pbc="T T T"
Si       2.62508366       3.35061426       4.19650399      -0.49932482      -0.68445609      -0.60017110
Si       2.83393747       2.84226043       9.31379045       0.49932482       0.68445609      -0.60017111
Si       5.35459422       0.77796887       6.03806893      -0.49932482       0.68445609       0.60017110
Si       0.10442690       1.28632270       0.92078247       0.49932482      -0.68445609       0.60017110
Si       2.83393747       0.77796887       6.03806893       0.49932482       0.68445609       0.60017110
Si       2.62508366       1.28632270       0.92078247      -0.49932482      -0.68445609       0.60017110
Si       0.10442690       3.35061426       4.19650399       0.49932482      -0.68445609      -0.60017110
Si       5.35459422       2.84226043       9.31379045      -0.49932482       0.68445609      -0.60017110
Si       1.36475528       0.85894410       8.84515361      -0.00000000      -0.62071962       0.38250373
Si       4.09426584       3.26963903       1.38941931       0.00000000       0.62071962      -0.38250373
Si       1.36475528       2.92323566       6.50670578      -0.00000000      -0.62071962      -0.38250373
Si       4.09426584       1.20534747       3.72786715      -0.00000000       0.62071962       0.38250373
12
Lattice="5.46334563819548 -4.817120106299492e-16 5.242516564675136e-32 5.158589134862505e-17 4.104413089314517 -3.205248582417488e-15 -9.196909768125043e-32 -3.788038589624063e-15 10.31737170374246" Properties=species:S:1:pos:R:3:forces:R:3 unique_starting_index=282 config_type=initial n_minim_iter=12 energy=-1951.3601705432443 stress="-5.131898781609094e-05 0.010647770294660314 -0.011955544999236385 3.850610717741354e-12 8.563696868787007e-12 3.672487154636159e-13" pbc="T T T"
Si       2.62566007       3.33013715       4.22850427      -0.54410270      -0.65380835      -0.52358022
Si       2.83768556       2.82648248       9.38719012       0.54410270       0.65380835      -0.52358022
Si       5.35733289       0.77427593       6.08886743      -0.54410270       0.65380835       0.52358022
Si       0.10601274       1.27793061       0.93018158       0.54410270      -0.65380835       0.52358022
Si       2.83768556       0.77427593       6.08886743       0.54410270       0.65380835       0.52358022
Si       2.62566007       1.27793061       0.93018158      -0.54410270      -0.65380835       0.52358022
Si       0.10601274       3.33013715       4.22850427       0.54410270      -0.65380835      -0.52358022
Si       5.35733289       2.82648248       9.38719012      -0.54410270       0.65380835      -0.52358022
Si       1.36583641       0.85313425       8.91795454      -0.00000000      -0.61978983       0.44268641
Si       4.09750923       3.25127884       1.39941716      -0.00000000       0.61978983      -0.44268641
Si       1.36583641       2.90534079       6.55810301      -0.00000000      -0.61978983      -0.44268641
Si       4.09750923       1.19907230       3.75926869       0.00000000       0.61978983       0.44268641
12
Lattice="5.4639808735627575 -4.826056357709718e-16 7.107015932718721e-32 3.761627733541039e-17 4.0065870009743305 -3.3874326036628313e-15 -7.410237129120891e-32 -3.9256331079004775e-15 10.60064524175318" Properties=species:S:1:pos:R:3:forces:R:3 unique_starting_index=282 config_type=initial n_minim_iter=13 energy=-1951.5445084428225 stress="0.00012214415369645427 0.004686520000143361 -0.0035470941177158195 -1.4347313121546456e-11 -2.691068706490178e-11 8.396760162223335e-13" pbc="T T T"
Si       2.61927427       3.24750581       4.33741096      -0.64602103      -0.54773651      -0.26570215
Si       2.84470660       2.76237469       9.63773358       0.64602103       0.54773651      -0.26570215
Si       5.35126471       0.75908119       6.26323428      -0.64602103       0.54773651       0.26570215
Si       0.11271616       1.24421231       0.96291166       0.64602103      -0.54773651       0.26570215
Si       2.84470660       0.75908119       6.26323428       0.64602103       0.54773651       0.26570215
Si       2.61927427       1.24421231       0.96291166      -0.64602103      -0.54773651       0.26570215
Si       0.11271616       3.24750581       4.33741096       0.64602103      -0.54773651      -0.26570215
Si       5.35126471       2.76237469       9.63773358      -0.64602103       0.54773651      -0.26570215
Si       1.36599522       0.82971030       9.16888572      -0.00000000      -0.61513056       0.56415716
Si       4.09798566       3.17687670       1.43175952       0.00000000       0.61513056      -0.56415715
Si       1.36599522       2.83300380       6.73208214       0.00000000      -0.61513056      -0.56415716
Si       4.09798566       1.17358320       3.86856310      -0.00000000       0.61513056       0.56415715
12
Lattice="5.461769251211451 -4.845042084339992e-16 -8.357831973418871e-32 2.6927442763498e-17 3.944831819888379 -1.9871867095828023e-15 -4.691668153246185e-32 -1.7038127461446374e-15 10.726010586045915" Properties=species:S:1:pos:R:3:forces:R:3 unique_starting_index=282 config_type=initial n_minim_iter=14 energy=-1951.6763444939606 stress="-0.0023608589531329684 -0.0006148720704918281 -9.430895618591986e-05 -1.0405010789674248e-11 -3.5656069945899246e-12 -8.69334234429553e-13" pbc="T T T"
Si       2.60663045       3.19362264       4.38317281      -0.60408822      -0.47426255      -0.12538900
Si       2.85513880       2.72362509       9.74617811       0.60408823       0.47426255      -0.12538900
Si       5.33751508       0.75120918       6.34283777      -0.60408823       0.47426255       0.12538900
Si       0.12425417       1.22120673       0.97983248       0.60408822      -0.47426255       0.12538900
Si       2.85513880       0.75120918       6.34283777       0.60408823       0.47426255       0.12538900
Si       2.60663045       1.22120673       0.97983248      -0.60408822      -0.47426255       0.12538900
Si       0.12425417       3.19362264       4.38317281       0.60408822      -0.47426255      -0.12538900
Si       5.33751508       2.72362509       9.74617811      -0.60408823       0.47426255      -0.12538900
Si       1.36544231       0.81262261       9.28906734      -0.00000000      -0.56143715       0.55626055
Si       4.09632694       3.13220921       1.43694324       0.00000000       0.56143715      -0.55626055
Si       1.36544231       2.78503852       6.79994854      -0.00000000      -0.56143715      -0.55626055
Si       4.09632694       1.15979330       3.92606205       0.00000000       0.56143715       0.55626055
