18
Lattice="3.7752688795300253 -0.5595448507282939 0.3205792174295681 -0.40379241897899143 8.432613278872736 -3.3255526904163064 -1.0258342343700229 -8.09524158755525 16.05304737029627" Properties=species:S:1:pos:R:3:forces:R:3 unique_starting_index=394 config_type=initial n_minim_iter=1 energy=-2929.920050598811 stress="0.0016573435989816583 4.612921111696089e-05 3.3653804995387126e-05 4.612921111696089e-05 0.0012371518741356494 -0.00035713057835799175 3.3653804995387126e-05 -0.00035713057835799175 -0.0004317994768649763" free_energy=-2929.920050598811 pbc="T T T"
Si       0.73474554      -3.01631921       9.96846281      -0.00343628      -0.00309651       0.02202498
Si       0.80469628       4.61795478      -0.77642586       0.05890285       0.02605861       0.06271750
Si       2.47026791      -4.65371914       9.60800049      -0.09751206       0.12696401       0.10905132
Si       0.97665938       6.54347535       0.85854277      -0.01252473       0.01967459       0.06649811
Si       4.23946826       2.44469929       1.27612392      -0.03113906       0.00097530      -0.02911955
Si       2.43525865       3.81635557       1.91070435      -0.06105228       0.02969358       0.07399197
Si       0.30699826       1.08811578      -0.43965422      -0.04838393       0.04972037      -0.11328004
Si       0.46773578      -1.97479168      12.05326286      -0.02860909      -0.04006256       0.16910854
Si      -1.38954939      -0.79606423      12.95587548      -0.04044299      -0.13535983      -0.03523432
Si       1.18849032      -6.33686527      10.68174675      -0.13241902      -0.02985721      -0.03312088
Si       1.78413556      -5.70015342      12.86982735       0.00646678      -0.00915135      -0.08289298
Si       0.63132446      -2.09474030       7.76838447      -0.03441333      -0.04575239      -0.04702205
Si       1.26360618      -7.42476269      14.39570020       0.06939496       0.04052578      -0.06416977
Si       2.37844879      -3.69919847       7.38404232       0.13212170      -0.09088952      -0.05929240
Si       0.07647982      -4.10466047      13.02997341      -0.11292992      -0.09098069      -0.04397484
Si       2.95870113       5.92931119      -0.59568386       0.12207231       0.04143739      -0.02772944
Si       1.48465654      -0.11145836       6.84921221       0.13319078       0.05547678      -0.02692027
Si      -0.39722287      -0.62018593       5.34959998       0.08071332       0.05462366       0.05936413
18
Lattice="3.76583138792324 -0.5585878608957207 0.32029432769724525 -0.4031989538696964 8.41506745241822 -3.323150908559506 -1.0235168827520424 -8.071350472089776 16.059224985063317" Properties=species:S:1:pos:R:3:forces:R:3 unique_starting_index=394 config_type=initial n_minim_iter=2 energy=-2929.922038900572 stress="-0.0008007473759317882 0.00010302210151546607 -9.52916781247514e-05 0.00010302210151546607 -0.0005599901004446788 -0.00016883038896277325 -9.52916781247514e-05 -0.00016883038896277325 -0.0006596740909333835" free_energy=-2929.922038900572 pbc="T T T"
Si       0.73259431      -3.00535230       9.97339726      -0.00247521       0.02986855       0.04249934
Si       0.80261569       4.60893584      -0.77424643       0.05937551       0.01164940       0.02291369
Si       2.46355175      -4.63952221       9.61204972      -0.09095452       0.10895790       0.09476418
Si       0.97366588       6.53170161       0.86283722      -0.01126879       0.03081611       0.07241547
Si       4.22849421       2.44052296       1.27795541      -0.03883754      -0.03541685      -0.03265319
Si       2.42856690       3.81018817       1.91416705      -0.05446443       0.03613946       0.09897419
Si       0.30599633       1.08600507      -0.43979027      -0.04939271       0.06653479      -0.09793354
Si       0.46598162      -1.96476508      12.06068363      -0.02515715      -0.04511893       0.12243722
Si      -1.38682138      -0.78797944      12.96385861      -0.03601130      -0.13754950      -0.00871534
Si       1.18491948      -6.31943122      10.68512554      -0.15123822      -0.02558141      -0.00751302
Si       1.77943075      -5.68269330      12.87476602      -0.00251556      -0.04571110      -0.11099099
Si       0.62936546      -2.08683739       7.77212656      -0.02493801      -0.04117237      -0.02199711
Si       1.26048128      -7.40303101      14.40080118       0.06506614       0.02435841      -0.07251265
Si       2.37286002      -3.68879046       7.38653144       0.11550196      -0.11103045      -0.07757595
Si       0.07549254      -4.09028307      13.03611030      -0.10783629      -0.07725873      -0.01229110
Si       2.95135636       5.91784309      -0.59312339       0.12197254       0.06389505      -0.04457096
Si       1.48108857      -0.10744704       6.85345613       0.14906802       0.08182528      -0.03121117
Si      -0.39615774      -0.61590488       5.35300463       0.08410557       0.06479438       0.06396092
18
Lattice="3.7659202575313495 -0.5597670252003678 0.3216480944118615 -0.4078275550368202 8.409665414461877 -3.323243904504469 -1.0154161846098615 -8.049842784262578 16.098649680483927" Properties=species:S:1:pos:R:3:forces:R:3 unique_starting_index=394 config_type=initial n_minim_iter=3 energy=-2929.9243226329295 stress="-0.00014060380343826115 -0.0001316137554491215 7.590331285911351e-07 -0.0001316137554491215 0.00016930765617193734 0.0007315181059897718 7.590331285911351e-07 0.0007315181059897718 0.0020704024753325522" free_energy=-2929.9243226329295 pbc="T T T"
Si       0.73660836      -2.99272053      10.00117909      -0.00588112       0.06051780       0.05793928
Si       0.80106772       4.60701119      -0.77031497       0.06971880       0.01803528      -0.00762681
Si       2.46691013      -4.62656068       9.63803428      -0.08364915       0.11930761       0.07808857
Si       0.97079195       6.53148897       0.87466517      -0.00902281       0.02578016       0.07636718
Si       4.22701892       2.43945928       1.28564509      -0.04470569      -0.03732887      -0.04254577
Si       2.42651583       3.81119600       1.92658516      -0.05214770       0.04180338       0.10355364
Si       0.30473832       1.08592125      -0.44107581      -0.03832901       0.07711826      -0.09986435
Si       0.46982740      -1.95046171      12.09743153      -0.01370764      -0.04848344       0.05750190
Si      -1.38326951      -0.77317656      13.00229128      -0.03562477      -0.13396332      -0.01614471
Si       1.18873561      -6.30612490      10.71050814      -0.13644305      -0.03358100       0.04642135
Si       1.78541020      -5.66718483      12.90673313      -0.02931187      -0.04689508      -0.15203567
Si       0.63204245      -2.07781001       7.79334619      -0.00661560      -0.06302124      -0.01145328
Si       1.26853353      -7.38429973      14.43565128       0.05307480       0.02007319      -0.04106431
Si       2.37795108      -3.68151583       7.40455070       0.09850946      -0.10692114      -0.07693525
Si       0.07950297      -4.07473001      13.07107279      -0.10159522      -0.07436930       0.05201633
Si       2.94994656       5.91546341      -0.58741294       0.11608146       0.04959030      -0.03952567
Si       1.48479489      -0.09878228       6.87450388       0.13759571       0.07994390      -0.05320373
Si      -0.39330334      -0.60829291       5.36947887       0.08205339       0.05239349       0.06851130
18
Lattice="3.7691160769264975 -0.562036133248856 0.3251142623773367 -0.4186620286636612 8.395844282780974 -3.3194456996553297 -0.9928892103153814 -8.032872649093964 16.08362475824692" Properties=species:S:1:pos:R:3:forces:R:3 unique_starting_index=394 config_type=initial n_minim_iter=4 energy=-2929.9360706673992 stress="0.0003323821226659145 -0.0003701697615349646 0.0002768648085523422 -0.0003701697615349646 -0.0005058676114948192 0.00064143870162442 0.0002768648085523422 0.00064143870162442 0.0005229275409857995" free_energy=-2929.9360706673992 pbc="T T T"
Si       0.74953221      -2.98481678       9.99616608      -0.04324417       0.08245477       0.05280631
Si       0.80063082       4.59979294      -0.76639427       0.07618317       0.03356697      -0.02143463
Si       2.47659408      -4.61221525       9.63806253      -0.05652360       0.07252483       0.05187382
Si       0.96600843       6.52198639       0.88070948       0.01116347       0.02399665       0.04544741
Si       4.22655723       2.43052495       1.28730772      -0.04552235       0.01673133       0.02480811
Si       2.42331943       3.80558279       1.93411659      -0.01600641      -0.05616945      -0.03442971
Si       0.30067873       1.08778634      -0.44653773       0.00226819      -0.03716563      -0.07620424
Si       0.48259675      -1.94807369      12.09556543      -0.01507818      -0.05382625      -0.00541568
Si      -1.37261405      -0.77654892      12.98962205      -0.00147238       0.02009861      -0.05864018
Si       1.19693755      -6.29664168      10.70211238      -0.13689335      -0.01962239       0.01348132
Si       1.80404449      -5.65934714      12.89045073      -0.07377522      -0.01635348      -0.13103076
Si       0.64068311      -2.07639236       7.78595894       0.08146867      -0.05030198      -0.01527313
Si       1.29414560      -7.36901707      14.42045988      -0.00808709      -0.00330363      -0.01653823
Si       2.39721645      -3.68264936       7.39601605      -0.00027193      -0.02851138       0.04004406
Si       0.08964704      -4.07058518      13.05992080      -0.03848014      -0.09089404       0.06336074
Si       2.95355018       5.90665733      -0.58521006       0.07235541       0.01723980       0.03633990
Si       1.50150346      -0.09398454       6.86853261       0.10599103       0.04773554      -0.02653304
Si      -0.38252298      -0.60228022       5.36878950       0.08592490       0.04179975       0.05733793
18
Lattice="3.7634976836283474 -0.5601953221313721 0.32400865509937 -0.409751546364705 8.410261711709522 -3.3322475284464317 -1.006525862112727 -8.0639691965214 16.106069998736608" Properties=species:S:1:pos:R:3:forces:R:3 unique_starting_index=394 config_type=initial n_minim_iter=5 energy=-2929.9392550510943 stress="-0.0008856118988747839 0.0004411791097741984 -0.00031281781378133394 0.0004411791097741984 0.0008841779558965779 -0.0006491196245640903 -0.00031281781378133394 -0.0006491196245640903 0.0010337714160181587" free_energy=-2929.9392550510943 pbc="T T T"
Si       0.74030376      -2.99903202      10.00849777      -0.06330525       0.11548181       0.02563558
Si       0.80609033       4.60798891      -0.77249969       0.07569955       0.00740724      -0.00392191
Si       2.46125540      -4.62407851       9.65296458      -0.05239655       0.01763960       0.03716721
Si       0.96912489       6.53088147       0.87514959       0.02371152       0.00823531       0.03329501
Si       4.22061650       2.43470805       1.28213615      -0.03480564       0.05321322      -0.00233440
Si       2.42023256       3.81034866       1.93181410       0.00067805      -0.07256361      -0.08614533
Si       0.29998631       1.09145159      -0.45218998       0.02861591      -0.12473454      -0.02674210
Si       0.47304433      -1.96714832      12.11033508      -0.02967651      -0.10704335      -0.02922067
Si      -1.37951407      -0.79874669      12.99975775       0.01837416       0.13433741      -0.03865487
Si       1.17911134      -6.31807842      10.71713002      -0.11890873       0.01210676      -0.03517683
Si       1.78946119      -5.68245027      12.90154884      -0.09183977      -0.04987769      -0.07527935
Si       0.63404724      -2.09010459       7.79294723       0.12554322      -0.00188942      -0.01300047
Si       1.28071488      -7.39459007      14.43748790      -0.03867006       0.01310391      -0.06940392
Si       2.39064128      -3.69805654       7.40300892      -0.04302201      -0.00700249       0.10114774
Si       0.07574440      -4.09529173      13.07478304      -0.01210377      -0.04084076       0.06638244
Si       2.95882244       5.91894635      -0.59550722       0.04681741       0.01783724       0.03858595
Si       1.50095067      -0.09892202       6.87162989       0.07705427      -0.01139177       0.02578932
Si      -0.38211994      -0.60790664       5.37612534       0.08823419       0.03598112       0.05187659
18
Lattice="3.7695326741626776 -0.561554834108848 0.3241935981191237 -0.4187774402157214 8.386881305118798 -3.312044627695298 -0.9941301448232049 -8.017113825837425 16.06615503678582" Properties=species:S:1:pos:R:3:forces:R:3 unique_starting_index=394 config_type=initial n_minim_iter=6 energy=-2929.944865342057 stress="0.00036457714992831286 8.942208877699462e-05 -0.0001627571192558311 8.942208877699462e-05 -0.00027383962892916906 0.00034984987643311375 -0.0001627571192558311 0.00034984987643311375 -0.0010302755630452768" free_energy=-2929.944865342057 pbc="T T T"
Si       0.74625790      -2.97047516       9.99179941      -0.09519156       0.10498966       0.02598228
Si       0.80950653       4.59807242      -0.76110248       0.08716597       0.04205390      -0.02323161
Si       2.46533065      -4.59011645       9.63848554      -0.01774108      -0.03383931       0.02829084
Si       0.96541392       6.52019232       0.89190076       0.04915764       0.00911140      -0.00302469
Si       4.22152164       2.42806861       1.28503561      -0.03471019       0.03617016       0.05161253
Si       2.41768728       3.80361428       1.94037568       0.02120881      -0.13801475      -0.17050045
Si       0.29684841       1.08920748      -0.45774168       0.08733831      -0.13714800       0.00494159
Si       0.47848133      -1.94689764      12.09577148      -0.03462340      -0.07355984      -0.07549102
Si      -1.37707275      -0.77837037      12.97466635       0.05077351       0.19928471      -0.07404286
Si       1.17735192      -6.28833263      10.68876035      -0.10543762       0.00510289      -0.09189982
Si       1.79941802      -5.65187470      12.86169364      -0.10306878       0.00730754      -0.03703504
Si       0.64217572      -2.07601226       7.77511990       0.17211352       0.01250788      -0.03764753
Si       1.29832838      -7.35220401      14.39693092      -0.11564299      -0.02638370      -0.02583482
Si       2.40705595      -3.68594513       7.38394573      -0.10889757       0.06375344       0.16645424
Si       0.07747164      -4.07064817      13.04852870       0.02673323      -0.06309625       0.06759668
Si       2.96755594       5.90692719      -0.58348256      -0.00689179      -0.01802639       0.10814180
Si       1.51836745      -0.08227546       6.85941753       0.04486860      -0.01106289       0.04837738
Si      -0.37158629      -0.59151661       5.37245173       0.08284539       0.02084958       0.03731049
18
Lattice="3.7721382952562474 -0.5730485466477594 0.34066855131885415 -0.45731859673465763 8.380465570689093 -3.3458869660260246 -0.9088994014987173 -8.04537357144907 16.120004692748637" Properties=species:S:1:pos:R:3:forces:R:3 unique_starting_index=394 config_type=initial n_minim_iter=7 energy=-2929.952173010201 stress="0.0007984636452754687 -0.0002529059251917459 0.0013672927394028668 -0.0002529059251917459 -0.0012511657627189642 -0.000997639230727394 0.0013672927394028668 -0.000997639230727394 -6.0122717089136624e-05" free_energy=-2929.952173010201 pbc="T T T"
Si       0.78779986      -2.98831395      10.02864205      -0.07480377       0.07282458      -0.12043752
Si       0.80092646       4.59100352      -0.77315989       0.04106467       0.01542394       0.02312973
Si       2.50804284      -4.61022533       9.68926113      -0.03349025      -0.02277336      -0.03908659
Si       0.94985147       6.50305507       0.88285559       0.06548810       0.02609992       0.00066637
Si       4.21379962       2.40692996       1.29616765      -0.00717623       0.01479609      -0.01928998
Si       2.41018184       3.77776689       1.93956887       0.01148845      -0.09209647      -0.13281110
Si       0.29241924       1.08378452      -0.46812850      -0.01855607      -0.06098511      -0.02652853
Si       0.52663393      -1.98813043      12.13223035      -0.01175198      -0.04421685      -0.01425233
Si      -1.32616586      -0.80994451      12.99381126       0.01054461       0.13940407       0.00721996
Si       1.22131714      -6.31224420      10.73073855      -0.11612189       0.00297265      -0.09419491
Si       1.85857784      -5.68708177      12.90126407      -0.12677460      -0.00852779       0.02052008
Si       0.68534419      -2.10002173       7.79680128       0.16792116       0.01122426       0.04373069
Si       1.37403471      -7.38305549      14.44793016       0.00121241      -0.05306075      -0.00689211
Si       2.44824167      -3.71218150       7.42315002      -0.09788842       0.05237524       0.18313902
Si       0.13309078      -4.10997571      13.09213059       0.05439161      -0.03861790       0.02629881
Si       2.95509538       5.89005131      -0.58892066       0.01859268       0.00213854       0.07161800
Si       1.55646519      -0.10319523       6.87928887       0.01928629      -0.00043907       0.07083439
Si      -0.33945750      -0.60006578       5.39065002       0.09657324      -0.01654198       0.00633600
18
Lattice="3.763076934010377 -0.5867490174512738 0.33093284399423456 -0.4761714967959377 8.40493561735574 -3.3291310447238462 -0.9161959217788292 -8.045859359325567 16.092525714214226" Properties=species:S:1:pos:R:3:forces:R:3 unique_starting_index=394 config_type=initial n_minim_iter=8 energy=-2929.9605072523927 stress="-0.00042842177066114846 -0.001963363212893625 -0.0006314334339574763 -0.001963363212893625 0.0008205493799113453 -6.557944414765305e-05 -0.0006314334339574763 -6.557944414765305e-05 -0.0003244740631805799" free_energy=-2929.9605072523927 pbc="T T T"
Si       0.76541002      -2.97488522      10.01473760       0.04311603      -0.00947450      -0.14507793
Si       0.79634725       4.60606509      -0.76710552      -0.00899362       0.01810141       0.04130969
Si       2.48579054      -4.61281163       9.67423119      -0.11420723      -0.01116850      -0.04439687
Si       0.92693640       6.52570522       0.89487130       0.07039888       0.00950437       0.00432617
Si       4.18613983       2.40465194       1.28858779      -0.07936354      -0.10012262      -0.12097384
Si       2.38434456       3.77786351       1.93143891       0.06989120       0.03402584       0.04835582
Si       0.29050232       1.07958761      -0.47493523       0.00765396       0.07619993       0.05430854
Si       0.50059855      -1.98881175      12.11744415      -0.10582502      -0.01333295       0.03106154
Si      -1.34877722      -0.78404513      12.97528459       0.09475884       0.02631300       0.08294194
Si       1.19503750      -6.32302142      10.70104182      -0.06075857      -0.12515852      -0.19049211
Si       1.83336251      -5.69694696      12.86224295      -0.15606908       0.01804743       0.12050483
Si       0.68537848      -2.10112809       7.78051900       0.16853509       0.04908881       0.03134987
Si       1.36004699      -7.39109260      14.41107325      -0.02350241      -0.07392781      -0.04551949
Si       2.43725003      -3.72537561       7.41221590      -0.11327616       0.01234568       0.02851645
Si       0.11139618      -4.11541754      13.07705029       0.09188638       0.02649499      -0.01496823
Si       2.93853691       5.90236416      -0.58186110       0.04145623       0.00012251       0.01356771
Si       1.55133781      -0.09429569       6.86907209       0.03786926       0.09172326       0.12824167
Si      -0.33541830      -0.58755864       5.39236148       0.03642975      -0.02878233      -0.02305575
18
Lattice="3.76190441985875 -0.5747984713825074 0.3309293016610107 -0.45108164385363386 8.398418739016313 -3.3201094390468193 -0.938381095555471 -8.030622768968247 16.08218173178308" Properties=species:S:1:pos:R:3:forces:R:3 unique_starting_index=394 config_type=initial n_minim_iter=9 energy=-2929.964734522588 stress="-0.0001346952800492971 0.00016733168820597994 0.0001303691632743434 0.00016733168820597994 0.0004828569384575685 0.0003835301718601035 0.0001303691632743434 0.0003835301718601035 7.546818019923591e-05" free_energy=-2929.964734522588 pbc="T T T"
Si       0.75568822      -2.95800093      10.01073278      -0.01923143      -0.02137254      -0.13675887
Si       0.81385484       4.60803169      -0.76180441       0.01489676       0.01407980       0.04452600
Si       2.47033300      -4.59260828       9.67085012      -0.05786945      -0.05305784      -0.01870096
Si       0.94864770       6.52910505       0.90343721       0.08851246      -0.00085038      -0.01039555
Si       4.19223752       2.41835153       1.29104275       0.00165440      -0.14337870      -0.12877465
Si       2.39625990       3.78393434       1.93345758      -0.01527810       0.06737780       0.08979762
Si       0.29440052       1.07790080      -0.47581309      -0.01523734       0.13250192       0.05996575
Si       0.49472950      -1.97775026      12.11475667      -0.04577850      -0.00284622       0.05857059
Si      -1.34858119      -0.77223722      12.97137424       0.02462273      -0.02765460       0.09277761
Si       1.17112459      -6.30819870      10.69040750      -0.03339011      -0.05372485      -0.18067236
Si       1.81406974      -5.67807686      12.85215189      -0.05225562       0.00028034       0.12345651
Si       0.68552480      -2.09127160       7.77688153       0.05711413       0.08247328      -0.00887790
Si       1.33892107      -7.37124023      14.39959408      -0.00169797      -0.07686421      -0.04536138
Si       2.42638294      -3.71036639       7.41117504      -0.00494542      -0.00025847      -0.01631515
Si       0.09995839      -4.10390873      13.07319108      -0.00160473       0.05479963      -0.02954304
Si       2.95992027       5.91050744      -0.57338200       0.00084947       0.01222348      -0.00660292
Si       1.55683012      -0.08081260       6.86971256       0.00832816       0.04646614       0.13366337
Si      -0.33199597      -0.58144339       5.39335166       0.05131058      -0.03019458      -0.02075467
18
Lattice="3.7651262086236366 -0.5735418152344172 0.3265035587752246 -0.4454443109554237 8.387356181225895 -3.3308975435469796 -0.9630364105820106 -8.034660600364116 16.10182267826432" Properties=species:S:1:pos:R:3:forces:R:3 unique_starting_index=394 config_type=initial n_minim_iter=10 energy=-2929.9678720865563 stress="0.0003156716278580445 0.0003023496266148508 -0.0003391841707855153 0.0003023496266148508 -0.0004517365066582435 -6.971425520237395e-05 -0.0003391841707855153 -6.971425520237395e-05 0.0003749956042891682" free_energy=-2929.9678720865563 pbc="T T T"
Si       0.74129691      -2.96349210      10.01645691      -0.01752824      -0.00354437      -0.11946394
Si       0.81728394       4.60135759      -0.76788125       0.01260538      -0.00815897       0.04347039
Si       2.45725689      -4.59564337       9.67797589      -0.05481428      -0.06659644      -0.03170685
Si       0.95117778       6.51697497       0.89526038       0.08907309       0.01036118       0.00247324
Si       4.19477688       2.41134417       1.28116883       0.00648352      -0.08518859      -0.10637670
Si       2.39655147       3.77591781       1.92753112      -0.01211789       0.05168821       0.07845569
Si       0.29547212       1.07799618      -0.47702955       0.01074639       0.09051979       0.01152028
Si       0.47708383      -1.98829855      12.12403684      -0.03865212       0.00089621       0.04451353
Si      -1.36742430      -0.78507095      12.98279340       0.02073391      -0.03768236       0.10841525
Si       1.15480257      -6.30984462      10.69862564      -0.03556464      -0.00743882      -0.15206567
Si       1.79536066      -5.68227700      12.86501034      -0.04164003      -0.01871941       0.09982997
Si       0.67715252      -2.09496653       7.78265361       0.02661754       0.08800097      -0.00204857
Si       1.31870251      -7.37553041      14.41331053      -0.03321874      -0.06446364      -0.03244429
Si       2.41723037      -3.71160856       7.41697716       0.01323942      -0.01531883      -0.01163885
Si       0.08134810      -4.11092645      13.08510425      -0.02029630       0.04760720      -0.01789403
Si       2.96511190       5.90155521      -0.58416507       0.00185464       0.02917126      -0.02217990
Si       1.54956341      -0.08718127       6.87397734       0.03777385       0.01535096       0.12366540
Si      -0.33839354      -0.58680698       5.39754067       0.03470450      -0.02648435      -0.01652495
18
Lattice="3.7609117003165347 -0.5777433740140729 0.32894542404901983 -0.45415428751121745 8.396656716787056 -3.342633535977853 -0.9469167066069344 -8.063282353487242 16.103894016020455" Properties=species:S:1:pos:R:3:forces:R:3 unique_starting_index=394 config_type=initial n_minim_iter=11 energy=-2929.975497736613 stress="-1.9464763957427384e-05 0.0005207236008971444 0.0002025455837819984 0.0005207236008971444 -0.000801469059495989 -0.00040350491908670903 0.0002025455837819984 -0.00040350491908670903 5.0039455254660704e-05" free_energy=-2929.975497736613 pbc="T T T"
Si       0.74404203      -2.97844303      10.00719424      -0.02076445       0.00590519      -0.03071268
Si       0.81620770       4.60540812      -0.77143093      -0.01432565      -0.03124562       0.03074508
Si       2.45571478      -4.61676088       9.68109026      -0.03593680      -0.04554098      -0.07210265
Si       0.95117613       6.51867353       0.88613948       0.08498773      -0.00100736       0.00701694
Si       4.18557852       2.39960005       1.27055830       0.02141638       0.07253162       0.00538363
Si       2.38968834       3.77294752       1.92383585      -0.00642552      -0.00626596       0.00835223
Si       0.29402683       1.08361019      -0.47853437      -0.02998535      -0.07318560      -0.05001386
Si       0.47939974      -2.01286464      12.12372843       0.01521227      -0.01125288       0.01483474
Si      -1.35674882      -0.80442046      12.97925712      -0.01205680       0.03444685       0.06839145
Si       1.15458069      -6.33406237      10.68884418      -0.03807049       0.03273606      -0.02937587
Si       1.79671157      -5.70866636      12.87004012      -0.04026283      -0.03185808      -0.01097999
Si       0.69025196      -2.10490414       7.78024920      -0.03399977       0.07252411      -0.00609315
Si       1.32874597      -7.40798537      14.41138575      -0.00949940      -0.06807967      -0.00535275
Si       2.41998613      -3.72867516       7.42214320       0.04563755      -0.00604210       0.00564137
Si       0.08949246      -4.13446443      13.08361166      -0.04984993       0.04215660      -0.01697750
Si       2.95911771       5.90448637      -0.59087352       0.02131884       0.03261462      -0.00272334
Si       1.55715300      -0.09581748       6.87939596       0.08656420      -0.00927178       0.09497718
Si      -0.32727375      -0.59550513       5.39617885       0.01604001      -0.00916503      -0.01101083
18
Lattice="3.757591042548247 -0.5856221951879975 0.327635873512594 -0.4682043680352937 8.407219783922491 -3.348216788516561 -0.9374496404026893 -8.081837213447333 16.104025439649643" Properties=species:S:1:pos:R:3:forces:R:3 unique_starting_index=394 config_type=initial n_minim_iter=12 energy=-2929.9796161189443 stress="6.632223065151096e-05 0.00013970458470658641 -1.838838701974837e-05 0.00013970458470658641 -0.0003970781191207556 -0.0002094599707082659 -1.838838701974837e-05 -0.0002094599707082659 -1.5077409176012181e-05" free_energy=-2929.9796161189443 pbc="T T T"
Si       0.73842359      -2.98317551      10.00072561       0.00102453      -0.01463259       0.01683830
Si       0.81543298       4.61091825      -0.77213509      -0.04694008      -0.04167751       0.02168142
Si       2.44632826      -4.63046354       9.68366347      -0.03564804      -0.03249902      -0.10549098
Si       0.94507450       6.52378081       0.88443816       0.08677746      -0.01111327       0.00730227
Si       4.17123487       2.38901091       1.25999161       0.01658635       0.13439012       0.04709567
Si       2.37654799       3.76757766       1.91943859       0.01370449      -0.01022813       0.00271041
Si       0.29150889       1.08454818      -0.48490204      -0.03517439      -0.12770420      -0.06649118
Si       0.47205309      -2.03357215      12.12582438       0.02815847       0.00425953       0.00024755
Si      -1.35777725      -0.81133063      12.97615563      -0.00943760       0.03487069       0.06017112
Si       1.14274383      -6.35395527      10.67559393       0.00598605       0.01851878       0.02309429
Si       1.78880445      -5.73104110      12.86398618      -0.04907975      -0.02246477      -0.04112544
Si       0.70139448      -2.11220147       7.77557725      -0.06878262       0.06774636      -0.00803594
Si       1.33344065      -7.43340300      14.40294010      -0.01486387      -0.07350591       0.00912617
Si       2.42224461      -3.74641380       7.42572307       0.05282800       0.00479371      -0.01819740
Si       0.08617730      -4.15422959      13.08366946      -0.06202755       0.04803469      -0.02117070
Si       2.95352649       5.90825437      -0.59440278       0.03072967       0.02822139       0.00148202
Si       1.56683061      -0.09869879       6.88436042       0.10554422       0.00234260       0.08797277
Si      -0.31543671      -0.59698891       5.39939002      -0.01938533      -0.00935245      -0.01721034
18