14
Lattice="6.814606487410736 -1.1348257107265925e-12 -1.0262515228588261e-14 3.407303243706352 5.901622334891367 -2.402552205936287e-14 3.4073032437057074 1.9672074449634331 5.922765360301105" Properties=species:S:1:pos:R:3:forces:R:3 unique_starting_index=33 config_type=initial n_minim_iter=16 energy=-2277.242261564968 stress="3.214009254548749e-06 1.1711003670722228e-12 7.437280467677453e-12 1.1711003670722228e-12 3.2140094490222193e-06 -2.9499446167071336e-12 7.437280467677453e-12 -2.9499446167071336e-12 -3.996634597655264e-06" free_energy=-2277.242261564968 pbc="T T T"
Si       5.56594147       5.77917384       0.70996337       0.00211860       0.00289842      -0.00164597
Si       9.03654745       4.09341163       0.70996337       0.00145080      -0.00328398      -0.00164597
Si       5.84133157       1.93065979       0.70996337      -0.00356941       0.00038556      -0.00164597
Si       8.80427774       2.22863291       3.87686843      -0.00197901      -0.00003801       0.00067185
Si       4.34252068       3.06420062       3.87686843       0.00095658       0.00173288       0.00067185
Si       7.29702207       6.51041172       3.87686843       0.00102243      -0.00169487       0.00067185
Si       4.49642292       3.78057850       1.54502317      -0.00501415       0.00324917      -0.00045911
Si       7.84047239       6.01893953       1.54502317       0.00532093       0.00271779      -0.00045911
Si       8.10692517       2.00372722       1.54502317      -0.00030679      -0.00596696      -0.00045911
Si       8.28930599      -0.21438208       3.34896464      -0.00082751      -0.00147369       0.00280719
Si       2.48429351       4.73168673       3.34896464      -0.00086250       0.00145349       0.00280719
Si       9.67022099       7.28594060       3.34896464       0.00169001       0.00002020       0.00280719
Si       6.81460683       3.93441508       3.28562188       0.00000000      -0.00000000      -0.00107472
Si       6.81460683       3.93441508       5.72627803      -0.00000000       0.00000000      -0.00304716
