12
Lattice="5.205412010757115 2.0683487778433536 0.8343746496645356 1.7293371810146159 6.585246392361763 1.3506574085038197 0.1953525039454317 -0.24010264913865775 8.111605645302323" Properties=species:S:1:pos:R:3:forces:R:3 unique_starting_index=414 config_type=initial n_minim_iter=1 energy=-1954.3966795017357 stress="0.0007256610775524254 0.0013978525088653951 0.0009114842664979367 0.0013978525088653951 -0.0030717622446868598 0.00012367599070438714 0.0009114842664979367 0.00012367599070438714 0.00018884705575406225" free_energy=-1954.3966795017357 pbc="T T T"
Si       2.21432850       3.57971999       4.50831940      -0.01774504      -0.02845460       0.02748881
Si       1.23520042       2.40939437       0.93920235       0.08020815       0.10148114       0.08581802
Si       3.50425144       5.45178843       4.00489656      -0.04662711      -0.05888469      -0.18605250
Si       0.54926688       2.66149103       3.17615235      -0.10836248       0.12245652       0.06827092
Si       6.01818511       6.57726733       7.05025515      -0.01287199      -0.02881843       0.03948686
Si       5.35968464       8.31867129       5.48016264       0.01874312       0.00849397       0.03407298
Si       4.79364396       3.33415227       0.44213519       0.11339212       0.01349353       0.07933264
Si       4.69437138       6.31907498       2.14049980       0.11634286      -0.16450064      -0.06764892
Si       2.37313897       7.05956608       5.21460405      -0.04784906      -0.13009330       0.05756303
Si       2.18430963       6.11736035       7.37059974      -0.07273698      -0.04308396       0.05667351
Si       4.27460878       5.32620434       8.13146392      -0.02685376       0.02927293      -0.17984471
Si       3.44740319       1.81664403       1.68878974       0.00436017       0.17863754      -0.01516064
12
Lattice="5.195898560104789 2.0670399380667748 0.8277693812563485 1.714339635739182 6.6079212561250875 1.3472733465533107 0.18613149956323197 -0.24268067949709848 8.10945773714828" Properties=species:S:1:pos:R:3:forces:R:3 unique_starting_index=414 config_type=initial n_minim_iter=2 energy=-1954.399847487854 stress="0.0005145690764606486 -0.0003351274138361669 -0.0001907914824358199 -0.0003351274138361669 0.0008913238264590854 0.00013786295348774315 -0.0001907914824358199 0.00013786295348774315 0.0005827792219923286" free_energy=-1954.399847487854 pbc="T T T"
Si       2.20049676       3.58901753       4.50422233       0.03661175      -0.03171772       0.06136243
Si       1.22904446       2.41706116       0.93759297       0.07914152       0.11529679       0.10904068
Si       3.48630537       5.46608325       3.99802451      -0.07891649      -0.02192736      -0.15939649
Si       0.53971637       2.67114051       3.17467530      -0.13492732       0.03526528       0.04630304
Si       5.99250368       6.59116709       7.04069198      -0.01074605      -0.02483194       0.00105683
Si       5.33348401       8.34106539       5.47144448      -0.03839571       0.03018292       0.04438969
Si       4.78327958       3.33870856       0.43631184       0.08858020       0.03750385       0.03818758
Si       4.67677758       6.33440588       2.13315776       0.13349475      -0.13713201      -0.03675639
Si       2.35193747       7.08167847       5.20975656       0.00910653      -0.09322513       0.02392951
Si       2.16232839       6.13620102       7.36559656      -0.07841543      -0.01109728       0.07591047
Si       4.25145613       5.33842394       8.12274796      -0.00296751      -0.03063191      -0.17220414
Si       3.43899510       1.81828159       1.68399260      -0.00256626       0.13231450      -0.03182321
12
Lattice="5.1824486465866935 2.065327137408851 0.8237620305870221 1.7090784342074965 6.6048123668430465 1.3399214707944211 0.18432341068260413 -0.24756731441861216 8.091236711757729" Properties=species:S:1:pos:R:3:forces:R:3 unique_starting_index=414 config_type=initial n_minim_iter=3 energy=-1954.4026221093002 stress="-0.0022625333779523935 -0.0003726505593291426 -0.00014102865754315184 -0.0003726505593291426 -0.0001257604711218986 -0.00045925708304488615 -0.00014102865754315184 -0.00045925708304488615 -0.0018051522788039517" free_energy=-1954.4026221093002 pbc="T T T"
Si       2.19426132       3.58432826       4.49246083       0.04567280      -0.02264167       0.07368096
Si       1.22694351       2.41762472       0.93566606       0.07005274       0.12203595       0.07845155
Si       3.47496978       5.46100490       3.98210900      -0.10723701      -0.01909850      -0.15728990
Si       0.53520336       2.66927161       3.16670190      -0.12787007      -0.00883812       0.06585604
Si       5.97531089       6.58367462       7.01991556      -0.01875106      -0.01901451      -0.00309674
Si       5.31774525       8.33497487       5.45386221      -0.05515639       0.00829320       0.04343792
Si       4.77247686       3.33745738       0.43332319       0.07639286       0.05211531       0.03306076
Si       4.66629665       6.32799137       2.12291387       0.16217715      -0.08862974      -0.03654932
Si       2.34432440       7.07416401       5.19383272       0.02412590      -0.03867679       0.02528427
Si       2.15358703       6.12920755       7.34614419      -0.08261377      -0.01458066       0.07289469
Si       4.23866768       5.33099243       8.09729140       0.00142366      -0.05516749      -0.15701330
Si       3.42982560       1.81888936       1.67798527       0.01178320       0.08420301      -0.03871694
12
Lattice="5.189105516242185 2.070393965130014 0.8224818392722254 1.7167002514406107 6.607039916717072 1.3385637261208883 0.18282888360947472 -0.2486158230015041 8.09081457635808" Properties=species:S:1:pos:R:3:forces:R:3 unique_starting_index=414 config_type=initial n_minim_iter=4 energy=-1954.4139916595138 stress="-0.0015101233262393358 0.0009695989829592599 0.0006023015043395432 0.0009695989829592599 0.0010264710251546446 -0.00032770214598889976 0.0006023015043395432 -0.00032770214598889976 -0.0007612575393899654" free_energy=-1954.4139916595138 pbc="T T T"
Si       2.20129374       3.58376678       4.49604653      -0.03909735       0.00087177       0.01884100
Si       1.23648685       2.42835838       0.94305160      -0.03330043       0.08371937       0.03407035
Si       3.47624396       5.46214059       3.96713279      -0.15354179      -0.01334773      -0.11616088
Si       0.52714187       2.67301146       3.17049853      -0.00721477      -0.10430012       0.13656129
Si       5.98485231       6.58712836       7.01805300      -0.01175893       0.00979431      -0.02197853
Si       5.32701231       8.34204158       5.45485219      -0.01184109      -0.02861097       0.01414340
Si       4.78737155       3.34533776       0.43553103       0.09258929       0.07233835       0.04576325
Si       4.68747256       6.32202906       2.11757834       0.16660145       0.07118953      -0.05389667
Si       2.35252228       7.06924027       5.19454387       0.00324122       0.05897994      -0.00839705
Si       2.15370498       6.12949545       7.35035477      -0.03985064      -0.03266101       0.02904085
Si       4.24579225       5.33237844       8.08141565       0.02498624      -0.05473779      -0.05224849
Si       3.43458035       1.83284477       1.67451297       0.00918679      -0.06323565      -0.02573853
12
Lattice="5.193460960616953 2.048163712884483 0.8109911641768689 1.6992967783603103 6.57730652009554 1.3358211456902809 0.16571164542668343 -0.2462302215321197 8.087397149655006" Properties=species:S:1:pos:R:3:forces:R:3 unique_starting_index=414 config_type=initial n_minim_iter=5 energy=-1954.4193235015832 stress="-0.0004668503074368252 -0.0011859699530864657 -0.00022737604090673639 -0.0011859699530864657 -0.0014147537941511905 -0.00010909391795130383 -0.00022737604090673639 -0.00010909391795130383 -0.0004474395764198682" free_energy=-1954.4193235015832 pbc="T T T"
Si       2.18755825       3.56306792       4.49421160      -0.08836946      -0.04585785       0.06042659
Si       1.23496674       2.42425629       0.94737255      -0.06283317       0.08397912       0.05339782
Si       3.45325761       5.43054342       3.94719608      -0.10997847       0.06773823      -0.07630429
Si       0.50537682       2.66363884       3.17403827      -0.00459206      -0.11319584       0.09595389
Si       5.96360886       6.54543808       7.00381444      -0.00467364      -0.02661947      -0.09864890
Si       5.30171486       8.29769386       5.44580749      -0.03030992      -0.03313382      -0.02853654
Si       4.79518634       3.32245194       0.42884229       0.09851332       0.03958784       0.00126153
Si       4.68682429       6.27742654       2.10431841       0.15128443       0.13942529      -0.04382208
Si       2.32672585       7.03171555       5.19090811       0.03029303       0.07319318      -0.04164699
Si       2.11954332       6.10028143       7.34934300       0.05417224      -0.02715899       0.05237523
Si       4.22252884       5.29985714       8.05853836       0.00016906      -0.03624101       0.00059630
Si       3.43376956       1.82444093       1.66435925      -0.03367536      -0.12171669       0.02494744
12
Lattice="5.200643187827505 2.0593619474586387 0.8049923186854088 1.7102895699993335 6.588392905542643 1.3333147414770716 0.1570114006778206 -0.24569275774800042 8.08048271053306" Properties=species:S:1:pos:R:3:forces:R:3 unique_starting_index=414 config_type=initial n_minim_iter=6 energy=-1954.4232186748886 stress="0.000684028843806684 0.0005001559201868033 -0.0005550190804996863 0.0005001559201868033 -3.522893395404874e-05 -0.00044010361966233735 -0.0005550190804996863 -0.00044010361966233735 0.00022610234335709436" free_energy=-1954.4232186748886 pbc="T T T"
Si       2.19011827       3.56949681       4.49176031      -0.08311862       0.00336726       0.02226293
Si       1.24107471       2.43622325       0.95085422      -0.10699475       0.04834625       0.03366656
Si       3.45494502       5.44293370       3.93147307      -0.13098932       0.03818217      -0.07030116
Si       0.50132793       2.66739394       3.17602004       0.02396742      -0.13350418       0.11328109
Si       5.97179263       6.56260328       6.99083596      -0.01395837      -0.00974710      -0.07381311
Si       5.31274300       8.31745486       5.43773099       0.00257374      -0.03136361      -0.03205423
Si       4.81078547       3.33727698       0.42603216       0.07357974       0.02053419       0.02427100
Si       4.70866147       6.28995926       2.09498366       0.13234272       0.18470134      -0.03469894
Si       2.33542354       7.04222613       5.18514727       0.00378788       0.07904539      -0.04499134
Si       2.12093216       6.11042659       7.34544211       0.05884568      -0.02967476       0.01041983
Si       4.22666601       5.31205716       8.03995724       0.04394781      -0.02280977       0.03901620
Si       3.43770148       1.83594676       1.65836092      -0.00398392      -0.14707718       0.01294116
12
Lattice="5.1969517698031 2.0660432261143726 0.8188181746673215 1.711208046836598 6.605549484317932 1.3525163260876119 0.1711635151389563 -0.22443519579419435 8.071121127089917" Properties=species:S:1:pos:R:3:forces:R:3 unique_starting_index=414 config_type=initial n_minim_iter=7 energy=-1954.4279288293071 stress="0.0009103322290668091 0.0006873412482227633 0.0012604810402000917 0.0006873412482227633 0.001206324003741576 0.001372785974305365 0.0012604810402000917 0.001372785974305365 0.0008312776997482622" free_energy=-1954.4279288293071 pbc="T T T"
Si       2.19378070       3.58634841       4.50557264      -0.08774887      -0.01520239      -0.05865389
Si       1.24252160       2.45472909       0.96704485      -0.12178133      -0.00017781      -0.00111125
Si       3.44710431       5.46499963       3.93322512      -0.12229603       0.05085645      -0.03759603
Si       0.49878917       2.67800680       3.18979409       0.04667409      -0.08867662       0.16261339
Si       5.97722529       6.59303881       7.00800436       0.02019164       0.05257574      -0.03730851
Si       5.31488175       8.34925890       5.46500705      -0.00579057      -0.00646222      -0.04096533
Si       4.81722319       3.34983243       0.44691890       0.07907895       0.03052520       0.01296593
Si       4.72413092       6.30756083       2.11285401       0.09618052       0.21746024      -0.09929381
Si       2.34327545       7.06862765       5.20241057       0.01340945       0.04567106      -0.06235194
Si       2.12894209       6.14016286       7.36347342       0.03931945      -0.04519570      -0.01086435
Si       4.23779898       5.34147710       8.04216953       0.03929765      -0.04271809       0.14991048
Si       3.43668515       1.84662300       1.66609807       0.00346504      -0.19865585       0.02265533
12
Lattice="5.188717756449887 2.0689265068003393 0.809415436037962 1.7084651568563813 6.6131091714037655 1.3413578526168184 0.16114742150323896 -0.23455298448400513 8.06452083521492" Properties=species:S:1:pos:R:3:forces:R:3 unique_starting_index=414 config_type=initial n_minim_iter=8 energy=-1954.4346586514068 stress="0.0008171571015856737 0.0013676310215696894 0.00022449845862931303 0.0013676310215696894 0.0012831133990697642 -0.0002820646170915843 0.00022449845862931303 -0.0002820646170915843 0.001409595045709948" free_energy=-1954.4346586514068 pbc="T T T"
Si       2.18150318       3.58287026       4.50012240       0.00512303       0.04541753      -0.09127947
Si       1.23825494       2.46897317       0.97084853      -0.09352976      -0.03503140       0.03653837
Si       3.42357684       5.46997370       3.90318403      -0.02993709       0.00858893      -0.08077695
Si       0.48749948       2.67151614       3.19619220      -0.03690269      -0.05185056       0.09238141
Si       5.96028747       6.59296718       6.98220920      -0.01974663       0.08345129       0.00792284
Si       5.29920585       8.35429108       5.44471659      -0.00925324      -0.00139191      -0.03577412
Si       4.82278182       3.35995309       0.44082242      -0.01362085      -0.03716971       0.02849544
Si       4.73546420       6.31845004       2.09086102       0.02141097       0.14045319      -0.07054628
Si       2.33638390       7.07176708       5.18534720      -0.00834419      -0.01281355       0.02134154
Si       2.11633018       6.13618659       7.35383272       0.04898164      -0.01991004      -0.09764824
Si       4.22470317       5.33523602       8.01578115       0.07492508      -0.02554626       0.17521717
Si       3.42926618       1.84545837       1.65748074       0.06089374      -0.09419752       0.01412829
12
Lattice="5.183998250299099 2.066484170725586 0.8071980670027069 1.701489336852483 6.616506018393545 1.3438102817641904 0.1580657115941551 -0.22629380612906747 8.04131390909824" Properties=species:S:1:pos:R:3:forces:R:3 unique_starting_index=414 config_type=initial n_minim_iter=9 energy=-1954.4385233069884 stress="0.0006847598841371598 0.0004830047240787831 -0.00017167674547891493 0.0004830047240787831 0.0004551664621591632 -4.5644741636541966e-05 -0.00017167674547891493 -4.5644741636541966e-05 -0.00046518276092431734" free_energy=-1954.4385233069884 pbc="T T T"
Si       2.17301945       3.58698128       4.49067945       0.06763958       0.03670384      -0.07630309
Si       1.23143254       2.47358859       0.97361001      -0.01581394      -0.04244293       0.04804753
Si       3.40956588       5.47607194       3.89029961       0.02012657       0.00626012      -0.08664901
Si       0.48154134       2.67105443       3.19629073      -0.11770201       0.02594074       0.05934141
Si       5.94828378       6.59961425       6.96408815      -0.02252414       0.07383009       0.03211116
Si       5.28582574       8.35910408       5.43471879      -0.03594548       0.03803152      -0.01495159
Si       4.82154408       3.35924626       0.44247960      -0.04029161      -0.07231057       0.01112162
Si       4.73443528       6.32689259       2.08588371       0.00540004       0.05220076      -0.05258839
Si       2.32800967       7.08024948       5.17619440       0.00556205      -0.07806004       0.01926420
Si       2.10886280       6.14358327       7.33899160       0.04140606      -0.01781647      -0.06039580
Si       4.21679077       5.34059610       7.99902951       0.04857146      -0.01487726       0.13257163
Si       3.42575674       1.83991348       1.65389539       0.04357142      -0.00745980      -0.01156966
12
Lattice="5.1684187633991545 2.0610057006870384 0.8104485608153795 1.6909095282810542 6.61330778117692 1.347475751686924 0.16036287344162117 -0.22507854348503484 8.053499521978972" Properties=species:S:1:pos:R:3:forces:R:3 unique_starting_index=414 config_type=initial n_minim_iter=10 energy=-1954.4406192118545 stress="-0.0010900153056591843 -0.0003402616984814165 -0.0004368693180916929 -0.0003402616984814165 -0.0005890778933043237 0.0001459156330803649 -0.0004368693180916929 0.0001459156330803649 0.0002444632425989382" free_energy=-1954.4406192118545 pbc="T T T"
Si       2.16468982       3.58479006       4.49765945       0.05792156       0.04316749      -0.05752443
Si       1.22348307       2.47284089       0.97845734       0.00653017      -0.03139804       0.09038183
Si       3.39342550       5.47346072       3.89359817       0.04881869       0.02673450      -0.09725536
Si       0.47559142       2.66803416       3.20642579      -0.13165518       0.04433486       0.01023314
Si       5.92746929       6.59502159       6.97642816      -0.01121568       0.05746540       0.01917097
Si       5.26374730       8.35279665       5.44495135      -0.05347272       0.01957200      -0.02579761
Si       4.80715128       3.35302692       0.44599286      -0.04041536      -0.08520737      -0.01581338
Si       4.72044549       6.32626171       2.08859261      -0.00823992      -0.02687134      -0.04843661
Si       2.31719653       7.07655914       5.18555170       0.03558106      -0.09391395       0.04292400
Si       2.10152337       6.13976967       7.35097836       0.02220528       0.00499123      -0.05374807
Si       4.20463142       5.33480009       8.01734889       0.02644560      -0.00862817       0.11678728
Si       3.41623155       1.83267815       1.65806886       0.04749651       0.04975339       0.01907825
12
Lattice="5.168362848502599 2.05500778414069 0.8156081140129546 1.6855026455809299 6.613167866390197 1.3424525639224714 0.17309062190667102 -0.23329383335174583 8.046332913315732" Properties=species:S:1:pos:R:3:forces:R:3 unique_starting_index=414 config_type=initial n_minim_iter=11 energy=-1954.4429951654913 stress="-9.47653210587927e-05 -0.0013210658902834314 0.00036155253044902494 -0.0013210658902834314 -0.0007723453083152196 -0.0004456395679938705 0.00036155253044902494 -0.0004456395679938705 -0.000724499432168012" free_energy=-1954.4429951654913 pbc="T T T"
Si       2.16832578       3.58028795       4.49131644       0.04268090       0.03623528      -0.05773695
Si       1.21988386       2.47289729       0.98202011       0.05118981      -0.04430750       0.08227439
Si       3.39046301       5.47012833       3.88197570       0.09563148       0.01514182      -0.10181468
Si       0.47124356       2.66389729       3.20761584      -0.13036052       0.02961340       0.02361806
Si       5.93069349       6.58718164       6.97161164      -0.01838244       0.05475792       0.01421089
Si       5.26072921       8.34585493       5.43848625      -0.04335545       0.01186974       0.00250524
Si       4.80680067       3.34656032       0.45066463      -0.03793472      -0.06188175      -0.01481086
Si       4.72272337       6.32641874       2.08321273      -0.01427523      -0.06724044      -0.01609784
Si       2.31860581       7.06957046       5.17780090       0.01711550      -0.05091977       0.03598484
Si       2.10806546       6.13142895       7.33999370       0.06591478      -0.01353623      -0.01958029
Si       4.21410187       5.32240921       8.01637204      -0.03220741      -0.00999242       0.05165599
Si       3.41917542       1.82527085       1.66035056       0.00398330       0.10025995      -0.00020879
12
Lattice="5.163254492751833 2.0591983042294686 0.8150351245413118 1.6859907344906104 6.6186505371438695 1.347374628686061 0.16939804060487915 -0.22565004627500956 8.042449094104661" Properties=species:S:1:pos:R:3:forces:R:3 unique_starting_index=414 config_type=initial n_minim_iter=12 energy=-1954.446490034477 stress="-0.000538002910350378 -0.0008800383213043063 -5.888520795237066e-05 -0.0008800383213043063 -0.0008590949244359404 0.00029451516182218756 -5.888520795237066e-05 0.00029451516182218756 -0.0009203835493157088" free_energy=-1954.446490034477 pbc="T T T"
Si       2.16714046       3.58893824       4.48870259      -0.02830813       0.06161050      -0.03610112
Si       1.21750423       2.47814879       0.99265055       0.04317910      -0.07386939       0.07555030
Si       3.38334670       5.48030895       3.86940717       0.05550422       0.03024517      -0.06855114
Si       0.45868943       2.66702494       3.21816038      -0.05666426       0.00503631       0.03098165
Si       5.92226304       6.60461175       6.97144482       0.00073097      -0.00020816      -0.00111219
Si       5.25193488       8.35905181       5.44058162      -0.01698629       0.00179852       0.00192605
Si       4.80606141       3.34801511       0.45354180      -0.00699135      -0.04489707      -0.03343293
Si       4.72863051       6.33761207       2.07926247      -0.01048790      -0.06109196       0.03694069
Si       2.31878596       7.07400029       5.18268951       0.02966207      -0.00760045      -0.02039859
Si       2.10798685       6.13988644       7.34022867       0.05293932      -0.01062537       0.03614236
Si       4.21139327       5.33148239       8.02169689      -0.04575722       0.00747132      -0.02546887
Si       3.41814998       1.82918438       1.65989965      -0.01682054       0.09213059       0.00352379
12
Lattice="5.164000626503214 2.0633642251225757 0.8161243282868486 1.6903877224482313 6.623370196359876 1.34443235111415 0.17202817819627608 -0.23165722348405973 8.050496665466516" Properties=species:S:1:pos:R:3:forces:R:3 unique_starting_index=414 config_type=initial n_minim_iter=13 energy=-1954.448494723474 stress="-8.613233780460086e-05 -0.00011953960366969855 5.277893081403749e-05 -0.00011953960366969855 -6.0659187611441996e-05 0.00010912139014611294 5.277893081403749e-05 0.00010912139014611294 -6.160211350637854e-05" free_energy=-1954.448494723474 pbc="T T T"
Si       2.17129676       3.59189201       4.48859155      -0.07473577       0.07835690      -0.04314593
Si       1.21927372       2.48027276       0.99968748       0.00447633      -0.09393083       0.06344786
Si       3.38576343       5.48479713       3.85941799       0.02429341       0.02271740      -0.04632461
Si       0.45270502       2.66631800       3.22616693       0.01713771      -0.04276630       0.04227251
Si       5.92669322       6.61072045       6.97536584       0.00170165      -0.01305263      -0.00712881
Si       5.25541691       8.36524442       5.44119529       0.01438709      -0.01213812       0.00658878
Si       4.80964190       3.35054869       0.45416947       0.01080816      -0.00909960      -0.02305135
Si       4.73832153       6.34383658       2.07462161      -0.01101660      -0.02838277       0.06101971
Si       2.32614088       7.07260456       5.18418893       0.01105179       0.03943464      -0.02915839
Si       2.11604709       6.13824299       7.34344175       0.05253122      -0.01185298       0.02582341
Si       4.21809832       5.33018021       8.02923373      -0.03007207       0.01041940      -0.05548519
Si       3.42088012       1.83400388       1.66117892      -0.02056292       0.06029488       0.00514201
12
Lattice="5.167699399702735 2.069009192713995 0.8147146384860515 1.6976648387875695 6.627590494054727 1.338507535605422 0.17199891339508683 -0.240403625062069 8.057897764662584" Properties=species:S:1:pos:R:3:forces:R:3 unique_starting_index=414 config_type=initial n_minim_iter=14 energy=-1954.4502314055999 stress="0.00048490169244486575 0.0008954226716118541 -6.495187186101659e-05 0.0008954226716118541 0.0007909903629799065 -5.9689955821275674e-05 -6.495187186101659e-05 -5.9689955821275674e-05 0.0006805767775546201" free_energy=-1954.4502314055999 pbc="T T T"
Si       2.17361025       3.59785461       4.48348831      -0.08095455       0.06289402      -0.04477302
Si       1.22231895       2.47823111       1.01003929      -0.06526594      -0.09882607       0.03667622
Si       3.39117217       5.48988421       3.84114094      -0.03379418       0.00934674       0.00275435
Si       0.44522781       2.66236998       3.23630216       0.08257742      -0.06887263       0.03922023
Si       5.93379873       6.61633468       6.97423447       0.00216591      -0.01796792      -0.00467354
Si       5.26264122       8.37045867       5.43687783       0.03798438       0.01012300       0.01851185
Si       4.81747434       3.35331814       0.45140799       0.02667568       0.04189534      -0.00114510
Si       4.75293224       6.34942164       2.06753831      -0.00074536       0.02143868       0.05705746
Si       2.33629549       7.07006179       5.18126841      -0.01571993       0.04779523      -0.02050503
Si       2.12771964       6.13321759       7.34387251       0.02525807      -0.01087503      -0.01679696
Si       4.22548957       5.32707815       8.03130995       0.03611605       0.00708183      -0.06676248
Si       3.42508679       1.84264235       1.66068861      -0.01429756      -0.00403320       0.00043602
12
Lattice="5.1643403218748665 2.0629309409073437 0.816227840807568 1.6919378239668073 6.622573704133676 1.334188129445492 0.17721698047114304 -0.2469452950155752 8.057233754331689" Properties=species:S:1:pos:R:3:forces:R:3 unique_starting_index=414 config_type=initial n_minim_iter=15 energy=-1954.4526254491689 stress="2.7290833045449826e-05 -0.0002016089626955343 8.956563062994144e-05 -0.0002016089626955343 -5.3149451209764697e-05 -7.260733756355662e-05 8.956563062994144e-05 -7.260733756355662e-05 1.8507211169858605e-05" free_energy=-1954.4526254491689 pbc="T T T"
Si       2.16534373       3.59913679       4.47537805       0.02772990      -0.01749960      -0.02331225
Si       1.21673153       2.46598564       1.01875396      -0.06427009      -0.04468675       0.02592598
Si       3.38609492       5.48547625       3.82898446      -0.01484202      -0.00238876       0.03771267
Si       0.44288540       2.65192396       3.24289821      -0.01196047       0.00973325      -0.00971657
Si       5.92928156       6.60394123       6.97043226       0.00604832       0.01512159       0.00492845
Si       5.25622361       8.35880380       5.43317685      -0.00457298       0.07232701       0.03236387
Si       4.81575515       3.34663769       0.45057932       0.01213209       0.04485458      -0.00200561
Si       4.75023697       6.34304553       2.06776025       0.00826932      -0.01624261      -0.01609312
Si       2.33375882       7.06322386       5.17449128      -0.01357373      -0.04184524       0.03523115
Si       2.13262247       6.12057833       7.33946268      -0.01179429      -0.00437886      -0.05173768
Si       4.22522719       5.31407155       8.02689538       0.07621948      -0.00756461      -0.02801962
Si       3.42233955       1.84030802       1.66184602      -0.00938554      -0.00743002      -0.00527727
12
Lattice="5.163097915942813 2.0675768463804043 0.8136667645213085 1.6952519723109034 6.6264497595092084 1.3338504092486767 0.17306160204419024 -0.24540801323076886 8.052821083941348" Properties=species:S:1:pos:R:3:forces:R:3 unique_starting_index=414 config_type=initial n_minim_iter=16 energy=-1954.4540883008742 stress="-0.0004818704311786021 -4.093747091252801e-06 -0.0003229131114288032 -4.093747091252801e-06 -0.0004947766317486702 0.0002512105468839191 -0.0003229131114288032 0.0002512105468839191 -0.0006435105864492073" free_energy=-1954.4540883008742 pbc="T T T"
Si       2.16307232       3.60760402       4.46598735       0.00401986      -0.00578138       0.02266784
Si       1.21054698       2.45983048       1.02995988      -0.02304271      -0.02030854       0.01343786
Si       3.38308734       5.49334426       3.81695001      -0.01888458      -0.00648926       0.04069120
Si       0.43610607       2.65034171       3.25000859      -0.01936670       0.00822328       0.00756157
Si       5.92723167       6.61525303       6.96449119       0.03025116       0.00198331      -0.02495537
Si       5.25501280       8.37274152       5.43133097       0.01204663       0.04231071       0.01053836
Si       4.81968649       3.35283396       0.44858727      -0.00064192      -0.02354017      -0.03064368
Si       4.75799973       6.34986433       2.06335929       0.00797662      -0.00660551      -0.00777014
Si       2.33588744       7.06417654       5.17365629      -0.00834621       0.00103690       0.00025081
Si       2.13630784       6.12278993       7.33174842      -0.00316851      -0.00079077       0.03326270
Si       4.23035820       5.31837933       8.01989670       0.02696004       0.02269240      -0.05128831
Si       3.42134947       1.84574268       1.65952152      -0.00780369      -0.01273098      -0.01375284
12
Lattice="5.164542517751251 2.0687450276127555 0.815326264182071 1.6969750849474532 6.628820032529951 1.3321249467791398 0.17641600733323098 -0.24959624791326765 8.058411616320043" Properties=species:S:1:pos:R:3:forces:R:3 unique_starting_index=414 config_type=initial n_minim_iter=17 energy=-1954.454653686237 stress="-0.00016408195258595063 -9.269902594942001e-06 -7.080527432254493e-05 -9.269902594942001e-06 -0.0001519541062388442 7.516895689120979e-05 -7.080527432254493e-05 7.516895689120979e-05 -0.00021490236741444254" free_energy=-1954.454653686237 pbc="T T T"
Si       2.16489111       3.60883035       4.46611816      -0.00049758      -0.00469091       0.02189858