20
Lattice="5.161829817946659 -4.9630707072161946e-12 1.3116321240178415e-13 -2.580914908969031 4.470275752356291 -2.293965234285742e-14 -6.623976063487622e-13 -2.4866414799167433e-13 26.068160829368264" Properties=species:S:1:pos:R:3:forces:R:3 unique_starting_index=168 config_type=initial n_minim_iter=1 energy=-3252.8851708445036 stress="3.8181400042513465e-05 5.463134450712002e-13 -8.964520979698097e-13 5.463134450712002e-13 3.8181407050461126e-05 8.251493515419244e-14 -8.964520979698097e-13 8.251493515419244e-14 -5.805037726407976e-06" free_energy=-3252.8851708445036 pbc="T T T"
Si       1.32113837       0.69129822      24.43418078      -0.00180741       0.00194648      -0.00162848
Si       3.90257882       0.79849028      24.43418078      -0.00078200      -0.00253850      -0.00162848
Si       2.51902755       2.98048725      24.43418078       0.00258941       0.00059202      -0.00162848
Si       4.08516886       1.91581517      17.18637683       0.00147957       0.00010035      -0.00258892
Si       1.46010079       2.57995242      17.18637683      -0.00082669       0.00123117      -0.00258892
Si       2.19747509      -0.02549184      17.18637683      -0.00065288      -0.00133152      -0.00258892
Si       2.89713908       2.97327357      12.45821576      -0.00053849      -0.00107018      -0.00228241
Si       1.13832983       1.02235926      12.45821576       0.00119605       0.00006875      -0.00228241
Si       3.70727582       0.47464292      12.45821576      -0.00065756       0.00100143      -0.00228241
Si       3.89912986       0.76540186      22.03970260      -0.00740137      -0.00314485       0.00106907
Si       2.54940743       2.99404458      22.03970260       0.00642421      -0.00483735       0.00106907
Si       1.29420744       0.71082931      22.03970260       0.00097716       0.00798220       0.00106907
Si      -0.38383413       4.43270487      19.77019924       0.00180987       0.00119042       0.00307660
Si      -1.06600305       1.92151320      19.77019924      -0.00193587       0.00097218       0.00307660
Si       1.44983719       2.58633343      19.77019924       0.00012600      -0.00216261       0.00307660
Si       2.21120948       3.00004627      14.88711433      -0.00219339       0.00085546       0.00367900
Si       1.45810879       0.41494044      14.88711433       0.00035584      -0.00232726       0.00367900
Si       4.07342646       1.05528903      14.88711433       0.00183754       0.00147180       0.00367900
Si       0.00000000      -0.00000000      18.50680767       0.00000000       0.00000000      -0.00444484
Si       0.00000000       2.98018383      13.69498971      -0.00000000      -0.00000000       0.00047029
