10
Lattice="6.171350145834861 -0.2222759433558239 0.2629832076558576 -2.575678448349154 5.612561781236834 -0.26298320765585803 -2.0616865468874646 -2.519137319939955 5.254286357886162" Properties=species:S:1:pos:R:3:forces:R:3 unique_starting_index=218 config_type=initial n_minim_iter=1 energy=-1628.216727816891 stress="-0.0032486708051197 -0.002006606962395036 -0.0005322622805052717 -0.002006606962395036 -0.004918245814161284 0.0003550536036125772 -0.0005322622805052717 0.0003550536036125772 -0.002051815167065783" free_energy=-1628.216727816891 pbc="T T T"
Si       3.67870949       0.88543251       1.18774864       0.13099470       0.09640808       0.04531527
Si      -2.65719143       1.21747454       4.06653772       0.03869664       0.15797689      -0.04531527
Si       0.48917036      -0.88454271       2.64466306       0.12259741       0.08777977       0.08691774
Si       0.52940332       2.98303580       2.60962330       0.03395567       0.14690958      -0.08691774
Si       2.80096830       2.58103344       2.68406196      -0.05245560      -0.14879877       0.06012436
Si      -0.75451606       1.05835655       2.57022441      -0.11723574      -0.10558620      -0.06012436
Si      -0.21343977       4.59502896       0.92040241      -0.01128650      -0.16203139       0.06251839
Si       2.26283640      -0.95122503       4.33388395      -0.14526658      -0.07265796      -0.06251839
Si       2.93918107       4.40613810       0.00000000      -0.13932328      -0.20886009       0.00000000
Si       0.65649063       0.98414773       0.00000000       0.13932328       0.20886009       0.00000000
10
Lattice="6.182845955608256 -0.2157488965433021 0.26525552048743384 -2.574067709415237 5.625682814066823 -0.26525552048743417 -2.0669048883864485 -2.5298518469130915 5.260441616758494" Properties=species:S:1:pos:R:3:forces:R:3 unique_starting_index=218 config_type=initial n_minim_iter=2 energy=-1628.2198014476546 stress="0.0009553649731587964 -3.729074887221861e-05 -0.00034263103213841463 -3.729074887221861e-05 0.0009243376127821199 0.00022855720816385142 -0.00034263103213841463 0.00022855720816385142 0.0008890360156362823" free_energy=-1628.2198014476546 pbc="T T T"
Si       3.68749770       0.89234002       1.19027072       0.11303737       0.06110516       0.04126964
Si      -2.65940775       1.21752728       4.07017090       0.01299937       0.12783703      -0.04126964
Si       0.49027895      -0.88676578       2.64843705       0.09627761       0.05828706       0.08306791
Si       0.53481317       2.99213901       2.61200457       0.01683497       0.11128047      -0.08306791
Si       2.80994673       2.59066543       2.68779609      -0.03439929      -0.11356189       0.06430287
Si      -0.75428996       1.05963140       2.57264553      -0.09163746      -0.07538030      -0.06430287
Si      -0.20822101       4.60722678       0.92068820       0.00775670      -0.12768472       0.05659932
Si       2.26687562      -0.95243588       4.33975342      -0.12086928      -0.04188281      -0.05659932
Si       2.94944170       4.42151986       0.00000000      -0.10882764      -0.16314394       0.00000000
Si       0.65933655       0.98841405       0.00000000       0.10882764       0.16314394       0.00000000
10
Lattice="6.176456504583174 -0.20989404232964406 0.27193822843096854 -2.566207759855085 5.622032390094603 -0.2719382284309689 -2.061330517308242 -2.5351629897199137 5.252664654826501" Properties=species:S:1:pos:R:3:forces:R:3 unique_starting_index=218 config_type=initial n_minim_iter=3 energy=-1628.2223361716424 stress="-0.0011437890959008934 0.0022881836260011564 0.0003600491176336391 0.0022881836260011564 0.0007600686149167577 -0.00024017621797947945 0.0003600491176336391 -0.00024017621797947945 -0.002574315792983615" free_energy=-1628.2223361716424 pbc="T T T"
Si       3.68777171       0.89593772       1.19275676       0.06729797      -0.00446505       0.02003301
Si      -2.65061691       1.21385103       4.05990790      -0.02997209       0.06042042      -0.02003301
Si       0.49354111      -0.88699170       2.64734191       0.03524289       0.00588056       0.09557108
Si       0.54039643       2.99195744       2.60532275      -0.00810755       0.03479813      -0.09557108
Si       2.81188946       2.58877437       2.68631189      -0.00745095      -0.03545682       0.06031229
Si      -0.75120780       1.05538759       2.56635277      -0.02987493      -0.02049856      -0.06031229
Si      -0.20242678       4.60300417       0.91670689       0.06306944      -0.07146129       0.03641433
Si       2.26632569      -0.95401920       4.33595777      -0.09020478       0.03078260      -0.03641433
Si       2.94873615       4.42046217       0.00000000      -0.07403200      -0.11098167       0.00000000
Si       0.66151259       0.99167617       0.00000000       0.07403200       0.11098167       0.00000000
10
Lattice="6.180852032397561 -0.2331396840258161 0.28575914402576325 -2.5893585530016114 5.617161938439921 -0.28575914402576374 -2.042040846045024 -2.527716918312604 5.2706413851650975" Properties=species:S:1:pos:R:3:forces:R:3 unique_starting_index=218 config_type=initial n_minim_iter=4 energy=-1628.2286953720704 stress="-2.722163858935384e-06 -0.000254895466623307 0.0011781988183729207 -0.000254895466623307 -0.0002148051286484852 -0.0007859353353526856 0.0011781988183729207 -0.0007859353353526856 0.0004809322417297587" free_energy=-1628.2286953720704 pbc="T T T"
Si       3.69497833       0.88089197       1.20554897       0.03785564      -0.03504878      -0.03201486
Si      -2.64798692       1.22217173       4.06509242      -0.04690073       0.02148925       0.03201486
Si       0.50769408      -0.88715506       2.66434367      -0.02855462       0.00968846       0.08274047
Si       0.53534377       2.98429195       2.60629771       0.01991325      -0.02264276      -0.08274047
Si       2.80712467       2.56156418       2.70197702      -0.02661240       0.02754880       0.04710903
Si      -0.75521081       1.04798279       2.56866437       0.03565749      -0.01398927      -0.04710903
Si      -0.21688888       4.58306020       0.91654939       0.07540109      -0.04093811      -0.01984856
Si       2.27275630      -0.96758642       4.35409200      -0.06675972       0.05389241       0.01984856
Si       2.92706907       4.38798096       0.00000000      -0.01393160      -0.02088492       0.00000000
Si       0.66442441       0.99604129       0.00000000       0.01393160       0.02088492       0.00000000
10
Lattice="6.180807931616042 -0.23366693503493682 0.27589846225879755 -2.5898284186459075 5.616918700322305 -0.27589846225879805 -2.049960541099181 -2.5218772968370295 5.269810581526388" Properties=species:S:1:pos:R:3:forces:R:3 unique_starting_index=218 config_type=initial n_minim_iter=5 energy=-1628.2295286220206 stress="2.6991215567017578e-05 -5.0233725155944324e-05 -0.0002887871522049324 -5.0233725155944324e-05 -1.4805191937043568e-05 0.0001926398323094612 -0.0002887871522049324 0.0001926398323094612 -1.637132782077146e-05" free_energy=-1628.2295286220206 pbc="T T T"
Si       3.69441463       0.88169312       1.20046908       0.00447469      -0.03362818      -0.03583036
Si      -2.65495040       1.22779862       4.06934151      -0.03276728      -0.00878536       0.03583036
Si       0.50419412      -0.88394626       2.66339519      -0.03619307      -0.00335746       0.05376070
Si       0.53121710       2.98736213       2.60641539       0.01080207      -0.03470628      -0.05376070
Si       2.80229780       2.56324555       2.70051001      -0.01752905       0.04233629       0.01830474
Si      -0.75972408       1.05001164       2.56930057       0.04582164       0.00007726      -0.01830474
Si      -0.21811694       4.58244863       0.92164193       0.05973310      -0.01234527      -0.02215794
Si       2.26474366      -0.96311557       4.34816865      -0.03434211       0.05040902       0.02215794
Si       2.92565932       4.38586759       0.00000000      -0.00058120      -0.00087128      -0.00000000
Si       0.66532020       0.99738417       0.00000000       0.00058120       0.00087128      -0.00000000
10
Lattice="6.179436614379445 -0.23225380627268696 0.28483047597932953 -2.587996961107783 5.616195369728368 -0.28483047597933003 -2.0426289947647795 -2.5272662865688247 5.268880242350072" Properties=species:S:1:pos:R:3:forces:R:3 unique_starting_index=218 config_type=initial n_minim_iter=6 energy=-1628.230824718086 stress="-7.475897441625983e-05 0.00010319459081739436 -7.110026192380124e-07 0.00010319459081739436 1.1102945081974029e-05 4.742794438301206e-07 -7.110026192380124e-07 4.742794438301206e-07 -0.00014378575479548456" free_energy=-1628.230824718086 pbc="T T T"
Si       3.69755312       0.87929706       1.20227639       0.00037961      -0.02233619       0.02769436
Si      -2.65103662       1.22438701       4.06660386      -0.02076857      -0.00822898      -0.02769436
Si       0.50577618      -0.88575463       2.67087683       0.01621633      -0.02231407       0.02412388
Si       0.53673147       2.98342903       2.59800342      -0.02683113       0.00640139      -0.02412389
Si       2.80403119       2.56338850       2.70462552       0.03192975       0.00078375       0.01568132
Si      -0.75292636       1.04627798       2.56425473      -0.01154079       0.02978143      -0.01568132
Si      -0.20996406       4.57826153       0.91583879       0.02288545      -0.00376937       0.02837070
Si       2.26507773      -0.96258538       4.35304145      -0.01227066       0.01968205      -0.02837070
Si       2.92440077       4.38398090       0.00000000       0.02173763       0.03258697       0.00000000
Si       0.66703888       0.99996066       0.00000000      -0.02173763      -0.03258697       0.00000000
10
Lattice="6.179663371224638 -0.23127364940091807 0.2890320203996489 -2.587179091806324 5.61678121609547 -0.2890320203996494 -2.0396447583394677 -2.5303883850687026 5.2689894924801965" Properties=species:S:1:pos:R:3:forces:R:3 unique_starting_index=218 config_type=initial n_minim_iter=7 energy=-1628.2312414043663 stress="0.0002003587943877555 -0.00031017509295114146 -2.0556873356472202e-05 -0.00031017509295114146 -5.7718936848972706e-05 1.3712767574596179e-05 -2.0556873356472202e-05 1.3712767574596179e-05 0.0004017937826785898" free_energy=-1628.2312414043663 pbc="T T T"
Si       3.69930780       0.87720700       1.20475670       0.01499027       0.00503174       0.01573240
Si      -2.65065610       1.22208219       4.06423279      -0.00111211       0.01577308      -0.01573240
Si       0.50727318      -0.88812605       2.67567854       0.02167427       0.01322417      -0.00231443
Si       0.53799582       2.98234422       2.59331095       0.00388451       0.02509110       0.00231443
Si       2.80731135       2.56438282       2.70750211       0.00518314      -0.01848873       0.01135064
Si      -0.75028401       1.04656634       2.56148739      -0.01906131      -0.00231609      -0.01135064
Si      -0.20477665       4.57730543       0.91471143      -0.01567193      -0.01722812       0.01037264
Si       2.26518669      -0.96128525       4.35427806      -0.00988685      -0.02108715      -0.01037264
Si       2.92608997       4.38651318       0.00000000       0.01019686       0.01528616      -0.00000000
Si       0.66639431       0.99899438       0.00000000      -0.01019686      -0.01528616       0.00000000
10
Lattice="6.179241476046093 -0.23048296254817607 0.2892694466024153 -2.5862870068482113 5.616695392623803 -0.28926944660241594 -2.039611238160519 -2.530920000503701 5.268230668475957" Properties=species:S:1:pos:R:3:forces:R:3 unique_starting_index=218 config_type=initial n_minim_iter=8 energy=-1628.231330839463 stress="2.141349850775776e-05 -5.488712115445267e-05 -1.6863717782889652e-05 -5.488712115445267e-05 -2.425468143120355e-05 1.1249192987703695e-05 -1.6863717782889652e-05 1.1249192987703695e-05 5.3537886937548836e-05" free_energy=-1628.231330839463 pbc="T T T"
Si       3.69947396       0.87765532       1.20523239       0.00904385      -0.00118552       0.00244785
Si      -2.65027247       1.22187620       4.06299828      -0.00456837       0.00789473      -0.00244785
Si       0.50775351      -0.88815775       2.67545617       0.00647366       0.01266300      -0.00218429
Si       0.53828576       2.98294878       2.59277450       0.00920504       0.01084099       0.00218429
Si       2.80792685       2.56443159       2.70744457      -0.00096275      -0.00420511       0.00840112
Si      -0.75044187       1.04662174       2.56078610      -0.00351273      -0.00250410      -0.00840112
Si      -0.20423990       4.57716793       0.91486418      -0.00949513      -0.01064749      -0.00187206
Si       2.26488710      -0.96137411       4.35336649      -0.00618357      -0.01285651       0.00187206
Si       2.92671692       4.38745305       0.00000000       0.00790385       0.01184869      -0.00000000
Si       0.66623755       0.99875937       0.00000000      -0.00790385      -0.01184869      -0.00000000
10
Lattice="6.179193786535225 -0.2302965732758112 0.2897054454267749 -2.586096597860127 5.616722954691148 -0.28970544542677557 -2.0393089935047257 -2.531276194635695 5.268136412794326" Properties=species:S:1:pos:R:3:forces:R:3 unique_starting_index=218 config_type=initial n_minim_iter=9 energy=-1628.2313615756532 stress="-2.610254568137079e-05 4.4182669793650615e-05 -8.381530637548777e-07 4.4182669793650615e-05 1.0659199401752118e-05 5.591046776456125e-07 -8.381530637548777e-07 5.591046776456125e-07 -5.5798339279156714e-05" free_energy=-1628.2313615756532 pbc="T T T"
Si       3.69982869       0.87761869       1.20568740       0.00478713      -0.00491385      -0.00336512
Si      -2.65014030       1.22183345       4.06244901      -0.00637567       0.00253246       0.00336512
Si       0.50821271      -0.88808422       2.67561880      -0.00105282       0.01028557      -0.00214047
Si       0.53862223       2.98325875       2.59251761       0.00990095       0.00297870       0.00214047
Si       2.80832459       2.56427543       2.70780816      -0.00260238       0.00345648       0.00629816
Si      -0.75043658       1.04657280       2.56032826       0.00419092      -0.00107510      -0.00629816
Si      -0.20412161       4.57686376       0.91478521      -0.00559118      -0.00585359      -0.00677917
Si       2.26486307      -0.96173792       4.35335120      -0.00325695      -0.00741068       0.00677917
Si       2.92708528       4.38800526       0.00000000       0.00477222       0.00715406      -0.00000000
Si       0.66601191       0.99842112       0.00000000      -0.00477222      -0.00715406      -0.00000000
10
Lattice="6.179243866406778 -0.23033178806072893 0.2901325599799572 -2.5861483472681037 5.616755666667333 -0.2901325599799579 -2.0389606044560273 -2.531506784570967 5.2682442472445326" Properties=species:S:1:pos:R:3:forces:R:3 unique_starting_index=218 config_type=initial n_minim_iter=10 energy=-1628.2313827784756 stress="-3.965522016552045e-05 7.153389892075007e-05 4.521722164896013e-06 7.153389892075007e-05 1.9863755183695705e-05 -3.0162744308397587e-06 4.521722164896013e-06 -3.0162744308397587e-06 -8.6169375194467e-05" free_energy=-1628.2313827784756 pbc="T T T"
Si       3.70021956       0.87732429       1.20601095       0.00105555      -0.00676136      -0.00419986
Si      -2.65021387       1.22185066       4.06223330      -0.00664813      -0.00162251       0.00419986
Si       0.50855788      -0.88788360       2.67588015      -0.00352629       0.00630375      -0.00213686
Si       0.53902160       2.98342140       2.59236410       0.00717465      -0.00083448       0.00213686
Si       2.80856126       2.56414761       2.70832933      -0.00110023       0.00679116       0.00413987
Si      -0.75029712       1.04651163       2.55991492       0.00669281       0.00159270      -0.00413987
Si      -0.20417227       4.57646488       0.91456160      -0.00300222      -0.00194880      -0.00662774
Si       2.26486263      -0.96216850       4.35368265      -0.00064614      -0.00352047       0.00662774
Si       2.92735939       4.38841619       0.00000000       0.00101015       0.00151432       0.00000000
Si       0.66573613       0.99800769       0.00000000      -0.00101015      -0.00151432       0.00000000
