8
Lattice="7.016304397371483 -2.1756049059243793e-15 -1.3390901501561141e-31 -3.5081521986857402 6.07629784880817 -1.287745618608187e-31 2.7466152620352235e-31 5.352422806655189e-31 11.047631906216294" Properties=species:S:1:pos:R:3:forces:R:3 unique_starting_index=280 config_type=initial n_minim_iter=11 energy=-1298.7934419557037 stress="8.945027323916826e-06 -2.719674502229044e-13 -2.7342665698658057e-13 -2.719674502229044e-13 8.945027854915978e-06 3.871858639160208e-13 -2.7342665698658057e-13 3.871858639160208e-13 1.9093680410170658e-05" free_energy=-1298.7934419557037 pbc="T T T"
Si       3.50798630       4.65337519       1.14029729       0.00024789      -0.00077754      -0.00006027
Si       5.78410018       0.71160500       1.14029729      -0.00079731       0.00017409      -0.00006027
Si       1.23237012       0.71131765       1.14029729       0.00054942       0.00060344      -0.00006027
Si       3.50798630       4.65337519       9.90733462       0.00024789      -0.00077754       0.00006027
Si       5.78410018       0.71160500       9.90733462      -0.00079731       0.00017409       0.00006027
Si       1.23237012       0.71131765       9.90733462       0.00054942       0.00060344       0.00006027
Si       0.00000000      -0.00000000       8.08326507       0.00000000      -0.00000000       0.00144730
Si       0.00000000      -0.00000000       2.96436684       0.00000000      -0.00000000      -0.00144730
