8
Lattice="6.131256241276086 1.039295809712224 1.6052977565581914 -1.626306659144464 6.00229666183557 -1.6052978531173026 -1.6263065914386015 -3.921395349580866 4.819461084645467" Properties=species:S:1:pos:R:3:forces:R:3 unique_starting_index=63 config_type=initial n_minim_iter=11 energy=-1301.3965530401958 stress="0.00022918718070760635 -0.0001470450225193226 -0.00022712595865764915 -0.0001470450225193226 9.34181354462104e-05 0.00014530676516944478 -0.00022712595865764915 0.00014530676516944478 0.0002237852263361144" free_energy=-1301.3965530401958 pbc="T T T"
Si       2.75651475      -0.17484980       4.86472824      -0.00252670       0.00557935       0.00073543
Si       0.12311102      -1.66742780       3.16614110      -0.00319291      -0.00192016       0.00491656
Si       1.31413617       5.43293060      -0.22547288      -0.00612466       0.00068924       0.00026037
Si       1.56548953       2.64848380       1.83158329       0.00040505       0.00296995       0.00539162
Si       0.12212825       3.29504692      -0.04526725       0.00252670      -0.00557935      -0.00073543
Si       2.75553198       4.78762492       1.65331989       0.00319291       0.00192016      -0.00491656
Si       1.56450684      -2.31273349       5.04493387       0.00612466      -0.00068924      -0.00026037
Si       1.31315347       0.47171331       2.98787771      -0.00040505      -0.00296995      -0.00539162
