18
Lattice="4.811600000000003 5.283634568373635e-16 -3.3020210642176557e-16 -0.1945640128584377 7.927012628027056 1.0843546010342135e-15 -1.0029968779964704 -3.9348196053295155 9.890086181315292" Properties=species:S:1:pos:R:3:forces:R:3 unique_starting_index=394 config_type=initial n_minim_iter=1 energy=-2850.5209612313806 stress="-0.4311907788341351 -0.4664191156088004 -0.4986662859955522 0.1691733472620577 -0.06817379475712197 -0.016737669882856916" pbc="T T T"
Si       0.96401180       0.84690069       7.44507688     -19.39467257      12.24451819     -27.12076668
Si       1.45857820       3.47575266       0.37871415      -1.31152300       3.34125941       2.81331910
Si       1.49989543      -1.19792709       6.01856348     -13.43695443      -3.47794426       7.12899525
Si       0.89728072       6.11495855       2.81859841      25.14563841      -3.97829522       6.37048772
Si       4.13413929       2.87619605       0.73652856      13.67944528      -0.31916727      28.34969754
Si       4.19526924       6.10340167       2.29972196     -28.65903838      -0.39288688       0.75763342
Si       0.56766447       1.41602520       0.93601160       3.88094808      -5.83860320       2.18404587
Si       2.15066320       1.38046002       8.37647179      16.44589773      11.67185635      12.87701362
Si      -0.45761970       1.83943142       9.30654044       8.67617606       3.59179414     -17.06728798
Si       1.40172828      -2.59362834       6.83855547      -2.28758536     -14.29378589       9.53715422
Si       2.87838877      -0.01620647       9.43924561      -0.10910886      13.88025038     -13.84282874
Si       1.71913553       0.19189412       5.25671828     -13.75161326      21.19406034      10.70213648
Si       2.04823205      -1.69742409       9.63406548     -14.58816848     -15.86765370     -13.02460633
Si       2.97190379      -0.80382677       5.33128557      29.72497454      -9.15884748      -7.21365510
Si       1.07528448      -0.54433923       8.22763094       1.59487160     -21.15630136       7.97585267
Si       4.52414149       5.36106768       0.77277177      -4.83632240      -8.45032065       6.74302877
Si       1.69571306       0.79781604       3.77604974       1.77433638      10.18040988     -18.63823224
Si       0.03551006      -0.13822506       3.05932706      -2.54730135       6.82965721       1.46801240
18
Lattice="4.890520400543005 0.0030496845120031794 0.012583054825516317 -0.19273098064210545 8.067760782976544 -0.05201913000024726 -0.9960780520579455 -4.069647780771207 10.101072398724247" Properties=species:S:1:pos:R:3:forces:R:3 unique_starting_index=394 config_type=initial n_minim_iter=2 energy=-2860.9548831221255 stress="-0.3565738866749515 -0.38107389868738467 -0.41608409774756244 0.1401671543074176 -0.059061187913980816 -0.01244595952956138" pbc="T T T"
Si       0.99785281       0.81544597       7.58087145     -17.10595909       9.99072915     -23.49648660
Si       1.48556300       3.53632221       0.36742752      -1.37938803       2.91364999       2.37772216
Si       1.53811297      -1.25773340       6.14542645     -11.65004447      -2.79162988       5.81450187
Si       0.92580208       6.20547370       2.83545788      21.33465235      -3.76035799       5.22858197
Si       4.20709480       2.92509336       0.74554651      11.83393474       0.33054854      23.89931131
Si       4.27105035       6.19953861       2.31482750     -24.93132096      -0.12482014       1.54682577
Si       0.58071534       1.43487159       0.94631847       3.57315955      -5.13308067       2.06088878
Si       2.21039498       1.35310507       8.53369673      14.23860897       9.29437792      11.49979112
Si      -0.43874415       1.81173264       9.46859718       7.36955181       3.50817829     -15.09545833
Si       1.44072862      -2.68473000       6.99007695      -1.94031810     -11.53757527       8.31726234
Si       2.95026136      -0.07458534       9.62492730      -0.19420784      11.36189339     -11.16814660
Si       1.75980814       0.16438460       5.36098644     -11.15692490      17.20073378       8.89424667
Si       2.10445889      -1.79050122       9.83230390     -12.63965835     -13.31387699     -11.44521803
Si       3.03710070      -0.85179666       5.44492338      25.47386937      -7.58948886      -6.26805735
Si       1.11425574      -0.60895325       8.39123919       1.68698807     -17.80531952       6.79730467
Si       4.60327549       5.45332080       0.76515054      -3.79364584      -7.67991031       5.16405416
Si       1.73408306       0.78958016       3.84518873       1.51692344       8.77520626     -15.39959423
Si       0.04374740      -0.15984471       3.11862967      -2.23622074       6.36074231       1.27247032
18
Lattice="5.456330710399852 0.021557617331445338 0.11337984101816365 -0.18511889884478688 9.077229302912421 -0.4543399225893457 -0.9219743129673753 -5.0718261776860984 11.664145893146623" Properties=species:S:1:pos:R:3:forces:R:3 unique_starting_index=394 config_type=initial n_minim_iter=3 energy=-2901.9691100434306 stress="-0.08897970222095786 -0.0802084581918359 -0.0962457003285508 0.02619536597585221 -0.026094640093421193 0.00014378286431200992" pbc="T T T"
Si       1.25451331       0.56342487       8.57944265      -7.73371021       2.62593005      -8.36360239
Si       1.67721208       3.96837645       0.27846307      -0.26539324       0.51759088      -0.43721714
Si       1.82558065      -1.70992593       7.08600149      -3.17296270      -1.04103680       1.62144765
Si       1.13323482       6.84298062       2.94771511       7.80934628      -1.25869375       3.02734439
Si       4.73096228       3.26953578       0.81332094       4.51083701       1.05288551       8.77313489
Si       4.81358863       6.87764812       2.41931171      -9.29203984      -0.01213419       2.84174628
Si       0.67576801       1.56570355       1.02055890       1.47572757      -1.76181176       0.66770940
Si       2.65723172       1.12439710       9.69407710       6.26253696       2.59753266       5.00093228
Si      -0.28420767       1.58091315      10.65719278       2.92890262       1.26992678      -5.81238157
Si       1.73723569      -3.36445463       8.11669345      -0.38841306      -3.09388662       3.87649962
Si       3.48603277      -0.52878140      10.99823530      -0.29116664       1.86328952      -3.91137386
Si       2.06303743      -0.05346579       6.13126942      -3.81747010       5.66890625       1.96077093
Si       2.52888633      -2.49452657      11.30085476      -5.18928904      -4.08331562      -5.62878902
Si       3.51796494      -1.21711506       6.29012027       8.52335649      -2.97848598      -0.79597538
Si       1.41256263      -1.10417699       9.60181235       0.35344828      -6.28704291       2.08783012
Si       5.16875398       6.10779493       0.70405563      -1.36459317      -1.93400290       0.80558935
Si       2.01670715       0.71696002       4.35522003       0.22985202       3.50980046      -5.63946490
Si       0.10952138      -0.32530013       3.55595115      -0.57896922       3.34454842      -0.07420064
18
Lattice="5.783919392937612 0.01792846839905951 0.21961330467425194 -0.2043443702176308 9.57247828010971 -0.6496181851845334 -0.7689342158238455 -5.555107235503625 12.494369963081505" Properties=species:S:1:pos:R:3:forces:R:3 unique_starting_index=394 config_type=initial n_minim_iter=4 energy=-2909.5261973918523 stress="-0.022296088173829606 -0.020051939405229483 -0.032054523716326534 0.010680563519561675 -0.01295419616434585 0.001307285973737843" pbc="T T T"
Si       1.46949967       0.44298589       9.13341368      -4.23683286       0.78589004      -4.00210672
Si       1.78176768       4.17625471       0.25516685      -0.32510062      -0.38039858      -0.57447393
Si       2.05606525      -1.93314682       7.61180426      -0.91827651      -1.18082555       2.21663818
Si       1.26585613       7.15348391       3.04292691       3.48510796      -0.33550648       1.66546264
Si       5.03560913       3.42787541       0.90830579       2.22957304       0.27652699       4.41444806
Si       5.12960937       7.19962816       2.54448395      -4.29404006       0.27268922       2.85988527
Si       0.73663373       1.62791393       1.07256518       0.98149988      -0.66799976       0.04865145
Si       2.99893801       1.01071204      10.35914556       3.81944417       0.80619048       3.11715945
Si      -0.10707296       1.47557588      11.30511515       1.38641743       0.89767872      -3.06424585
Si       1.98539520      -3.69875028       8.74168425      -0.27340960      -0.47627524       2.20105056
Si       3.88937033      -0.75479637      11.77734735      -1.04105048       1.33366741      -2.48544340
Si       2.28972757      -0.16001037       6.56909771      -1.87395242       2.98384758       0.30747132
Si       2.87265181      -2.84019112      12.11517588      -3.37516798      -2.26075589      -3.47106140
Si       3.85330056      -1.40283452       6.78374612       3.90894842      -1.01968826      -0.76779609
Si       1.66878379      -1.34876394      10.27444225       0.54158459      -3.30990106       1.13647803
Si       5.48758852       6.41682002       0.73599202      -0.29933815      -1.27915622      -0.42632051
Si       2.21456482       0.68200939       4.65150474      -0.30296504       1.30404111      -2.82054390
Si       0.17858696      -0.40200521       3.79351109       0.58755822       2.24997549      -0.35525318
18
Lattice="5.946171101254634 0.003779158281347147 0.3221550535688211 -0.234215952112275 9.817274488211533 -0.8036167056599073 -0.5804140230165508 -5.860347976648961 13.050714530854473" Properties=species:S:1:pos:R:3:forces:R:3 unique_starting_index=394 config_type=initial n_minim_iter=5 energy=-2911.2922849010924 stress="0.0010532383544491948 0.0024060866298649224 -0.009660176907039662 0.0029243695280471165 -0.007009515051588297 0.00028569747306363846" pbc="T T T"
Si       1.64425007       0.33032148       9.50150383      -3.24032824       0.24112319      -2.24198109
Si       1.82775902       4.27117155       0.23822005      -0.46245171      -0.74739043      -0.53906369
Si       2.23620681      -2.09254252       7.97948365      -0.75186808      -1.07097595       1.60789968
Si       1.34913849       7.28397219       3.09688416       1.53917610       0.25813822       0.97423489
Si       5.19059417       3.48873747       0.99470217       2.22755812      -0.00701141       2.46672428
Si       5.29031447       7.33143767       2.64211467      -2.47135768       0.14325643       2.75719030
Si       0.77445131       1.65006966       1.10657360       0.90468777       0.25557301       0.43803756
Si       3.25794729       0.88947642      10.81587578       2.77149032      -0.12090303       2.18243521
Si       0.07324069       1.36185310      11.72443363       0.57538419       0.37865552      -2.34138709
Si       2.18609303      -3.91492012       9.17596662      -0.29731722       0.89608869       1.40265764
Si       4.18384688      -0.93690345      12.31038974      -1.13551249       0.92486647      -1.52965701
Si       2.45387110      -0.25003514       6.86861446      -1.01528138       2.18764009      -0.30175697
Si       3.14119045      -3.08549036      12.67034036      -2.67623571      -1.36849671      -2.04247935
Si       4.08080229      -1.53987180       7.13338915       2.57826700      -0.58731852      -1.14169938
Si       1.88405685      -1.53456673      10.73209896       0.52653451      -2.32328203       0.91178288
Si       5.63992160       6.55040305       0.76997480       0.33730650      -1.10433146      -0.70549123
Si       2.34790767       0.63567955       4.85470306      -0.51395263       0.37225416      -1.98846553
Si       0.24676695      -0.45767682       3.95058868       1.10390061       1.67211376       0.09101890
18
Lattice="5.940095254493715 -0.0027267067744203973 0.3942825569505087 -0.2446885461196731 9.783223412748509 -0.859378658469883 -0.4255714165672516 -5.907891095265412 13.27666153851609" Properties=species:S:1:pos:R:3:forces:R:3 unique_starting_index=394 config_type=initial n_minim_iter=6 energy=-2911.9243938278346 stress="0.0042494948314980895 0.005239270519852705 -0.006872736148665052 0.002215991075084461 -0.004936846071024762 0.0004814372322782639" pbc="T T T"
Si       1.74097667       0.27813981       9.66050783      -2.62997463       0.24685017      -1.61067218
Si       1.82512106       4.24939262       0.24330512      -0.55116181      -0.84730763      -0.47369541
Si       2.32451125      -2.13409628       8.14705996      -0.94226531      -0.81705423       1.21918406
Si       1.38775960       7.23768220       3.13580900       1.16415542       0.32106614       0.71933387
Si       5.20171374       3.46398895       1.06496063       1.87502912      -0.17759974       1.79965902
Si       5.30423135       7.28294191       2.72308132      -2.00866580       0.02490244       2.61674998
Si       0.78914192       1.63754211       1.12807723       0.96139767       0.46223712       0.46058992
Si       3.38953061       0.82278663      11.03110694       2.00637284      -0.27859178       1.56684182
Si       0.21135865       1.29523031      11.89814591       0.48941810       0.32495154      -2.25207590
Si       2.29019567      -3.94897499       9.36784429      -0.28815033       0.84116020       1.25935616
Si       4.31689651      -0.99953172      12.55122966      -0.99674333       0.71403778      -1.12052478
Si       2.52677651      -0.28076907       7.00416378      -0.87393388       2.08669564      -0.43669320
Si       3.27511330      -3.14828371      12.91275773      -2.17110434      -1.17913880      -1.36028644
Si       4.16617106      -1.57728570       7.29674409       2.47223573      -0.47945288      -1.18705550
Si       2.00919859      -1.59690237      10.93602411       0.45198471      -2.01618955       0.92368563
Si       5.63951278       6.51259621       0.81706760       0.43788193      -0.97191932      -0.57359430
Si       2.39827269       0.60729519       4.94818165      -0.53772221       0.10423271      -1.71016260
Si       0.29649270      -0.47196087       4.01817681       1.14124611       1.64112021       0.15935985
18
Lattice="5.859321290414378 -0.019217518042313527 0.5041665335739733 -0.26859060834039594 9.611465265515859 -0.9466772279565813 -0.1693850336527627 -5.9222388340007015 13.637877382263204" Properties=species:S:1:pos:R:3:forces:R:3 unique_starting_index=394 config_type=initial n_minim_iter=7 energy=-2912.878626844849 stress="0.003787406945992291 0.005185666841537479 -0.004889440920837771 0.0025741752655963034 -0.0018716672715218083 0.0005678141869618553" pbc="T T T"
Si       1.87071486       0.18302826       9.91201459      -1.71588911       0.28072943      -0.86537706
Si       1.79296940       4.15943352       0.24980844      -0.68411026      -0.79664217      -0.29253943
Si       2.43627702      -2.18342000       8.41321191      -1.45365569      -0.35708225       0.76889842
Si       1.42496506       7.07320357       3.19867841       1.06219101       0.25628795       0.35164142
Si       5.15549678       3.37509607       1.17487151       1.17139640      -0.35032681       1.13342113
Si       5.25515381       7.10856708       2.85417868      -1.66861880      -0.23561155       2.26713896
Si       0.80350460       1.59773319       1.16352704       1.02466947       0.56486082       0.13649715
Si       3.55625563       0.69287261      11.37402356       0.98716320      -0.25902910       0.80984804
Si       0.42516052       1.16495243      12.17129587       0.49797289       0.39882975      -2.01823896
Si       2.43160317      -3.96438052       9.67413580      -0.24423718       0.31005227       1.13513021
Si       4.47514811      -1.10112227      12.93164222      -0.74070769       0.51638996      -0.73852327
Si       2.61080105      -0.33092678       7.21561257      -0.83683481       1.97857803      -0.49916151
Si       3.44942829      -3.22458576      13.29742338      -1.48347064      -1.12225095      -0.72403136
Si       4.25626994      -1.62749488       7.55225115       2.57496931      -0.35413064      -1.24201173
Si       2.18577671      -1.68984427      11.26375441       0.26342289      -1.52436763       0.95771549
Si       5.56563510       6.36646961       0.88828376       0.40632400      -0.81493869      -0.37580504
Si       2.44667656       0.54772186       5.09290158      -0.33886563      -0.20150716      -1.12518731
Si       0.37440223      -0.48999048       4.12676108       1.17828064       1.71015873       0.32058485
18
Lattice="5.698811664350447 -0.05356543195192778 0.5979020249352397 -0.3186876551353275 9.256770054307 -1.153940392678428 0.08483301994584935 -5.992187003653955 14.27122946916495" Properties=species:S:1:pos:R:3:forces:R:3 unique_starting_index=394 config_type=initial n_minim_iter=8 energy=-2914.022019564801 stress="-0.0028631562667540624 0.0006443804739954755 -0.00235924208388945 0.0023707958448562516 -0.0005058631636182426 -0.0009371842298730732" pbc="T T T"
Si       1.94934039      -0.04407423      10.29582646      -0.91843368       0.20508047      -0.10524742
Si       1.71601147       3.97279341       0.20470950      -0.92333893      -0.08572303       0.01015478
Si       2.49371883      -2.30207375       8.82245386      -1.93875397       0.11080064       0.37604436
Si       1.42229410       6.72133044       3.22815046       1.19872145      -0.02243879       0.12387785
Si       5.03275359       3.18608295       1.25457151       0.30428410      -0.23931601       0.50721831
Si       5.10070086       6.73429106       2.94927098      -1.66042455      -1.08397491       1.20098753
Si       0.80821049       1.51363262       1.19527333       0.96490376       0.58388314      -0.51021356
Si       3.65453833       0.39162629      11.87115013       0.23672373      -0.22382731       0.37065236
Si       0.60829358       0.86006519      12.59155893       0.30700376       0.33460556      -1.36857455
Si       2.53700446      -4.03286183      10.17224642      -0.12340446      -0.35307098       1.01693945
Si       4.54899013      -1.35279433      13.49320824      -0.35263194       0.63429467      -0.67550369
Si       2.64017032      -0.45711471       7.51643207      -0.88142710       1.75533075      -0.20382643
Si       3.55744878      -3.42133072      13.90099666      -0.50068793      -1.39780784      -0.48220721
Si       4.30000456      -1.75067431       7.91348108       2.53863497      -0.31220176      -1.19397819
Si       2.32209255      -1.90888653      11.78587038      -0.23722130      -0.87954329       0.87705551
Si       5.39707205       6.06336801       0.87906461       0.36358994      -0.67183729      -0.32310099
Si       2.44858192       0.40415567       5.29022418       0.53056044      -0.41997645      -0.27529655
Si       0.45169130      -0.53978747       4.30521624       1.09190171       2.06572243       0.65501843
18
Lattice="5.825785581319625 -0.020457093601033267 0.6318608937654154 -0.26927671877597703 9.231872359814268 -1.3431501390843277 0.10109088805632793 -6.221747452983253 14.639226500692438" Properties=species:S:1:pos:R:3:forces:R:3 unique_starting_index=394 config_type=initial n_minim_iter=9 energy=-2914.5413721132322 stress="0.010120135893888263 0.01106402941924946 0.006326944070924322 -0.0013490934182449979 -0.0011592177081639044 -0.0008805190775687242" pbc="T T T"
Si       2.01601028      -0.21141965      10.48505282      -0.58869076      -0.02211961       0.32895169
Si       1.76638488       3.96271939       0.14073132      -1.31009600      -0.20564798       0.15737345
Si       2.53802458      -2.43101321       9.03489869      -1.14695125       0.07871967       0.03527578
Si       1.52865677       6.64099977       3.17816463       0.44233828       0.39395793      -0.15693335
Si       5.17541667       3.18125422       1.25249627       0.52244928      -0.43483251      -0.19924453
Si       5.24709788       6.66818249       2.92586008      -0.86203243      -1.03194479       1.26462959
Si       0.85318081       1.50143788       1.18278122       0.88969870       1.19280132      -0.94867286
Si       3.78704754       0.19802329      12.10398141      -0.18668565      -0.40890422       0.11915088
Si       0.67441811       0.64340604      12.77754348       0.08984611       0.12344478      -0.67122962
Si       2.60636128      -4.18805361      10.46288076      -0.11511260       0.21641108       0.53788886
Si       4.68267176      -1.54347372      13.76216442      -0.33110022       0.42402777      -0.50633043
Si       2.70843756      -0.54379149       7.65668106      -0.21490843       1.21638485       0.30268798
Si       3.65653820      -3.64787005      14.22308247      -0.31529300      -0.81385712      -0.28874564
Si       4.44760805      -1.85329868       8.09023046       1.31998150      -0.05755913      -0.95504744
Si       2.40470597      -2.11195496      12.06550748      -0.28894366      -0.58150642       0.99600084
Si       5.56333519       6.05180084       0.80377657       0.71332271      -0.62583507      -0.65134270
Si       2.53223680       0.32008077       5.38637276       0.26404843      -0.83568556       0.01859087
Si       0.49257348      -0.58462735       4.40429661       1.11812898       1.37214502       0.61699664
18
Lattice="5.713856127325553 -0.010670386147696796 0.6352394251777244 -0.24862728879519358 9.032259021843187 -1.2942802977734036 0.12336413009367808 -6.063757080786142 14.439883464772652" Properties=species:S:1:pos:R:3:forces:R:3 unique_starting_index=394 config_type=initial n_minim_iter=10 energy=-2914.7809590924853 stress="-0.001903064611452041 -0.003183208609221772 -0.0018568177101628007 0.002589787057104316 -0.001386414755636318 7.349498499460518e-05" pbc="T T T"
Si       2.00079188      -0.18644621      10.36247812      -0.63283999       0.02905472       0.05646640
Si       1.73554685       3.88013216       0.15649961      -1.23104293       0.43311646       0.21501388
Si       2.50205571      -2.35971914       8.92070394      -1.29455345       0.36803719       0.09614092
Si       1.52192777       6.50850524       3.16555029       1.13909238      -0.27874709       0.02493665
Si       5.08608811       3.12152101       1.25848955      -0.14437046       0.00220149       0.07309520
Si       5.16376749       6.53341571       2.93155725      -1.30331749      -1.28002005       1.00602986
Si       0.84504934       1.47786914       1.16983815       1.06519037       0.47601824      -0.61756534
Si       3.74362292       0.21837957      11.96631251       0.05418524      -0.11178009       0.36170837
Si       0.69452913       0.65374276      12.62277936       0.23308933       0.08972124      -1.14930397
Si       2.57347517      -4.07687161      10.32872631      -0.09495619      -0.55281672       0.96992905
Si       4.62125339      -1.47819198      13.59544818      -0.26124922       0.56002570      -0.62679994
Si       2.67323362      -0.51119571       7.56729817      -0.68995265       1.53614933      -0.03597065
Si       3.61234046      -3.54300660      14.04384112       0.00104424      -1.36758237      -0.45090874
Si       4.38178302      -1.79282189       7.99022341       1.69728705      -0.29442610      -1.00075024
Si       2.38382616      -2.04592125      11.92221805      -0.38762125      -0.66579421       0.93637225
Si       5.47149687       5.93041903       0.82418241       0.39039517      -0.57384221      -0.46952327
Si       2.49823339       0.32308016       5.32840794       0.71614827      -0.44860295      -0.08567388
Si       0.49761983      -0.55977897       4.35265267       0.74347159       2.07928743       0.69680344
18
Lattice="5.730055707364336 -0.013095135203775256 0.6488997114066527 -0.2532770667664071 9.076468441185307 -1.335329629691287 0.15004844092284575 -6.135673454291275 14.501483269804277" Properties=species:S:1:pos:R:3:forces:R:3 unique_starting_index=394 config_type=initial n_minim_iter=11 energy=-2914.8879592992394 stress="0.0005738998730545381 0.0009877734063526327 0.00018820538361368925 0.0013573811524376202 -0.0010813784559635209 -0.00048453090848125273" pbc="T T T"
Si       2.02244537      -0.21960445      10.39328961      -0.55400371      -0.02379494       0.13160995
Si       1.73631350       3.89780194       0.14420035      -1.26879609       0.30395849       0.22399001
Si       2.52107963      -2.39719782       8.95734180      -1.25022363       0.24928744       0.11298022
Si       1.53346083       6.52667502       3.15096202       0.95892565      -0.11098159      -0.00767111
Si       5.10075878       3.13108192       1.25966482      -0.01024909      -0.11420220      -0.00569113
Si       5.17834917       6.54887658       2.92702006      -1.14174469      -1.19247954       1.03722906
Si       0.85159088       1.48243500       1.16632279       0.99333133       0.72186955      -0.73953092
Si       3.77475132       0.18125139      12.00496135      -0.02527269      -0.16596817       0.33220428
Si       0.71812653       0.61847648      12.64876895       0.20067346       0.08077103      -1.04765994
Si       2.59950105      -4.12956545      10.38121574      -0.10661896      -0.26222767       0.78246738
Si       4.65626665      -1.52541045      13.64231439      -0.28474318       0.47711920      -0.56384130
Si       2.69154328      -0.53312008       7.59219437      -0.54965355       1.35322091       0.09002816
Si       3.64683123      -3.60593721      14.10069064      -0.04443758      -1.20388893      -0.41306196
Si       4.41175243      -1.82601360       8.02432204       1.53558043      -0.20732893      -1.02265934
Si       2.41089992      -2.09478302      11.96969359      -0.36405919      -0.61082355       0.95070264
Si       5.48705428       5.95270218       0.81214507       0.44924317      -0.59671650      -0.48641494
Si       2.51604839       0.30661388       5.34624313       0.66021178      -0.52446748      -0.05329731
Si       0.50909520      -0.57101732       4.36856173       0.80183654       1.82665288       0.67861624
18
Lattice="5.726166342154685 -0.01029764460323249 0.6583918207047832 -0.24851098608223907 9.06555232195488 -1.3547743735581466 0.16808218838791533 -6.154675427101956 14.51062599966444" Properties=species:S:1:pos:R:3:forces:R:3 unique_starting_index=394 config_type=initial n_minim_iter=12 energy=-2914.980495181102 stress="0.0005648534271179523 0.0010926826825297842 0.0002334800896152746 0.0012503998072386892 -0.0009980321052647186 -0.0005285934098210512" pbc="T T T"
Si       2.03520408      -0.23816167      10.39431148      -0.51478736      -0.04977179       0.14253841
Si       1.73419554       3.89375726       0.13849397      -1.28101278       0.33641071       0.22976784
Si       2.52742974      -2.40859022       8.96342908      -1.21771581       0.22972938       0.11853784
Si       1.54476153       6.51169808       3.13945740       0.95129215      -0.10989341       0.00932019
Si       5.10063054       3.12731763       1.26126634      -0.04280741      -0.10663998      -0.01999794
Si       5.18066272       6.53298731       2.92560401      -1.10253414      -1.18522727       1.01533306
Si       0.85619212       1.48125016       1.16113491       0.98280585       0.73555435      -0.75406178
Si       3.79059127       0.15959961      12.00900300      -0.03673172      -0.15867492       0.34597487
Si       0.73753823       0.59471261      12.64050206       0.20337661       0.06926866      -1.05397199
Si       2.61075381      -4.14324176      10.39494675      -0.11069767      -0.21234952       0.73910605
Si       4.67116259      -1.54446365      13.64635245      -0.28651952       0.45216510      -0.55244180
Si       2.69902637      -0.54137634       7.59441141      -0.53373063       1.29339049       0.11527194
Si       3.66272911      -3.62844822      14.10969380       0.00034512      -1.17884599      -0.41702552
Si       4.42309784      -1.83553888       8.03022347       1.47644920      -0.19646719      -1.03983035
Si       2.42564604      -2.11578371      11.97914357      -0.37406355      -0.58747284       0.95262665
Si       5.48902575       5.94497434       0.80719027       0.43724203      -0.60009405      -0.46697826
Si       2.52447315       0.29609316       5.34900451       0.68389522      -0.51192308      -0.04461134
Si       0.51790485      -0.57377620       4.37126257       0.76519445       1.78084135       0.68044214
18
Lattice="5.683417688770882 0.024998717972703918 0.7554168206534674 -0.18863234666717224 8.927341717351212 -1.5513924613854069 0.3475604404571806 -6.334550770199716 14.593702105875202" Properties=species:S:1:pos:R:3:forces:R:3 unique_starting_index=394 config_type=initial n_minim_iter=13 energy=-2915.899403017911 stress="0.0010016626784661777 0.000890491268630985 0.002082476942880845 0.0007300139333650458 -0.00039909577124421424 -0.0005037593635357411" pbc="T T T"
Si       2.16619078      -0.42888106      10.39909944      -0.12732732      -0.24930185       0.19101611
Si       1.71241404       3.84426962       0.07920638      -1.26169809       0.61565614       0.18763051
Si       2.58712849      -2.51770021       9.01860603      -0.86646914       0.12556642       0.24997052
Si       1.67112152       6.34005242       3.02322363       0.90479628      -0.11336793       0.16798455
Si       5.09939479       3.08549673       1.27670723      -0.42551941       0.05602494      -0.18234847
Si       5.20926751       6.35184665       2.91542812      -0.87305036      -1.09461643       0.85041355
Si       0.90639393       1.46954414       1.10308554       0.97517397       0.57924783      -0.70510144
Si       3.95320819      -0.06194032      12.04519461      -0.09225989      -0.07123786       0.48416024
Si       0.93785776       0.34938928      12.54248656       0.21058152      -0.05958385      -1.10527300
Si       2.72158819      -4.27069527      10.52967583      -0.17449678       0.15925743       0.36429175
Si       4.81997814      -1.73138082      13.67543703      -0.31701612       0.26302916      -0.50956062