16
Lattice="2.4725724358410335 0.4815823272473401 -0.5005834562776639 1.0346567718211899 6.079191373459183 -2.1640368791655935 -3.9104700382789304 -4.454052374411108 25.49315076914466" Properties=species:S:1:pos:R:3:forces:R:3 unique_starting_index=140 config_type=initial n_minim_iter=1 energy=-2603.747497439734 stress="-0.0003163609895097824 -5.891418402051305e-05 -0.00011125339661781867 -5.891418402051305e-05 9.778802584734929e-05 -3.2357005608652244e-05 -0.00011125339661781867 -3.2357005608652244e-05 -0.00025812822029429365" free_energy=-2603.747497439734 pbc="T T T"
Si       1.89036531       3.82628420       0.92600356       0.00451494      -0.00777591      -0.00246515
Si       0.43070684       1.25424990       4.34832845      -0.01018454       0.00627767       0.02650046
Si       1.05171542       0.16963822       6.39098622      -0.00293356       0.00522497      -0.02629399
Si       0.39225527       3.41693596       6.30648665      -0.01087478       0.04240804      -0.02767696
Si       0.28967761       1.75878990      16.50045403      -0.00099603      -0.00646371      -0.01824189
Si       0.28696546      -0.06761432       2.37597661      -0.00074378       0.01590267       0.00224468
Si      -0.58777185       1.63613266      12.59592690       0.00314215       0.01842539       0.00311046
Si      -0.24039588       2.27143310      18.84308862      -0.00061866      -0.02550595       0.03241351
Si       1.05243632       2.01528929       8.16798941       0.00879374      -0.03838452      -0.01457096
Si      -0.02848782      -0.55783783      13.17779076      -0.00571832       0.00298314       0.01020280
Si      -0.13919640       3.51833449       3.79297751       0.01745206       0.00325662       0.00881348
Si      -0.39632720       2.98755406      14.54107074       0.00240766      -0.01949591      -0.01121205
Si       2.12502620       1.65916297      -0.08135349       0.00388492      -0.00852910      -0.00003674
Si      -1.23402650       2.82617689      10.68285090       0.00850911       0.00806170       0.02990645
Si      -0.81193989      -0.59415518       9.68080230      -0.00092682       0.00630945      -0.01443957
Si      -1.99354757      -0.90790692      16.00307666      -0.01570812      -0.00269455       0.00174547
16
Lattice="2.473446830118885 0.48167775443733474 -0.5003964031130921 1.0351718310013975 6.078492498116616 -2.1643226917406615 -3.908921332407852 -4.4528594061207745 25.500101769325042" Properties=species:S:1:pos:R:3:forces:R:3 unique_starting_index=140 config_type=initial n_minim_iter=2 energy=-2603.7475584014037 stress="0.0001487920799243011 2.901249144532523e-05 -4.874155708005282e-05 2.901249144532523e-05 0.00022475082712597477 3.856878141234619e-05 -4.874155708005282e-05 3.856878141234619e-05 0.00028661552189109863" free_energy=-2603.7475584014037 pbc="T T T"
Si       1.89145378       3.82598824       0.92665908       0.00580454      -0.00716657       0.00397563
Si       0.43147610       1.25432155       4.34982101      -0.00961034       0.00187163       0.02416375
Si       1.05292609       0.16994803       6.39294961      -0.00356382       0.00697135      -0.02762237
Si       0.39340802       3.41695612       6.30845680      -0.01013672       0.04036491      -0.02600080
Si       0.29202698       1.75920699      16.50542863      -0.00144266      -0.00354544      -0.01512692
Si       0.28736970      -0.06744405       2.37672905      -0.00111161       0.02031583       0.00461579
Si      -0.58624154       1.63644191      12.59968895       0.00286030       0.02255835       0.00360180
Si      -0.23790255       2.27177914      18.84888652      -0.00313486      -0.02844938       0.02126534
Si       1.05404204       2.01530874       8.17059316       0.00785097      -0.03443157      -0.01467768
Si      -0.02685737      -0.55727259      13.18174071      -0.00359164       0.00298313       0.01757823
Si      -0.13845921       3.51807981       3.79425539       0.01674597       0.00373603       0.00385637
Si      -0.39438633       2.98766753      14.54544104       0.00472476      -0.02484586      -0.00605091
Si       2.12592081       1.65908810      -0.08104188       0.00414275      -0.01212199      -0.00169557
Si      -1.23288012       2.82620042      10.68609328       0.00914940       0.00394611       0.02908831
Si      -0.81103344      -0.59375907       9.68352072      -0.00187550       0.00596793      -0.01605558
Si      -1.99233089      -0.90734952      16.00757621      -0.01681154       0.00184554      -0.00091540
16
Lattice="2.473898634772885 0.48149471085585477 -0.49963577890044514 1.0350451514672352 6.0748617095515645 -2.1638640966155522 -3.902780208864713 -4.450874725401455 25.495508998866402" Properties=species:S:1:pos:R:3:forces:R:3 unique_starting_index=140 config_type=initial n_minim_iter=3 energy=-2603.747646617812 stress="0.00021008086491620297 0.0001443838076938421 -4.251954459340946e-05 0.0001443838076938421 -0.0003990397934194958 -4.1612638498929314e-05 -4.251954459340946e-05 -4.1612638498929314e-05 -0.00011427287522813391" free_energy=-2603.747646617812 pbc="T T T"
Si       1.89236689       3.82362091       0.92698855       0.00596465      -0.00396368       0.00602081
Si       0.43275415       1.25351314       4.34957422      -0.00874351      -0.00004297       0.02451048
Si       1.05495434       0.16980684       6.39205437      -0.00379510       0.00953621      -0.02618789
Si       0.39531355       3.41517913       6.30731472      -0.00853267       0.03152350      -0.02658949
Si       0.29683187       1.75771153      16.50297159      -0.00285916       0.00197122      -0.00959499
Si       0.28809734      -0.06724872       2.37651583      -0.00168747       0.01991492       0.00134502
Si      -0.58270707       1.63534993      12.59774947       0.00268834       0.01996560      -0.00100350
Si      -0.23254339       2.26965572      18.84639942      -0.00288208      -0.02747310       0.01872049
Si       1.05677378       2.01354106       8.16953926       0.00575237      -0.02517698      -0.01472003
Si      -0.02319831      -0.55720192      13.18004482      -0.00341396       0.00455727       0.01795407
Si      -0.13708920       3.51587081       3.79366774       0.01662905       0.00473595      -0.00017076
Si      -0.39019371       2.98524833      14.54312454       0.00579493      -0.02149421       0.00093834
Si       2.12650192       1.65804765      -0.08047584       0.00510292      -0.01748240      -0.00168831
Si      -1.22992668       2.82423776      10.68449303       0.00868400      -0.00076782       0.02271520
Si      -0.80851617      -0.59358413       9.68177757      -0.00265807       0.00643416      -0.00919308
Si      -1.98846768      -0.90724346      16.00478381      -0.01604424      -0.00223764      -0.00305635
16
Lattice="2.4723801604225555 0.48000323062888217 -0.49686310747525214 1.0288564097521282 6.073861779519815 -2.162156896953187 -3.8706417957632926 -4.445247433774664 25.493330238074172" Properties=species:S:1:pos:R:3:forces:R:3 unique_starting_index=140 config_type=initial n_minim_iter=4 energy=-2603.7478239936786 stress="-0.00046323317648512227 -0.00010635143443200429 0.0004712595426167498 -0.00010635143443200429 -8.68266983420235e-05 1.9364484430045112e-05 0.0004712595426167498 1.9364484430045112e-05 0.00032930940201811597" free_energy=-2603.7478239936786 pbc="T T T"
Si       1.89095400       3.82226349       0.92981964       0.00621853       0.00338895       0.01028610
Si       0.43631503       1.25393566       4.35191166      -0.01046123       0.00213489       0.01015143
Si       1.06154279       0.17037530       6.39263822      -0.00279005       0.00919804      -0.02101990
Si       0.39981163       3.41757260       6.30757407      -0.00284735       0.01552411      -0.01309418
Si       0.31410995       1.75949991      16.50460589      -0.00530615       0.00250566      -0.00973026
Si       0.29065668      -0.06618885       2.37722752       0.00076928       0.01382688       0.00761009
Si      -0.56925603       1.63827791      12.59877475       0.00683150       0.00132632      -0.00082629
Si      -0.21281480       2.27085268      18.84964880      -0.00587980      -0.02890805       0.00572707
Si       1.06482989       2.01234063       8.17114812       0.00018203      -0.00169869      -0.01596038
Si      -0.00834043      -0.55530329      13.18211992      -0.00507233       0.01535689       0.01704396
Si      -0.13399732       3.51655528       3.79458933       0.01761152       0.00192410      -0.00851278
Si      -0.37532650       2.98621099      14.54437004       0.00654353      -0.00629841       0.01260481
Si       2.12508578       1.65617334      -0.07795041       0.00551330      -0.01716426       0.00054213
Si      -1.21882673       2.82645564      10.68598256       0.00578566      -0.00756066       0.00544820
Si      -0.79721582      -0.59155278       9.68118358      -0.00583957       0.00567231      -0.00201269
Si      -1.97029538      -0.90405414      16.00414075      -0.01125887      -0.00922809       0.00174271
16
Lattice="2.474028031143532 0.4796700427214803 -0.49734844376139514 1.0289015458993673 6.076422743683041 -2.160928002355672 -3.8802980997791616 -4.4448848050973035 25.480607860433988" Properties=species:S:1:pos:R:3:forces:R:3 unique_starting_index=140 config_type=initial n_minim_iter=5 energy=-2603.7480456211706 stress="0.00012274238595199902 -8.233769392227889e-05 0.00018032599171906148 -8.233769392227889e-05 0.00016660340419114193 3.19400141856612e-05 0.00018032599171906148 3.19400141856612e-05 -0.0001677836823888093" free_energy=-2603.7480456211706 pbc="T T T"
Si       1.89125623       3.82359222       0.92911785       0.00326688       0.00410934      -0.00187666
Si       0.43459436       1.25481921       4.35033084      -0.01333369       0.01038957      -0.00236658
Si       1.06003223       0.17092278       6.38796211       0.00039572       0.00214558      -0.01293112
Si       0.39701303       3.42077063       6.30341402      -0.00004377       0.01348724      -0.00057384
Si       0.30859087       1.76130120      16.49529748      -0.00133045      -0.00181775       0.00625299
Si       0.29006970      -0.06548036       2.37598698       0.00457387       0.00110799       0.01542697
Si      -0.57385966       1.64063177      12.59236293       0.01055391      -0.01683881       0.00278703
Si      -0.21954602       2.27223787      18.84050775      -0.00456808      -0.03091208      -0.00116698
Si       1.06270309       2.01263840       8.16602964      -0.00075349       0.00740535      -0.01496688
Si      -0.01257903      -0.55450600      13.17559095      -0.00959283       0.01740134      -0.00043564
Si      -0.13543515       3.51865436       3.79289478       0.01749568      -0.00075659      -0.00370174
Si      -0.38067016       2.98798449      14.53681466       0.00037196       0.01424203       0.00567610
Si       2.12628905       1.65601846      -0.07850579       0.00288665      -0.00251089       0.00370027
Si      -1.22332339       2.82883783      10.68167116       0.00145993      -0.00283098      -0.01050954
Si      -0.80077745      -0.59081137       9.67580458      -0.00529374       0.00400415      -0.00278345
Si      -1.97702051      -0.90310065      15.99611540      -0.00608857      -0.01862549       0.01746907
16
Lattice="2.4734377074810263 0.4800782564073059 -0.5001796494206465 1.0318085913722814 6.074919400671048 -2.1639919532367737 -3.904612697991121 -4.44679161508855 25.50187948540958" Properties=species:S:1:pos:R:3:forces:R:3 unique_starting_index=140 config_type=initial n_minim_iter=6 energy=-2603.7481786708313 stress="1.3380754544384848e-05 -3.278434463929538e-05 -0.00013706013885506763 -3.278434463929538e-05 -0.00013166583111669513 8.155643676759584e-05 -0.00013706013885506763 8.155643676759584e-05 2.8080001498853595e-05" free_energy=-2603.7481786708313 pbc="T T T"
Si       1.89036722       3.82265845       0.92753068       0.00329053       0.00259492       0.00288777
Si       0.42998007       1.25426648       4.35303226      -0.01213398       0.00498836      -0.00862853
Si       1.05317736       0.17062349       6.39052242       0.00112474       0.00320382      -0.00959401
Si       0.39113541       3.41991761       6.30644904       0.00114004       0.00863282      -0.00024213
Si       0.29240079       1.75913068      16.50567826      -0.00020423       0.00025911       0.01889097
Si       0.28761209      -0.06530413       2.37756779       0.00405930       0.00354121       0.01801479
Si      -0.58551302       1.63880950      12.60122105       0.00773483      -0.01116265       0.00214694
Si      -0.23775516       2.26869527      18.85339170      -0.00243921      -0.03045367      -0.01102803
Si       1.05461395       2.01105570       8.16974907      -0.00077002       0.01756154      -0.01317289
Si      -0.02595373      -0.55529104      13.18471154      -0.00873336       0.00920361       0.00229273
Si      -0.13785733       3.51718769       3.79518156       0.01013660       0.00120522      -0.00761727
Si      -0.39418462       2.98538660      14.54663639       0.00065066       0.00874249       0.00825574
Si       2.12581524       1.65566051      -0.08079437       0.00191577      -0.00303014       0.00191526
Si      -1.23257334       2.82661411      10.68997419       0.00015532      -0.00455746      -0.01852512
Si      -0.81022528      -0.59158117       9.68287659       0.00195514       0.00274175       0.00038642
Si      -1.99246648      -0.90510793      16.00906313      -0.00788215      -0.01347093       0.01401735
16
Lattice="2.4734188679326032 0.4811076881559631 -0.5001038518561584 1.033265179797838 6.077577644593571 -2.1663749879012815 -3.902928052805203 -4.45951848180978 25.503109102258477" Properties=species:S:1:pos:R:3:forces:R:3 unique_starting_index=140 config_type=initial n_minim_iter=7 energy=-2603.7482653956586 stress="5.574743006035485e-05 -1.1739140508603822e-05 -7.682905298908592e-05 -1.1739140508603822e-05 -3.367270781056693e-05 -0.00014840341223117947 -7.682905298908592e-05 -0.00014840341223117947 1.6433303014249546e-05" free_energy=-2603.7482653956586 pbc="T T T"
Si       1.89160652       3.82374601       0.92621862       0.00269926       0.00762958       0.00192742
Si       0.43045716       1.25304924       4.35265027      -0.01001149       0.00898634      -0.00283058
Si       1.05386356       0.16846099       6.39003991       0.00037645       0.00404429      -0.01127975
Si       0.39270706       3.41881860       6.30476100       0.00371401       0.00195945       0.00306316
Si       0.29466483       1.75279118      16.50499247      -0.00170150       0.00179112       0.01382007
Si       0.28791284      -0.06597289       2.37797255       0.00310527      -0.00113870       0.01067310
Si      -0.58343774       1.63377632      12.60045213       0.00592806      -0.01025296      -0.00428873
Si      -0.23512016       2.26051409      18.85237504      -0.00210254      -0.02570036      -0.00505508
Si       1.05609472       2.00843459       8.16855470      -0.00257034       0.01724732      -0.01623142
Si      -0.02488270      -0.56059753      13.18504186      -0.00819509       0.00786663       0.00273920
Si      -0.13600961       3.51648000       3.79358912       0.00911717      -0.00043011      -0.00769431
Si      -0.39165886       2.97997124      14.54536751       0.00117355       0.01121724       0.01251452
Si       2.12628408       1.65650291      -0.08120819       0.00358165      -0.00785745       0.00536909
Si      -1.23044193       2.82247529      10.68855508       0.00157300      -0.00676934      -0.01219415
Si      -0.80933446      -0.59583036       9.68282506       0.00084751       0.01068903       0.00005356
Si      -1.99119301      -0.91281737      16.00938596      -0.00753497      -0.01928208       0.00941391
16
Lattice="2.4731016737975184 0.4832341197327948 -0.4987803595495042 1.036916335747267 6.081030484789116 -2.1644654899206066 -3.894170119219858 -4.46119519908559 25.493796006442032" Properties=species:S:1:pos:R:3:forces:R:3 unique_starting_index=140 config_type=initial n_minim_iter=8 energy=-2603.74840463293 stress="-3.0621280527061775e-05 0.00017237688014255998 7.71682751314327e-05 0.00017237688014255998 0.00013829743422524 4.575077968952713e-05 7.71682751314327e-05 4.575077968952713e-05 -7.737700552039081e-05" free_energy=-2603.74840463293 pbc="T T T"
Si       1.89510115       3.82735003       0.92758747       0.00421564       0.00253978      -0.00481078
Si       0.43224393       1.25519173       4.35230945      -0.00675343       0.00922589      -0.01153574
Si       1.05661568       0.17074775       6.38718131       0.00241759      -0.00031110      -0.00226587
Si       0.39800226       3.42339503       6.30288696       0.00579872       0.00127336       0.00676538
Si       0.30333500       1.75612676      16.50129522      -0.00328205      -0.01139466       0.00524724
Si       0.28910388      -0.06471235       2.37854251       0.00342038      -0.00679320       0.01146597
Si      -0.57568656       1.63569775      12.59707390       0.00475316       0.00117532       0.00137175
Si      -0.22502345       2.26122464      18.84780079      -0.00125379      -0.01954560       0.00568288
Si       1.06132680       2.01135140       8.16563078      -0.00553002       0.02153249      -0.01132803
Si      -0.02006654      -0.55814999      13.18204531      -0.00336334      -0.01134717       0.00200491
Si      -0.13011430       3.51873995       3.79264387       0.00622475       0.00445596      -0.00593400
Si      -0.38240911       2.98314307      14.54214492       0.00249664       0.00298355       0.00571621
Si       2.12749228       1.65822145      -0.07979698       0.00084370       0.00159088       0.00255544
Si      -1.22276329       2.82412300      10.68542224      -0.00169903       0.00173896      -0.01544283
Si      -0.80536895      -0.59482258       9.67929732       0.00032265       0.00963369       0.00169390
Si      -1.98530149      -0.91373781      16.00485913      -0.00861156      -0.00675814       0.00881357
16
Lattice="2.4734434008599724 0.4808678096710654 -0.49936207331832283 1.0316446793850969 6.078450197721256 -2.1674706659782244 -3.89352927618559 -4.464696108380076 25.50483295944373" Properties=species:S:1:pos:R:3:forces:R:3 unique_starting_index=140 config_type=initial n_minim_iter=9 energy=-2603.7486226331557 stress="-4.8662986865080136e-05 -5.614883580489491e-05 4.5019250245880554e-05 -5.614883580489491e-05 5.875275225149801e-05 -0.00020547671452115308 4.5019250245880554e-05 -0.00020547671452115308 8.918412040335236e-05" free_energy=-2603.7486226331557 pbc="T T T"
Si       1.89272063       3.82396720       0.92661088       0.00235579       0.00475102      -0.00517362
Si       0.42884161       1.25394997       4.35385797      -0.00081718       0.01049296      -0.00408650
Si       1.05611179       0.16819109       6.38662372       0.00327961       0.00180359       0.00067031
Si       0.39408753       3.42234366       6.30270880       0.00892101      -0.01319563       0.01213824
Si       0.29984306       1.74889426      16.50722310      -0.00685076      -0.01220033      -0.00182959
Si       0.28945914      -0.06479507       2.38141839       0.00065696      -0.01386916      -0.00615228
Si      -0.57750245       1.63114456      12.60121857      -0.00168579       0.01267388      -0.00995904
Si      -0.22951724       2.24889431      18.85459339       0.00326725      -0.00530110       0.01839945
Si       1.05902313       2.00717139       8.16507501      -0.00447106       0.02570901      -0.01188959
Si      -0.02199672      -0.56158321      13.18814439      -0.00011731      -0.02673622       0.00633438
Si      -0.13153257       3.51656169       3.79206706      -0.00104891       0.00756005      -0.00819234
Si      -0.38630449       2.97718520      14.54721945       0.00344256      -0.00530139       0.01252755
Si       2.12712888       1.65440182      -0.08025025       0.00185727      -0.00490954       0.00777269
Si      -1.22630782       2.82016876      10.68791090       0.00168795      -0.00141118      -0.00551930
Si      -0.80611643      -0.59599064       9.68234862      -0.00091596       0.02443774       0.00314174
Si      -1.98847830      -0.91901961      16.01261387      -0.00956143      -0.00450370      -0.00818211
16
Lattice="2.474073691912208 0.47956962426899186 -0.49910008708621134 1.0300588138732405 6.074848286692832 -2.163173787234206 -3.8946406586883753 -4.4452225577809426 25.498108482446458" Properties=species:S:1:pos:R:3:forces:R:3 unique_starting_index=140 config_type=initial n_minim_iter=10 energy=-2603.748788858912 stress="5.018494830363898e-05 -1.683790577369707e-05 -6.194708350096388e-05 -1.683790577369707e-05 -0.0001003760320637206 0.00017588734195044016 -6.194708350096388e-05 0.00017588734195044016 -4.840287140532402e-05" free_energy=-2603.748788858912 pbc="T T T"
Si       1.89246568       3.82314177       0.92872219       0.00403421      -0.01062535      -0.00890918
Si       0.42723243       1.25734559       4.35338491       0.00281536       0.00163969      -0.00542213
Si       1.05623368       0.17234447       6.38467791       0.00501605       0.00082280       0.00679162
Si       0.39315285       3.42594181       6.30423704       0.00208146       0.00552387       0.00056743
Si       0.29803829       1.75833751      16.50661877      -0.00616919      -0.02212727      -0.00207597
Si       0.28979436      -0.06357557       2.38216036      -0.00099694      -0.00663969      -0.00700274
Si      -0.57830327       1.63921700      12.60018485      -0.00078763       0.01874281       0.00242391
Si      -0.23148789       2.25780625      18.85377670       0.00500989      -0.00293894       0.02335600
Si       1.05794764       2.01369742       8.16329926       0.00165109       0.01248220       0.00043691
Si      -0.02321500      -0.55333322      13.18633885       0.00058849      -0.03099513       0.00375890
Si      -0.13188621       3.51856896       3.79295610      -0.00355911       0.01612410      -0.00339787
Si      -0.38790253       2.98618753      14.54797906       0.00320442      -0.02174333      -0.00081969
Si       2.12752032       1.65264539      -0.07878256      -0.00168835       0.00454428       0.00279980
Si      -1.22805523       2.82656737      10.68686486       0.00096659       0.00668035      -0.00371815
Si      -0.80673577      -0.58770616       9.68047803      -0.00088131       0.01563742      -0.00061469
Si      -1.99092956      -0.90873416      16.01040842      -0.01128503       0.01287217      -0.00817415
16
Lattice="2.4738979288357887 0.4806690464535201 -0.49856752957674005 1.031308115566832 6.077288410491214 -2.1653415773788836 -3.8880693735790453 -4.4572481733448095 25.50028524908107" Properties=species:S:1:pos:R:3:forces:R:3 unique_starting_index=140 config_type=initial n_minim_iter=11 energy=-2603.749095666711 stress="2.460670958127947e-05 6.070740214548778e-06 4.157993587931712e-05 6.070740214548778e-06 5.072448639510497e-05 -1.7976580928580772e-05 4.157993587931712e-05 -1.7976580928580772e-05 -2.55632289678161e-05" free_energy=-2603.749095666711 pbc="T T T"
Si       1.89531151       3.82411909       0.92713302       0.00439559      -0.00956877      -0.00765919
Si       0.42651401       1.25849863       4.35300483       0.01310346      -0.00053833       0.00244756
Si       1.05869362       0.17138006       6.38248606       0.00368346       0.00758398       0.00859420
Si       0.39675939       3.42744214       6.30295071      -0.00086830       0.01545630      -0.00668228
Si       0.30225700       1.74938186      16.50793536      -0.00631210      -0.01602297       0.01018270
Si       0.29106565      -0.06464522       2.38432334      -0.00479936      -0.00558873      -0.01978545
Si      -0.57255712       1.63639071      12.59994115       0.00485979      -0.01994165       0.00498476
Si      -0.22507170       2.24366363      18.85784662       0.00252172       0.00333846       0.00690980
Si       1.06082838       2.01490989       8.15909916       0.00450432      -0.00047166       0.01218931
Si      -0.02097413      -0.56127106      13.18953428      -0.01030602       0.01163340      -0.01254525
Si      -0.12685983       3.51994970       3.79001782      -0.00959009       0.01336411      -0.00190333
Si      -0.38146910       2.97932895      14.54967071       0.00043610      -0.00603058       0.00391267
Si       2.12859799       1.65227237      -0.07756174       0.00005453      -0.00061358       0.00852948
Si      -1.22299261       2.82262853      10.68451629       0.00258133      -0.00186361       0.00152492
Si      -0.80424219      -0.58747814       9.68042996      -0.00132484       0.01703878      -0.00680010
Si      -1.99014341      -0.91774672      16.01222159      -0.00293960      -0.00777515      -0.00389980
16
Lattice="2.4733839392954184 0.4807590117015803 -0.499968021584564 1.0323160489999699 6.07627458225283 -2.167422914428647 -3.899015810801321 -4.459944550818512 25.511730566298354" Properties=species:S:1:pos:R:3:forces:R:3 unique_starting_index=140 config_type=initial n_minim_iter=12 energy=-2603.7492602216043 stress="-9.78829223947784e-05 4.8708386655245234e-06 -9.87343036562408e-05 4.8708386655245234e-06 -0.00012595658151604 -2.7337174644786665e-05 -9.87343036562408e-05 -2.7337174644786665e-05 0.00011953065885904965" free_energy=-2603.7492602216043 pbc="T T T"
Si       1.89581418       3.82237837       0.92480872       0.00221837       0.00024977      -0.00071694
Si       0.42392843       1.25925909       4.35386461       0.01446419      -0.00273236      -0.00426674
Si       1.05614689       0.17179630       6.38330171       0.00203542       0.01499540       0.00882943
Si       0.39438426       3.42866262       6.30398944      -0.00327282       0.02207520      -0.01092594
Si       0.29303825       1.74311128      16.51472153      -0.00217179      -0.00407947       0.02770916
Si       0.28986945      -0.06584985       2.38460504      -0.00241345      -0.00303474      -0.00674127
Si      -0.57703460       1.63442911      12.60456177       0.00241513      -0.02556327       0.00053735
Si      -0.23341657       2.23619599      18.86770801      -0.00151846       0.00062230      -0.01719844
Si       1.05693458       2.01636988       8.15932934       0.00458870       0.00082862       0.01108411
Si      -0.02888839      -0.56476390      13.19481745      -0.01368864       0.02431747      -0.01637416
Si      -0.12757116       3.52134091       3.78945657      -0.01159241       0.00134985      -0.00135859
Si      -0.38723395       2.97471527      14.55633224      -0.00253048       0.00340257       0.00631740
Si       2.12848582       1.65113214      -0.07728437      -0.00055796      -0.00556291      -0.00098544
Si      -1.22677151       2.82040292      10.68729513       0.00463173      -0.00648916       0.01016496
Si      -0.80882724      -0.58418412       9.68350436       0.00508319       0.00333021      -0.00731411
Si      -2.00001691      -0.92147577      16.01905836       0.00230928      -0.02370948       0.00123922
16
Lattice="2.4738723825253985 0.4804491455333908 -0.4986769518261273 1.0306306171288262 6.078047261925737 -2.165707663922568 -3.8890766483652173 -4.460348966846023 25.49574319402909" Properties=species:S:1:pos:R:3:forces:R:3 unique_starting_index=140 config_type=initial n_minim_iter=13 energy=-2603.7495551499287 stress="-6.3684328663134e-06 -9.911590411717394e-06 2.225090081104967e-05 -9.911590411717394e-06 2.1727706109993227e-05 3.39189919514144e-05 2.225090081104967e-05 3.39189919514144e-05 -9.646300817141237e-06" free_energy=-2603.7495551499287 pbc="T T T"
Si       1.89783461       3.82207808       0.92358248      -0.00257510       0.01543595      -0.00473742
Si       0.42598031       1.26129518       4.35132194       0.01014175       0.00709380      -0.01818489
Si       1.06000718       0.17423869       6.37944232       0.00177892       0.01517341       0.00960635
Si       0.39659674       3.43520437       6.29891741      -0.00014780       0.01616630      -0.00000864
Si       0.29764340       1.73938633      16.50899675       0.00155336      -0.00628658       0.00961234
Si       0.29072515      -0.06685963       2.38229252       0.00548167      -0.01363312       0.01667512
Si      -0.57060400       1.63281470      12.59779176      -0.00944481       0.01806833      -0.00884663
Si      -0.22610848       2.23193666      18.85971001      -0.00611476       0.00373698      -0.00618087
Si       1.06083918       2.01974652       8.15395716      -0.00201634       0.01194495      -0.00591689
Si      -0.02664233      -0.56408865      13.18661009      -0.00151259      -0.01818339      -0.00617964
Si      -0.12633741       3.52586602       3.78564018      -0.00468049      -0.01543548       0.00625800
Si      -0.38133049       2.97418701      14.55033473      -0.00373908      -0.00349019      -0.00088446
Si       2.12933293       1.64989303      -0.07448039      -0.00398938      -0.00178557      -0.02036504
Si      -1.22222478       2.82113798      10.68013150       0.00618433       0.00413114       0.03240641
Si      -0.80518434      -0.57868690       9.67604438       0.00627948      -0.01107250      -0.00337888
Si      -1.99720030      -0.92490389      16.00978362       0.00280084      -0.02186404       0.00012513
16
Lattice="2.4741654581995722 0.48101064472125504 -0.49902308536152895 1.0317346835411594 6.079965689682931 -2.1673297199324018 -3.8927720347134547 -4.469349389676696 25.49374450600571" Properties=species:S:1:pos:R:3:forces:R:3 unique_starting_index=140 config_type=initial n_minim_iter=14 energy=-2603.749845118695 stress="0.0001026068296938376 2.2418180623373928e-05 6.427487569039805e-06 2.2418180623373928e-05 6.882821680166688e-07 -8.122310374974253e-05 6.427487569039805e-06 -8.122310374974253e-05 -5.1189110269030995e-05" free_energy=-2603.749845118695 pbc="T T T"
Si       1.89980284       3.82297068       0.92028650      -0.00059932       0.00235163      -0.00059731