8
Lattice="5.889610025707424 4.01827359909756e-08 -5.508375669938452e-16 -2.4686165700959894 5.347283280766124 -7.332556978065941e-08 -2.4686165186811424 -2.1886246817144634 4.8788687972929" Properties=species:S:1:pos:R:3:forces:R:3 unique_starting_index=63 config_type=initial n_minim_iter=1 energy=-1261.2667545950426 stress="-0.49616955859589457 -0.608654430812831 -0.5006450856698957 0.12038688905730024 -0.18817422442741508 -0.12182703936682437" pbc="T T T"
Si       1.27586379       0.18379489       4.28722738      15.21246759      10.67562534      13.69603243
Si      -0.43536847      -0.72151250       3.14163486     -19.53097115      -7.91280695      -9.42857908
Si       0.36790471       4.41732420       0.62755127      -3.31632197      19.98081455     -11.07874133
Si       0.47259055       2.58086615       1.92244210      -1.00218158     -17.21799616      15.34619468
Si      -0.32348685       2.97486375       0.59164135     -15.21246759     -10.67562534     -13.69603243
Si       1.38774541       3.88017114       1.73723388      19.53097115       7.91280695       9.42857908
Si       0.58447223      -1.25866556       4.25131747       3.31632197     -19.98081456      11.07874133
Si       0.47978639       0.57779249       2.95642663       1.00218158      17.21799616     -15.34619469
8
Lattice="5.934717758832123 0.011102924986843203 0.017149531561803055 -2.4774428641991766 5.392891154476192 -0.017149605665029283 -2.477442812239048 -2.2229390846062373 4.913462241290605" Properties=species:S:1:pos:R:3:forces:R:3 unique_starting_index=63 config_type=initial n_minim_iter=2 energy=-1263.9051775691005 stress="-0.4370580942763007 -0.5370020797058436 -0.44103464689355615 0.10696501004430674 -0.16719476650578852 -0.10824459866195095" pbc="T T T"
Si       1.30000451       0.18101900       4.32511493      13.70488480       9.46258012      12.28419854
Si      -0.43288746      -0.73576821       3.16503580     -17.46707642      -7.05566947      -8.56648080
Si       0.38054352       4.46038751       0.62412227      -2.84687620      17.92432104      -9.94383401
Si       0.48657347       2.60069352       1.93541662      -0.91531543     -15.51741038      13.66155175
Si      -0.32017242       3.00003599       0.58834725     -13.70488480      -9.46258012     -12.28419854
Si       1.41271955       3.91682320       1.74842637      17.46707642       7.05566947       8.56648080
Si       0.59928857      -1.27933251       4.28933991       2.84687620     -17.92432104       9.94383401
Si       0.49325861       0.58036147       2.97804556       0.91531543      15.51741038     -13.66155175
8
Lattice="6.382514580699151 0.12510614515050889 0.1932390667264315 -2.5616303011206596 5.847238159090224 -0.19323914862326125 -2.5616302436957663 -2.5695660937685814 5.255936247866694" Properties=species:S:1:pos:R:3:forces:R:3 unique_starting_index=63 config_type=initial n_minim_iter=3 energy=-1283.033041980744 stress="-0.1891050751420373 -0.2767936333884079 -0.1925940111033618 0.09384864405190031 -0.14669284958546325 -0.09497132572550028" pbc="T T T"
Si       1.54530051       0.15214922       4.70324173       8.50052947       4.38215097       7.20126028
Si      -0.40669523      -0.88058651       3.39650471      -9.69018838      -3.62105132      -6.02566465
Si       0.50957018       4.89159205       0.58672926      -0.41565648      10.48108561      -5.77013622
Si       0.62903504       2.79677491       2.06384178      -0.77400243      -9.71998597       6.94573185
Si      -0.28604647       3.25062899       0.55269445      -8.50052947      -4.38215097      -7.20126028
Si       1.66594927       4.28336472       1.85943146       9.69018838       3.62105132       6.02566465
Si       0.74968386      -1.48881384       4.66920691       0.41565648     -10.48108561       5.77013622
Si       0.63021900       0.60600330       3.19209439       0.77400243       9.71998597      -6.94573185
8
Lattice="7.047594630328509 0.4549757787187167 0.7027561761045132 -2.5409024977952708 6.58934043691675 -0.7027562727009479 -2.540902430063224 -3.33819013765894 5.724487813022608" Properties=species:S:1:pos:R:3:forces:R:3 unique_starting_index=63 config_type=initial n_minim_iter=4 energy=-1291.1875485128478 stress="0.10912745103316839 0.05418545215362195 0.10694142904874886 0.058801652111608836 -0.09191163064107236 -0.05950507769476703" pbc="T T T"
Si       2.10558104       0.03398835       5.32429510       1.73866324       2.25901218       2.59582240
Si      -0.26258813      -1.21306670       3.73515989      -3.64302351      -1.04067311      -0.71397409
Si       0.85169087       5.64617542       0.42198427      -1.32224122       3.40207919      -1.24173877
Si       0.99130197       3.10227680       2.21022664      -0.58211906      -2.18374012       3.12358709
Si      -0.13979133       3.67213773       0.40019263      -1.73866324      -2.25901218      -2.59582240
Si       2.22837784       4.91919277       1.98932784       3.64302351       1.04067311       0.71397409
Si       1.11409884      -1.94004935       5.30250346       1.32224122      -3.40207919       1.24173877
Si       0.97448774       0.60384928       3.51426109       0.58211906       2.18374012      -3.12358709
8
Lattice="6.74215542800507 0.612603224590831 0.946227761764629 -2.2697655522963625 6.37809585082829 -0.9462278576258286 -2.269765485079851 -3.473872272754976 5.432095873474233" Properties=species:S:1:pos:R:3:forces:R:3 unique_starting_index=63 config_type=initial n_minim_iter=5 energy=-1294.917705822042 stress="-0.015539639197981982 -0.03571930447301864 -0.016342543948255333 0.021597278605670085 -0.03375825378837955 -0.02185564003445868" pbc="T T T"
Si       2.22798595      -0.04480433       5.15980816       2.46447149       1.78274263       2.58484838
Si      -0.13816787      -1.29218361       3.57292233      -3.49587103      -1.12289146      -1.56564129
Si       0.97453390       5.52806658       0.28339461      -0.58560662       3.58007567      -1.66533937
Si       1.11528411       2.98691360       2.07101215      -0.44579292      -2.92022450       2.68454646
Si      -0.02536155       3.56163113       0.27228763      -2.46447149      -1.78274263      -2.58484838
Si       2.34079227       4.80901042       1.85917346       3.49587103       1.12289146       1.56564129
Si       1.22809050      -2.01123978       5.14870118       0.58560662      -3.58007567       1.66533937
Si       1.08734028       0.52991320       3.36108364       0.44579292       2.92022450      -2.68454646
8
Lattice="6.806507844729403 0.6755454050918906 1.043448344748863 -2.2395923802383493 6.462904641165721 -1.0434484426361192 -2.2395923116011933 -3.5972884166086927 5.469683483384807" Properties=species:S:1:pos:R:3:forces:R:3 unique_starting_index=63 config_type=initial n_minim_iter=6 energy=-1295.7753647684417 stress="0.00397435052415033 -0.015054405259464661 0.003217237937793883 0.020365518185758356 -0.03183291484990225 -0.020609144438446966" pbc="T T T"
Si       2.32440475      -0.06709238       5.23538574       1.62565728       1.35053708       1.88240505
Si      -0.10988772      -1.34967333       3.60233627      -2.54654063      -0.76139007      -0.97240772
Si       1.03518334       5.62903000       0.24297993      -0.54478646       2.55330821      -1.09269653
Si       1.17933363       3.01439735       2.08161015      -0.37609688      -1.96416120       2.00269386
Si       0.00291840       3.60825401       0.23429766      -1.62565728      -1.35053708      -1.88240505
Si       2.43721088       4.89083496       1.86734713       2.54654063       0.76139007       0.97240772
Si       1.29213981      -2.08786838       5.22670347       0.54478646      -2.55330821       1.09269653
Si       1.14798953       0.52676428       3.38807325       0.37609688       1.96416120      -2.00269386
8
Lattice="6.823645377297488 0.7699140635964253 1.1892103119200914 -2.161096531097089 6.518018521454561 -1.1892104118571531 -2.161096461022638 -3.7528397632644612 5.46030959413755" Properties=species:S:1:pos:R:3:forces:R:3 unique_starting_index=63 config_type=initial n_minim_iter=7 energy=-1296.80210633718 stress="0.03595095041550469 0.014618978177088019 0.03510219789282631 0.02283053467652335 -0.035685930506547045 -0.023103649153057192" pbc="T T T"
Si       2.44906614      -0.10426208       5.28868038       1.08116877       1.05396479       1.36726631
Si      -0.05862668      -1.42505227       3.60608977      -1.87270599      -0.54756863      -0.58508606
Si       1.12118192       5.71760458       0.17574038      -0.50374424       1.83008007      -0.73907612
Si       1.26925747       3.02393936       2.06950977      -0.28779298      -1.32368392       1.52125636
Si       0.05238625       3.63935490       0.17162912      -1.08116877      -1.05396478      -1.36726631
Si       2.56007907       4.96014509       1.85421973       1.87270599       0.54756863       0.58508606
Si       1.38027047      -2.18251176       5.28456913       0.50374424      -1.83008008       0.73907612
Si       1.23219492       0.51115346       3.39079973       0.28779298       1.32368392      -1.52125636
8
Lattice="6.813578970919511 0.7763994962479887 1.1992277207442843 -2.1509889785705414 6.511597403487265 -1.1992278206822284 -2.1509889084954708 -3.7593515196947274 5.450350866121433" Properties=species:S:1:pos:R:3:forces:R:3 unique_starting_index=63 config_type=initial n_minim_iter=8 energy=-1296.9182173032384 stress="0.03840892436723086 0.016125931568045686 0.037522332814745776 0.023848364048499483 -0.0372768782618328 -0.024133654487840824" pbc="T T T"
Si       2.45494387      -0.10730204       5.28392729       1.10303704       1.06228877       1.39170948
Si      -0.05396823      -1.42875296       3.60053058      -1.90095480      -0.55181059      -0.60322412
Si       1.12640560       5.71493053       0.17008850      -0.50213570       1.86193650      -0.75037032
Si       1.27456997       3.01996339       2.06479068      -0.29578206      -1.35145831       1.53885568
Si       0.05665722       3.63594742       0.16642349      -1.10303704      -1.06228877      -1.39170948
Si       2.56556932       4.95739834       1.84982020       1.90095480       0.55181059       0.60322412
Si       1.38519549      -2.18628516       5.28026228       0.50213570      -1.86193650       0.75037032
Si       1.23703112       0.50868199       3.38556010       0.29578206       1.35145831      -1.53885568
8
Lattice="6.371326382585654 1.0505808146644884 1.6227285891114926 -1.7166856517128835 6.224990760714824 -1.6227286888790524 -1.716685581757283 -4.028447195658374 5.015513114395349" Properties=species:S:1:pos:R:3:forces:R:3 unique_starting_index=63 config_type=initial n_minim_iter=9 energy=-1300.571415858468 stress="0.011714492219478774 0.007730660780855871 0.011555984273224788 0.004263693977986559 -0.00666449074431693 -0.004314699202476377" pbc="T T T"
Si       2.70258626      -0.23544354       5.07208917       1.00329710       0.53510110       0.66375911
Si       0.14224488      -1.58457375       3.35456797      -0.99906653      -0.53780766      -0.66793966
Si       1.34654632       5.59169155      -0.07275426      -0.06529826       1.07024736      -0.76408188
Si       1.49828475       2.84172912       1.86116958       0.06952883      -1.07295392       0.75990132
Si       0.23536889       3.48256792      -0.05657614      -1.00329710      -0.53510110      -0.66375911
Si       2.79571028       4.83169812       1.66094506       0.99906653       0.53780766       0.66793966
Si       1.59140884      -2.34456718       5.08826728       0.06529826      -1.07024736       0.76408188
Si       1.43967040       0.40539526       3.15434344      -0.06952883       1.07295392      -0.75990132
8
Lattice="6.227090590519298 1.0801171931637537 1.6683505238742327 -1.6294129378328037 6.106416586076036 -1.668350622420845 -1.629412868733314 -4.021540710938628 4.888652969631091" Properties=species:S:1:pos:R:3:forces:R:3 unique_starting_index=63 config_type=initial n_minim_iter=10 energy=-1300.91488086073 stress="-0.004807550343510258 0.0029162559210823063 -0.004500236975115123 -0.008266400520126107 0.012921037491355071 0.008365288857227093" pbc="T T T"
Si       2.72738285      -0.24263057       4.99073827       1.10612084       0.15891109       0.09826019
Si       0.15251648      -1.59982204       3.26373732      -0.34548780      -0.64553590      -0.84990159
Si       1.36346498       5.52544851      -0.12384349       0.31934977       0.52795791      -0.93684966
Si       1.51643427       2.76005618       1.82131548       0.44128327      -1.01458272       0.18520827
Si       0.24088194       3.40762364      -0.10208538      -1.10612084      -0.15891109      -0.09826019
Si       2.81574831       4.76481511       1.62491556       0.34548780       0.64553590       0.84990159
Si       1.60479981      -2.36045544       5.01249637      -0.31934977      -0.52795791       0.93684966
Si       1.45183052       0.40493689       3.06733740      -0.44128327       1.01458272      -0.18520827
8
Lattice="6.227214166614875 1.0268663651857526 1.5860992174308257 -1.6778121214736903 6.084208821576354 -1.5860993149427263 -1.677812053099746 -3.937404941019211 4.902055750527933" Properties=species:S:1:pos:R:3:forces:R:3 unique_starting_index=63 config_type=initial n_minim_iter=11 energy=-1301.0487639509124 stress="0.0008524477348078982 -0.0025509582429146605 0.0007170336479874676 0.0036424938710122373 -0.005693505847461202 -0.003686067862479008" pbc="T T T"
Si       2.67444462      -0.21374239       4.97718775       0.85882391       0.34339652       0.47577963
Si       0.10853325      -1.56670347       3.25651010      -0.71717191      -0.43402022      -0.61575714
Si       1.31504795       5.49836868      -0.09658414       0.04819818       0.81215926      -0.64802795
Si       1.46792985       2.74279923       1.84212692       0.09345383      -0.90278296       0.50805045
Si       0.19714538       3.38741264      -0.07513209      -0.85882391      -0.34339652      -0.47577964
Si       2.76305675       4.74037371       1.64554556       0.71717191       0.43402022       0.61575714
Si       1.55654205      -2.32469843       4.99863980      -0.04819817      -0.81215926       0.64802795
Si       1.40366015       0.43087102       3.05992874      -0.09345383       0.90278296      -0.50805045
8
Lattice="6.233914347063115 1.0442760566301097 1.6129902521182853 -1.6648139140095406 6.0975892682892905 -1.612990350052405 -1.6648138453395442 -3.967416929937357 4.903257681053561" Properties=species:S:1:pos:R:3:forces:R:3 unique_starting_index=63 config_type=initial n_minim_iter=12 energy=-1301.1187701519182 stress="0.004215997345279858 0.005216582247073963 0.004255808421370967 -0.001070875593255955 0.0016738631990626943 0.001083686133794165" pbc="T T T"
Si       2.70351556      -0.21830087       4.99266447       0.73186327       0.20538398       0.24139593
Si       0.11315479      -1.58370020       3.25529767      -0.42846413      -0.39948750      -0.54120851
Si       1.33137169       5.52251061      -0.11258822       0.12028699       0.52745084      -0.58600774
Si       1.48529860       2.74049452       1.84430233       0.18311215      -0.72155435       0.28619516
Si       0.20077103       3.39274926      -0.08940688      -0.73186327      -0.20538398      -0.24139593
Si       2.79113180       4.75814859       1.64795992       0.42846413       0.39948750       0.54120851
Si       1.57291491      -2.34806222       5.01584581      -0.12028699      -0.52745084       0.58600774
Si       1.41898799       0.43395387       3.05895526      -0.18311215       0.72155435      -0.28619516
8
Lattice="6.210212380443103 1.0360345719031498 1.600260443057021 -1.6623618813746528 6.072615425642981 -1.600260540535672 -1.662361813024024 -3.945580526145446 4.885681778861698" Properties=species:S:1:pos:R:3:forces:R:3 unique_starting_index=63 config_type=initial n_minim_iter=13 energy=-1301.1611934187285 stress="0.0011513789608682198 0.0012211658360657184 0.001154155625637897 -7.468937869542722e-05 0.0001167454033921506 7.558286457311791e-05" pbc="T T T"
Si       2.69284727      -0.21340073       4.97487057       0.71061925       0.19761403       0.25031034
Si       0.10574219      -1.57703285       3.23965428      -0.42824634      -0.37826575      -0.52934524
Si       1.32245118       5.50315166      -0.11290770       0.11843708       0.52635693      -0.56178939
Si       1.47613822       2.72461071       1.84149024       0.16393583      -0.70700865       0.28275449
Si       0.19264142       3.37647020      -0.08918888      -0.71061924      -0.19761403      -0.25031034
Si       2.77974650       4.74010232       1.64602741       0.42824634       0.37826575       0.52934524
Si       1.56303752      -2.34008219       4.99858939      -0.11843708      -0.52635693       0.56178939
Si       1.40935047       0.43845876       3.04419145      -0.16393583       0.70700865      -0.28275449
8
Lattice="6.202011261649978 1.0342486653068992 1.5975019292141275 -1.6605458579456385 6.064420923218799 -1.5975020265559228 -1.6605457896909712 -3.9397096725202823 4.879334153524859" Properties=species:S:1:pos:R:3:forces:R:3 unique_starting_index=63 config_type=initial n_minim_iter=14 energy=-1301.207122897364 stress="0.0013219421641781856 0.0018930947193927026 0.0013446670622743679 -0.0006112758100445151 0.0009554724219712753 0.0006185883132027684" pbc="T T T"
Si       2.69526315      -0.21009898       4.97193643       0.61568638       0.15149736       0.18663944
Si       0.09962628      -1.57796746       3.23082897      -0.33541835      -0.33080246      -0.46359434
Si       1.32046606       5.50193873      -0.11737261       0.12051634       0.42507415      -0.49157220
Si       1.47442330       2.71412543       1.84330183       0.15975169      -0.60437924       0.21461729
Si       0.18565647       3.36905889      -0.09260236      -0.61568638      -0.15149737      -0.18663944
Si       2.78129334       4.73692737       1.64850510       0.33541835       0.33080246       0.46359434
Si       1.56045356      -2.34297882       4.99670668      -0.12051634      -0.42507415       0.49157220
Si       1.40649632       0.44483449       3.03603224      -0.15975169       0.60437924      -0.21461729
