8
Lattice="5.333163257511717 1.1453135375239047 -0.6304096714329629 1.1186885384753509 7.086396129376354 -0.06594958763731062 -1.4333282307294692 -3.727098184705794 3.507242868547357" Properties=species:S:1:pos:R:3:forces:R:3 unique_starting_index=118 config_type=initial n_minim_iter=8 energy=-1302.8522809660078 stress="-0.00010715671144751879 1.0618415578489013e-05 -2.19591202463742e-05 1.0618415578489013e-05 -1.9416898073815196e-05 3.9103573802311744e-05 -2.19591202463742e-05 3.9103573802311744e-05 -2.053300504829862e-05" free_energy=-1302.8522809660078 pbc="T T T"
Si      -0.52453430      -0.31883510       1.94988789       0.00293371      -0.00584364       0.00597263
Si       2.31664794       0.70765350       1.20762848       0.00195612       0.00073632      -0.00053993
Si       1.60073193      -1.15685010       2.96225008      -0.00467772       0.00586743      -0.00615532
Si       1.98502491       1.93269331       3.35611570      -0.00208843      -0.00053355       0.00032990
Si       2.70222222       3.79707313       1.60173208      -0.00467745      -0.00460175       0.00406444
Si       0.20939727       3.67790530       1.49013990       0.00550461       0.00200767      -0.00145654
Si       0.19223406       1.54412752       0.19684849       0.00023345      -0.00078767       0.00079025
Si       0.92631133       5.54117878      -0.26318963       0.00081571       0.00315519      -0.00300543
