16
Lattice="2.522425048646271 0.12007970438521048 0.2681019487810656 1.032924628586402 10.639533593248855 -0.13125130078131328 1.2580256576896847 0.4171994050445734 14.909830458109257" Properties=species:S:1:pos:R:3:forces:R:3 unique_starting_index=92 config_type=initial n_minim_iter=1 energy=-2601.820674325966 stress="0.0006870460066760758 0.000544450021253518 0.0006592568882711258 0.000544450021253518 -0.00220529149773541 0.0011827668004063554 0.0006592568882711258 0.0011827668004063554 -5.687051563028898e-06" free_energy=-2601.820674325966 pbc="T T T"
Si       1.99703591      11.40805545       7.38883834      -0.04853754      -0.00110815       0.03591418
Si       0.45622964       0.74639597      -0.24603043      -0.00864455       0.23613140       0.01576399
Si       1.96298569       8.96083598       8.31378078      -0.04646863      -0.01923466      -0.01708956
Si       2.41779596       4.89461146       5.53637154       0.04433812       0.04357478      -0.18780023
Si       4.13461081       7.75661663      12.78765514      -0.03835132       0.01131071      -0.05018278
Si       1.74529168       5.08302362      12.15106294      -0.01671025      -0.07794434      -0.01332724
Si       2.26381268       3.20845591       7.41836178       0.04976120      -0.03519965       0.01650644
Si       2.39084918       7.38766827       5.00403043       0.02160975      -0.13686547       0.12948816
Si       1.84477878       7.27816986      10.11268298      -0.01722887       0.12287782       0.09953364
Si       1.64814269       3.62059933      14.17691782      -0.03164027      -0.17628650       0.17167516
Si       2.01123850       4.89223220       9.44708259       0.08454622      -0.13874336      -0.01650191
Si       2.74504485       9.46629564      13.91373427       0.04564039      -0.06274845       0.02352111
Si       2.50207676       0.41077016       5.50792988      -0.00645617      -0.15199978      -0.02900367
Si       2.15406673       6.59601643       7.41952422      -0.00556929      -0.05610580      -0.07060910
Si       3.72980185       9.13811861       3.87771801      -0.04135597       0.06957792       0.00876835
Si       1.49066347       2.41206809       1.44920080       0.01506719       0.37276355      -0.11665656
16
Lattice="2.519564255444288 0.11801238109331684 0.2654898164535725 1.0236212504431508 10.673042457227226 -0.15051320484703593 1.2422073208987747 0.3919343511955669 14.908064345295553" Properties=species:S:1:pos:R:3:forces:R:3 unique_starting_index=92 config_type=initial n_minim_iter=2 energy=-2601.8242703790843 stress="0.000323514019866247 0.0002734526508368194 0.0001393618292020468 0.0002734526508368194 0.0018234476510329781 0.0003015151985048927 0.0001393618292020468 0.0003015151985048927 0.002315325134397821" free_energy=-2601.8242703790843 pbc="T T T"
Si       1.97880741      11.43034560       7.36754440      -0.03883556      -0.01302742       0.02862454
Si       0.45538879       0.74972021      -0.24769415      -0.02317793       0.21385105       0.00658208
Si       1.94584799       8.97365473       8.29653754      -0.03952163      -0.02270280      -0.03498579
Si       2.40640196       4.89904171       5.52502227       0.03438969       0.01902765      -0.17925238
Si       4.11202083       7.75628970      12.77033039      -0.03030803       0.00213998      -0.03652232
Si       1.72787766       5.07677890      12.14074116      -0.01661563      -0.06556824       0.02709439
Si       2.25212560       3.20407978       7.41082548       0.05364373      -0.03037361      -0.00296019
Si       2.37793786       7.40035761       4.98958573       0.01284715      -0.09701497       0.12613945
Si       1.82747603       7.28312202      10.09888827      -0.00737873       0.09468704       0.07631141
Si       1.62999048       3.60590140      14.16990123      -0.03516530      -0.17051703       0.13185311
Si       1.99666409       4.88958609       9.43679542       0.07312348      -0.10923850      -0.01324871
Si       2.72172042       9.47033767      13.89508215       0.04264579      -0.01949487       0.04684666
Si       2.49398014       0.40009102       5.50478569      -0.01233712      -0.14309988      -0.03713833
Si       2.13961036       6.60250556       7.40595476      -0.00602513      -0.05436014      -0.06202391
Si       3.71502039       9.15805675       3.85853241      -0.04026352       0.06356162       0.01701972
Si       1.48594640       2.41750630       1.44321846       0.03297872       0.33213012      -0.09433973
16
Lattice="2.5170109319768224 0.11583471732643834 0.26297400406260113 1.0149858556538405 10.674483644150568 -0.16493844511008898 1.2302999130976877 0.3714902654929584 14.87397082509471" Properties=species:S:1:pos:R:3:forces:R:3 unique_starting_index=92 config_type=initial n_minim_iter=3 energy=-2601.8264531863647 stress="-0.0026292913839129485 0.00014283509794703577 -0.00013699820457037295 0.00014283509794703577 -0.00019053130113829884 -0.000508902364222361 -0.00013699820457037295 -0.000508902364222361 -0.0002455173653519346" free_energy=-2601.8264531863647 pbc="T T T"
Si       1.96325981      11.42130594       7.33510633      -0.02850015      -0.02764954       0.06092026
Si       0.45452550       0.75089115      -0.24841135      -0.03826900       0.20169490      -0.01178933
Si       1.93147861       8.96289596       8.26504613      -0.03562605      -0.00735470      -0.02318617
Si       2.39692867       4.89106966       5.50391945       0.02440598      -0.01128219      -0.17329637
Si       4.09347260       7.73795686      12.72902020      -0.02291318      -0.03310094      -0.03082273
Si       1.71397271       5.06016195      12.10625254      -0.01218317      -0.07588896       0.02740760
Si       2.24276203       3.19312703       7.38879654       0.05018617      -0.02001166      -0.00998647
Si       2.36693234       7.39289294       4.96782166       0.01027522      -0.09118682       0.10590791
Si       1.81332173       7.27035995      10.06627037       0.00343123       0.08018213       0.02945790
Si       1.61574474       3.58593928      14.13362471      -0.03927263      -0.14314350       0.10191216
Si       1.98499526       4.87605209       9.40819069       0.06141827      -0.10632255      -0.01489154
Si       2.70274248       9.45164901      13.85039439       0.04530017      -0.00240468       0.07840564
Si       2.48751247       0.39041327       5.49027435      -0.02014905      -0.13880230      -0.04356480
Si       2.12759980       6.59217463       7.37921541      -0.00628646      -0.05413510      -0.04901093
Si       3.70204798       9.15227357       3.83546480      -0.03631142       0.05006622       0.00218118
Si       1.48192554       2.41659837       1.43533605       0.04449406       0.37933969      -0.04964430
16
Lattice="2.5238037602058494 0.11238817554905688 0.2601072013517484 1.0043871979403975 10.680287690210546 -0.17702143932927195 1.2214255689494393 0.3538811504070773 14.832432447246148" Properties=species:S:1:pos:R:3:forces:R:3 unique_starting_index=92 config_type=initial n_minim_iter=4 energy=-2601.8295570813734 stress="0.0011058538994384787 -0.00014283942652124505 -4.426492424099482e-05 -0.00014283942652124505 0.0004488618865933161 -0.0007908675042691497 -4.426492424099482e-05 -0.0007908675042691497 -0.0011280104655221458" free_energy=-2601.8295570813734 pbc="T T T"
Si       1.94800326      11.41801225       7.30165391      -0.01852589      -0.01941186       0.05348540
Si       0.45479120       0.75336360      -0.24891776      -0.05871353       0.18231799      -0.01604468
Si       1.91850184       8.95702522       8.23109099      -0.02804607      -0.00615785      -0.01363733
Si       2.39345977       4.88531306       5.47987977       0.01045421      -0.02930464      -0.17489074
Si       4.08473822       7.72370999      12.68247735      -0.01702839      -0.03273585       0.00785820
Si       1.70255013       5.04722281      12.06681186      -0.00841440      -0.08277247       0.04661398
Si       2.23969345       3.18393703       7.36354855       0.05096042      -0.03571466      -0.01583562
Si       2.36040816       7.38807202       4.94565834       0.00285823      -0.07094943       0.06859463
Si       1.80107786       7.26277339      10.03035242       0.01686824       0.07683258      -0.00661088
Si       1.60408293       3.56900299      14.09165161      -0.04880963      -0.13751203       0.08801352
Si       1.97765868       4.86512904       9.37570062       0.04131111      -0.08136194      -0.01556166
Si       2.68775873       9.43887788      13.80101253       0.04772483       0.02804023       0.08661864
Si       2.48955488       0.37993527       5.47264351      -0.02642794      -0.11630197      -0.04926800
Si       2.11927596       6.58506885       7.34973089      -0.00575446      -0.05052843      -0.04127369
Si       3.69740966       9.14990329       3.81218053      -0.03240663       0.02846062       0.00802332
Si       1.48223143       2.41854749       1.42670789       0.07394990       0.34709972      -0.02608511
16
Lattice="2.522193512101673 0.10792044040849846 0.2567227288883547 0.9835681056031406 10.666601546945182 -0.15686357983486107 1.1977457855406313 0.38152494766816575 14.840114000218447" Properties=species:S:1:pos:R:3:forces:R:3 unique_starting_index=92 config_type=initial n_minim_iter=5 energy=-2601.8387883776777 stress="0.00022339721737230604 -0.0008589202155191827 -0.0004649175957351182 -0.0008589202155191827 0.0006339846504086992 0.000658923746496914 -0.0004649175957351182 0.000658923746496914 -0.0011365571424754636" free_energy=-2601.8387883776777 pbc="T T T"
Si       1.91290620      11.41641860       7.32806081      -0.00187271      -0.01695421       0.03919289
Si       0.45209754       0.75869663      -0.24840371      -0.06203957       0.09288750      -0.00164997
Si       1.88659936       8.96019332       8.25060625      -0.01602312      -0.01535266      -0.01467869
Si       2.37567827       4.88665320       5.48300427      -0.00151059      -0.02910390      -0.16317839
Si       4.04800078       7.73291162      12.69888393       0.00051815       0.00568859       0.02846572
Si       1.67333943       5.06041908      12.08270663      -0.00070676      -0.04163769       0.01745113
Si       2.22335312       3.19013843       7.37083407       0.03868891      -0.03204624      -0.01716465
Si       2.33802692       7.38230336       4.96378055      -0.00698073      -0.04662706       0.04454364
Si       1.77114358       7.27541386      10.04977275       0.02632363       0.05095580       0.02161777
Si       1.57366088       3.58530841      14.10913293      -0.04149707      -0.05858828      -0.00131723
Si       1.95546581       4.87149208       9.38766588       0.01367548      -0.06613103      -0.00727128
Si       2.64913581       9.45167430      13.82677199       0.03694109       0.03749660       0.05799649
Si       2.47888773       0.38100190       5.47144208      -0.02999949      -0.09334644      -0.02662624
Si       2.09433185       6.58705121       7.36242341      -0.00456846      -0.04446191      -0.01828743
Si       3.67108004       9.14259403       3.82787681      -0.02701453       0.00955799      -0.00468024
Si       1.47649543       2.42921086       1.42793208       0.07606578       0.24766294       0.04558648
16
Lattice="2.5232534720948228 0.10994397826943879 0.2576930330766318 0.9967551382583928 10.622515700416587 -0.17727552368307486 1.1993871601322768 0.35332282398277054 14.899386247072552" Properties=species:S:1:pos:R:3:forces:R:3 unique_starting_index=92 config_type=initial n_minim_iter=6 energy=-2601.8472221645493 stress="0.0004076375270635626 -0.00043607842764114093 -0.00025830174710566667 -0.00043607842764114093 -0.001381137750136024 -0.0008976301817859134 -0.00025830174710566667 -0.0008976301817859134 0.0007236225126273664" free_energy=-2601.8472221645493 pbc="T T T"
Si       1.92611302      11.35507779       7.33931292      -0.00101470      -0.06439169      -0.03576967
Si       0.45055596       0.76780635      -0.25103738      -0.02486207       0.01371077       0.02486291
Si       1.89650069       8.90779050       8.26613211      -0.01997827      -0.02826481       0.00636606
Si       2.38403863       4.85797577       5.48533371      -0.00075310      -0.06209248      -0.13062859
Si       4.05815748       7.68000331      12.73521298       0.02084873      -0.00802363      -0.01837909
Si       1.68001572       5.01368931      12.12366804      -0.00137515      -0.10672989       0.03095246
Si       2.23140649       3.16330367       7.39431707       0.03732852       0.04062159      -0.05263583
Si       2.34844965       7.33883838       4.97589758      -0.01227001       0.03327306       0.00352008
Si       1.78140618       7.23262402      10.07925260       0.02231553       0.03966185       0.01618728
Si       1.57676948       3.53685651      14.16539713      -0.00741759       0.08538955      -0.14526495
Si       1.96579555       4.82922356       9.41580161       0.00851396      -0.02899509       0.02632004
Si       2.66486664       9.38838235      13.86897918       0.00632784       0.07936865       0.10266143
Si       2.47932305       0.36412381       5.49065612      -0.02816035      -0.00373209       0.07031643
Si       2.10307434       6.54432052       7.37715358      -0.00448412      -0.05664587       0.00466360
Si       3.68142570       9.10326792       3.82689779      -0.01259684      -0.11139445      -0.04654175
Si       1.48314690       2.43869932       1.42645219       0.01757762       0.17824452       0.14336960
16
Lattice="2.521859162072771 0.11718990797036935 0.26060460060939644 1.0241601252798362 10.642981761941543 -0.16352566487765902 1.2186848582605299 0.3744600494886748 14.875010255397495" Properties=species:S:1:pos:R:3:forces:R:3 unique_starting_index=92 config_type=initial n_minim_iter=7 energy=-2601.850978275817 stress="-0.00027102297828922556 0.0001390745824258339 0.0002693721639738906 0.0001390745824258339 -5.1467574672163975e-05 0.00013858082523256416 0.0002693721639738906 0.00013858082523256416 -0.0004245360071667233" free_energy=-2601.850978275817 pbc="T T T"
Si       1.96367896      11.38689772       7.34286465      -0.02521408      -0.06455575      -0.02830212
Si       0.45038161       0.77580973      -0.24898726       0.02015622      -0.05037846       0.03585739
Si       1.92835711       8.93686901       8.26357108      -0.03620211      -0.03197172       0.00340577
Si       2.40291007       4.87828187       5.47753696       0.01253283      -0.06855078      -0.09887080
Si       4.09154532       7.71834813      12.72616642       0.01073764       0.00215130       0.02758430
Si       1.70747655       5.03767323      12.11115446      -0.00687645      -0.04372279       0.01274244
Si       2.24954861       3.18263940       7.38700970       0.04998768       0.03986594      -0.05806037
Si       2.37275017       7.36097497       4.98143580      -0.00316809       0.04534593      -0.02675250
Si       1.81280640       7.26432835      10.07344427       0.01230423      -0.00016248      -0.00683634
Si       1.60201004       3.56016918      14.14794450       0.02070861       0.13084031      -0.19111123
Si       1.99106282       4.85027000       9.40706371       0.03230597       0.00548110       0.03748056
Si       2.70724617       9.42831072      13.86147219      -0.00944822       0.10324224       0.08505985
Si       2.48453532       0.37373322       5.48407280      -0.01738003       0.01152469       0.06687330
Si       2.12826252       6.56747038       7.37292676      -0.01115366      -0.05320409       0.03018610
Si       3.70658515       9.13329369       3.83503700      -0.00931669      -0.10613424      -0.05026403
Si       1.49209383       2.46056503       1.42862118      -0.03997386       0.08022879       0.16100767
16
Lattice="2.521212584172843 0.1190637844044947 0.24914121035161604 1.0339971465928999 10.628822133001629 -0.17224986476266296 1.1492919424892691 0.3697930770092066 14.892354407366598" Properties=species:S:1:pos:R:3:forces:R:3 unique_starting_index=92 config_type=initial n_minim_iter=8 energy=-2601.857926871476 stress="0.00010499648220726813 8.912137938630142e-05 -0.001138808375764884 8.912137938630142e-05 0.0010909494920660536 0.0007760990310075934 -0.001138808375764884 0.0007760990310075934 0.0008142741242980735" free_energy=-2601.857926871476 pbc="T T T"
Si       1.93609430      11.36384301       7.34092682      -0.01950684      -0.05177505      -0.01153273
Si       0.45103547       0.78142404      -0.24913725      -0.00362816       0.01979761       0.08158007
Si       1.89304397       8.91966565       8.26357606      -0.03818999      -0.05033474      -0.00722774
Si       2.38370870       4.86595958       5.45565163      -0.01974477      -0.02282189      -0.02212790
Si       4.03892470       7.70604044      12.72497671       0.01658552       0.05352615       0.04275716
Si       1.65404109       5.01972920      12.12297126       0.01784974       0.03155972      -0.04971487
Si       2.22429294       3.17911276       7.38179803       0.05271909       0.07457688      -0.06738654
Si       2.35582277       7.35000091       4.97862400      -0.01261352       0.01986218      -0.00439702
Si       1.77330155       7.25693249      10.08010519       0.02389624      -0.01638529       0.04194500
Si       1.53802653       3.55452472      14.15128122      -0.01933388       0.06851419      -0.07309577
Si       1.95613008       4.83672362       9.41288124       0.02137580       0.02793769       0.04101359
Si       2.65205088       9.42040376      13.87729125       0.00235166       0.02854522       0.01151034
Si       2.45689535       0.36757176       5.48445461      -0.02584425      -0.01547891       0.04597789
Si       2.09841256       6.55039383       7.37184318      -0.01059549      -0.07019099       0.02793980
Si       3.69430857       9.11566826       3.81693143      -0.01677313      -0.05937366      -0.04635048
Si       1.48794709       2.48267709       1.43332570       0.03145195      -0.03795912      -0.01089081
16
Lattice="2.520702376593501 0.11513313755515046 0.25724189288184857 1.0185458486906365 10.621764925489321 -0.18563399737407343 1.1964739574204877 0.3444689938567426 14.901775814000663" Properties=species:S:1:pos:R:3:forces:R:3 unique_starting_index=92 config_type=initial n_minim_iter=9 energy=-2601.861667550365 stress="-9.967154698820567e-05 -0.0003024677949093559 2.2531984247256612e-05 -0.0003024677949093559 0.0006076121113179182 0.00022514451680104143 2.2531984247256612e-05 0.00022514451680104143 0.00035914891114132233" free_energy=-2601.861667550365 pbc="T T T"
Si       1.94206651      11.33981190       7.33198603      -0.01995863      -0.04882062       0.00151385
Si       0.44863155       0.78284346      -0.24669502       0.01293400       0.07690672       0.09399853
Si       1.90449108       8.89698076       8.25900585      -0.02408410      -0.04780481      -0.00218450
Si       2.39419049       4.84842247       5.45088078      -0.01655389       0.00208449       0.02752164
Si       4.06814601       7.67649972      12.73236951       0.02292982       0.05252987       0.04736815
Si       1.68557200       4.99248035      12.12600178       0.00830454       0.04828055      -0.06938901
Si       2.24624655       3.16469118       7.38387084       0.04157365       0.07469026      -0.07237877
Si       2.36066019       7.33525552       4.97750943      -0.01940989       0.00560941      -0.00153023
Si       1.79622566       7.23603948      10.07971066       0.01542394      -0.01920549       0.03225641
Si       1.57797200       3.53129362      14.15048215       0.01631982       0.02759440       0.00377400
Si       1.98139704       4.81514864       9.41727315       0.00207011       0.03299088       0.04028348
Si       2.68347893       9.39368242      13.88158224      -0.01255305      -0.00148936      -0.00409864
Si       2.47157899       0.35330559       5.49673567      -0.00929990      -0.02392056       0.03174963
Si       2.11181768       6.52832025       7.37203942      -0.00385636      -0.07913529       0.02589429
Si       3.69144290       9.09528762       3.81386567      -0.00698278      -0.03464910      -0.04154709
Si       1.48868620       2.48601898       1.43974883      -0.00685727      -0.06566137      -0.11323174
16
Lattice="2.5225539413375175 0.12140078272312296 0.25837580514019537 1.0477786622932517 10.612047494683711 -0.20100947074171535 1.206272917496753 0.3250220988928209 14.89979391258322" Properties=species:S:1:pos:R:3:forces:R:3 unique_starting_index=92 config_type=initial n_minim_iter=10 energy=-2601.8642189460747 stress="0.00010633858143821098 0.0004462758778669244 0.00033673591321562964 0.0004462758778669244 -0.0013533946775706003 -0.0006318424187291889 0.00033673591321562964 -0.0006318424187291889 -0.0008994526443415485" free_energy=-2601.8642189460747 pbc="T T T"
Si       1.97619664      11.31598898       7.31421560      -0.04221516      -0.03130619       0.01998602
Si       0.45160671       0.78619489      -0.24209666       0.02578126       0.10768380       0.07098332
Si       1.93175055       8.87582595       8.24565014      -0.03784864      -0.04032607       0.00134479
Si       2.41115330       4.83865762       5.44162050      -0.00604050       0.01025691       0.03197245
Si       4.09958825       7.66151951      12.72394972       0.00665642       0.02276969       0.01591728
Si       1.70703067       4.97300960      12.11500391       0.00917875       0.03062243      -0.06280779
Si       2.26390392       3.16094411       7.37385688       0.05118232       0.06479201      -0.05589878
Si       2.38357188       7.32691333       4.96635428      -0.01107900      -0.02673065       0.01498727
Si       1.82363906       7.21669896      10.06974284       0.00447275       0.00477503       0.01865361
Si       1.59710959       3.51535990      14.13833179       0.00982790      -0.00629643       0.06075264
Si       2.00196686       4.80199699       9.41281288       0.02677853       0.00965038       0.03103765
Si       2.71744949       9.37206333      13.86989138      -0.00374111      -0.00963564       0.01363076
Si       2.47565889       0.35031473       5.50049940      -0.00203640      -0.03829707      -0.00722090
Si       2.13414841       6.50953222       7.36434979      -0.00411203      -0.08777228       0.00804981
Si       3.71947345       9.08336171       3.79802229      -0.01295795       0.00127592      -0.02660191
Si       1.49623644       2.48597502       1.43646926      -0.01384715      -0.01146184      -0.13478623
16
Lattice="2.521518862430824 0.1207085431764182 0.2563316768020316 1.0453852999282307 10.598984282422677 -0.20309922077716108 1.189651568395273 0.3233747130297635 14.937299645991969" Properties=species:S:1:pos:R:3:forces:R:3 unique_starting_index=92 config_type=initial n_minim_iter=11 energy=-2601.8717297438498 stress="0.00012194378215000257 -0.00016398718711399925 1.0208396350302023e-05 -0.00016398718711399925 -6.60747698274661e-05 5.009449438739968e-05 1.0208396350302023e-05 5.009449438739968e-05 0.000281924661078611" free_energy=-2601.8717297438498 pbc="T T T"
Si       1.95669867      11.28670173       7.33186562      -0.05571427       0.05362411       0.02276892
Si       0.45317375       0.80727586      -0.22377003       0.02013682      -0.07096963      -0.00714074
Si       1.90978222       8.85166207       8.26374804      -0.02336861      -0.05472888      -0.03760614
Si       2.40265095       4.82673093       5.44017639       0.00285269       0.02537819      -0.01999727
Si       4.08616480       7.65855834      12.76033306       0.00270462       0.03198534      -0.02354487
Si       1.69344747       4.96602219      12.13403749       0.01973115       0.06646187      -0.02181568
Si       2.27044593       3.17233496       7.37180337       0.04021823      -0.00769041       0.01673625
Si       2.37262330       7.31562012       4.98033927      -0.02203135      -0.03214943       0.04706813
Si       1.81462499       7.20953741      10.10151035      -0.00325084       0.02177346       0.05971679
Si       1.58147339       3.51698909      14.16602146      -0.00031755       0.03212304       0.00812309
Si       1.99757340       4.79489068       9.44462420       0.01457900      -0.04720847      -0.00455782
Si       2.69970418       9.36701633      13.91368502       0.00751650       0.02986615       0.00010520
Si       2.46434531       0.33755747       5.51988437       0.01880022      -0.05553644      -0.09448237
Si       2.12199631       6.47740887       7.38489536       0.00010254      -0.08021816      -0.00236888
Si       3.70766431       9.05987447       3.79258793      -0.02318368       0.08345011       0.04084041
Si       1.49355029       2.49871381       1.42708441       0.00122453       0.00383914       0.01615499
16
Lattice="2.5210289271699717 0.12668399085662177 0.25333972028267265 1.0710266423325066 10.600904932856405 -0.2084941356159794 1.1732319525455257 0.32047122938339445 14.933692575654764" Properties=species:S:1:pos:R:3:forces:R:3 unique_starting_index=92 config_type=initial n_minim_iter=12 energy=-2601.8739747094214 stress="-0.0005460849966345949 0.00012185170604356256 -0.0001279176817592443 0.00012185170604356256 0.00013290482051408125 -8.076076843739606e-05 -0.0001279176817592443 -8.076076843739606e-05 -0.0007263743163410346" free_energy=-2601.8739747094214 pbc="T T T"
Si       1.96748507      11.28158189       7.32669583      -0.07317363       0.05873785      -0.00100736
Si       0.45594741       0.82110959      -0.21493791       0.03509509      -0.14878628      -0.02604699
Si       1.91374553       8.84315170       8.25423683      -0.03103221      -0.05449956      -0.04988268
Si       2.40817526       4.82766349       5.42097895       0.00463689       0.01220313       0.01264220
Si       4.09068049       7.66799865      12.75352138      -0.00520778       0.03360904      -0.00548797
Si       1.69243727       4.96540419      12.12315041       0.02737378       0.09376197      -0.00306809
Si       2.28107717       3.18214926       7.35735060       0.04408750      -0.01469967       0.03777011
Si       2.38169319       7.31476066       4.98048150      -0.02084047       0.00567604       0.02248288
Si       1.82241598       7.21429045      10.10260620      -0.00528181      -0.00510440       0.02487500
Si       1.57303034       3.51769205      14.15799882      -0.00204185       0.07559907      -0.04429113
Si       2.00432714       4.79073678       9.44374445       0.02437715      -0.03277711      -0.00491885
Si       2.70763245       9.37406051      13.91329572       0.00728017       0.04325934      -0.00791744
Si       2.45615531       0.32967124       5.51553040       0.02105809      -0.00048549      -0.05847316
Si       2.12745471       6.46196506       7.37971524      -0.00314730      -0.07129699       0.01631102
Si       3.72003345       9.06459486       3.78008268      -0.02673082       0.03847287       0.04539496
Si       1.49884729       2.52096540       1.41985279       0.00354719      -0.03366981       0.04161749
16
Lattice="2.521243928632858 0.13330538415013485 0.25555246122600733 1.0971858792970803 10.594873757400958 -0.18939804632736124 1.1807218828699542 0.34998639490897077 14.984373112889967" Properties=species:S:1:pos:R:3:forces:R:3 unique_starting_index=92 config_type=initial n_minim_iter=13 energy=-2601.8796358530044 stress="0.0015248107034402595 0.0002867965908078076 0.00023355595872574073 0.0002867965908078076 0.0013607718671153086 0.0001663661273374245 0.00023355595872574073 0.0001663661273374245 0.0016429842873838208" free_energy=-2601.8796358530044 pbc="T T T"
Si       1.98195940      11.28925295       7.37507123      -0.09221307       0.02368541      -0.09649003
Si       0.46418446       0.81943021      -0.20086320       0.03587937      -0.02386514      -0.03409627
Si       1.92733102       8.83724403       8.29114371      -0.03561306      -0.04606163      -0.07551496
Si       2.42197700       4.83971355       5.44137326       0.03973862      -0.00995603      -0.07409277
Si       4.11805263       7.70717557      12.81499170      -0.02792250       0.06401601       0.00278074
Si       1.71523518       5.00214904      12.16159491       0.02448304       0.07159668       0.04385859
Si       2.31054497       3.20990622       7.37851282       0.03263826      -0.03901017       0.09382923
Si       2.39553854       7.32059288       5.01968507      -0.01344179       0.07074076       0.01939051
Si       1.84692048       7.23394252      10.16368794      -0.01854528      -0.00906844       0.00390674
Si       1.58947039       3.55921721      14.20457813      -0.00621901      -0.02423439       0.01640916
Si       2.02820381       4.80352538       9.49156862       0.03769170      -0.03749135      -0.01193612
Si       2.73774335       9.40955394      13.98404983       0.01716697      -0.02909165      -0.03752606
Si       2.45966453       0.33285025       5.52794541       0.02550176       0.09999902       0.08978251
Si       2.14482725       6.44539753       7.42146227      -0.00568208      -0.03879594       0.01299241
Si       3.73683291       9.07572382       3.80965759      -0.02300996      -0.06770806       0.01685258
Si       1.50501823       2.52946613       1.42419710       0.00954702      -0.00475508       0.02985375
16
Lattice="2.518858733410144 0.13003945400630454 0.2518236852065357 1.0829319122714176 10.584915292594525 -0.18780134285321484 1.1584772806552464 0.35211879624130926 14.969064326493648" Properties=species:S:1:pos:R:3:forces:R:3 unique_starting_index=92 config_type=initial n_minim_iter=14 energy=-2601.882923378241 stress="-0.0006977051140566821 -0.00026032631572824906 -0.0001891138036499171 -0.00026032631572824906 -0.0007816904159867063 -0.0002820111121456166 -0.0001891138036499171 -0.0002820111121456166 -0.0009484720684683951" free_energy=-2601.882923378241 pbc="T T T"
Si       1.94467952      11.28065217       7.36742425      -0.07197938      -0.01342491      -0.07100806