10
Lattice="5.28691 0.0 0.0 0.0 6.15293 0.0 0.0 0.0 6.41199" Properties=species:S:1:pos:R:3:forces:R:3 unique_starting_index=142 config_type=initial n_minim_iter=1 energy=-1573.9486793743881 stress="-0.4467990478355072 -0.9486003816784152 -0.024741311745572845 -5.703436985601878e-12 1.0572992220294835e-12 1.7829733846676227e-12" pbc="T T T"
Si       1.67254411       0.79999965       3.12488012      -7.02413533      26.93211329      -1.17692044
Si       3.61436589       5.35293035       3.12488012       7.02413533     -26.93211329      -1.17692044
Si       3.61436589       0.79999965       3.12488012       7.02413533      26.93211329      -1.17692044
Si       1.67254411       5.35293035       3.12488012      -7.02413533     -26.93211329      -1.17692044
Si       3.73448554       2.27646535       1.36933240     -12.54866602     -21.01154061      -3.87847701
Si       1.55242446       3.87646465       1.36933240      12.54866602      21.01154061      -3.87847701
Si       1.55242446       2.27646535       1.36933240      12.54866602     -21.01154061      -3.87847701
Si       3.73448554       3.87646465       1.36933240     -12.54866602      21.01154061      -3.87847701
Si      -0.00000000       3.87646465       1.98573367       0.00000000      17.26601870      10.11079491
Si      -0.00000000       2.27646535       1.98573367      -0.00000000     -17.26601870      10.11079491
10
Lattice="5.336411247366668 0.0 0.0 0.0 6.275884825242806 0.0 0.0 0.0 6.4152998198144005" Properties=species:S:1:pos:R:3:forces:R:3 unique_starting_index=142 config_type=initial n_minim_iter=2 energy=-1579.0078182964903 stress="-0.42880367839057437 -0.7773236805938273 -0.031153198893537064 -3.115429414861431e-12 -6.715828609980753e-14 -2.771623945487618e-12" pbc="T T T"
Si       1.68749512       0.81873318       3.12637541      -6.79507199      23.17468706      -0.89273116
Si       3.64891613       5.45715164       3.12637541       6.79507199     -23.17468706      -0.89273116
Si       3.64891613       0.81873318       3.12637541       6.79507199      23.17468706      -0.89273116
Si       1.68749512       5.45715164       3.12637541      -6.79507199     -23.17468706      -0.89273116
Si       3.76818485       2.31981312       1.36965119     -11.33808665     -18.06219427      -3.94195435
Si       1.56822640       3.95607170       1.36965119      11.33808665      18.06219427      -3.94195435
Si       1.56822640       2.31981312       1.36965119      11.33808665     -18.06219427      -3.94195435
Si       3.76818485       3.95607170       1.36965119     -11.33808665      18.06219427      -3.94195435
Si      -0.00000000       3.95568967       1.98777029      -0.00000000      14.77030508       9.66937101
Si      -0.00000000       2.32019516       1.98777029       0.00000000     -14.77030508       9.66937101
10
Lattice="5.673146504656977 0.0 0.0 0.0 7.0121125011761745 0.0 0.0 0.0 6.443883029773338" Properties=species:S:1:pos:R:3:forces:R:3 unique_starting_index=142 config_type=initial n_minim_iter=3 energy=-1600.4782383058978 stress="-0.3129048200397042 -0.3452930874122588 -0.039784920087887005 -5.340954135280602e-13 1.4727020562599823e-12 3.2206762902481386e-12" pbc="T T T"
Si       1.78909031       0.93267122       3.13970871      -4.26086484      10.62643452       0.03416210
Si       3.88405619       6.07944128       3.13970871       4.26086484     -10.62643452       0.03416210
Si       3.88405619       0.93267122       3.13970871       4.26086484      10.62643452       0.03416210
Si       1.78909031       6.07944128       3.13970871      -4.26086484     -10.62643452       0.03416210
Si       3.99780644       2.57800686       1.37312110      -7.55438663      -8.98994483      -3.93768010
Si       1.67534006       4.43410565       1.37312110       7.55438663       8.98994483      -3.93768010
Si       1.67534006       2.57800686       1.37312110       7.55438663      -8.98994483      -3.93768010
Si       3.99780644       4.43410565       1.37312110      -7.55438663       8.98994483      -3.93768010
Si      -0.00000000       4.43113729       2.00308421      -0.00000000       7.88165679       7.80703601
Si      -0.00000000       2.58097521       2.00308421       0.00000000      -7.88165679       7.80703601
10
Lattice="6.3941296411214275 0.0 0.0 0.0 8.001738294694063 0.0 0.0 0.0 6.542652928626651" Properties=species:S:1:pos:R:3:forces:R:3 unique_starting_index=142 config_type=initial n_minim_iter=4 energy=-1617.2852189747769 stress="-0.0780199510183694 -0.05984187507447167 0.007330410768861874 -7.554563740529537e-13 3.440705370573225e-13 9.99382270830998e-13" pbc="T T T"
Si       2.00821278       1.08779019       3.18788547       0.30048048       2.75458575      -0.89069735
Si       4.38591687       6.91394810       3.18788547      -0.30048048      -2.75458575      -0.89069735
Si       4.38591687       1.08779019       3.18788547      -0.30048048       2.75458575      -0.89069735
Si       2.00821278       6.91394810       3.18788547       0.30048048      -2.75458575      -0.89069735
Si       4.49125282       2.92197060       1.38814524      -5.58676739      -3.61900282      -0.61415036
Si       1.90287682       5.07976770       1.38814524       5.58676739       3.61900282      -0.61415036
Si       1.90287682       2.92197060       1.38814524       5.58676739      -3.61900282      -0.61415036
Si       4.49125282       5.07976770       1.38814524      -5.58676739       3.61900282      -0.61415036
Si      -0.00000000       5.07393050       2.04572766       0.00000000       3.79651236       3.00969542
Si      -0.00000000       2.92780780       2.04572766      -0.00000000      -3.79651236       3.00969542
10
Lattice="6.743636930919585 0.0 0.0 0.0 8.335122495723647 0.0 0.0 0.0 6.510019825999136" Properties=species:S:1:pos:R:3:forces:R:3 unique_starting_index=142 config_type=initial n_minim_iter=5 energy=-1618.8056189805152 stress="-0.02366692994091045 0.037650321169144005 0.016991617200744165 8.934641937709904e-13 2.366939161882008e-12 1.1193653503522924e-12" pbc="T T T"
Si       2.11892755       1.14300035       3.17010482      -0.23810117       0.83200811      -1.06718989
Si       4.62470938       7.19212214       3.17010482       0.23810117      -0.83200811      -1.06718989
Si       4.62470938       1.14300035       3.17010482       0.23810117       0.83200811      -1.06718989
Si       2.11892755       7.19212214       3.17010482      -0.23810117      -0.83200811      -1.06718989
Si       4.71918561       3.03071988       1.37992504      -3.15906202      -1.91464970       0.52929595
Si       2.02445132       5.30440261       1.37992504       3.15906202       1.91464970       0.52929595
Si       2.02445132       3.03071988       1.37992504       3.15906202      -1.91464970       0.52929595
Si       4.71918561       5.30440261       1.37992504      -3.15906202       1.91464970       0.52929595
Si      -0.00000000       5.29895944       2.04187762      -0.00000000       1.52290728       1.07578788
Si      -0.00000000       3.03616306       2.04187762       0.00000000      -1.52290728       1.07578788
10
Lattice="6.844462100755359 0.0 0.0 0.0 8.140644504702427 0.0 0.0 0.0 6.441025759451424" Properties=species:S:1:pos:R:3:forces:R:3 unique_starting_index=142 config_type=initial n_minim_iter=6 energy=-1619.4367952658233 stress="-0.015704505693832315 0.020674138211384203 0.01727236653547361 -1.1501742714440586e-13 1.2766503524716793e-12 -3.2472491884006654e-12" pbc="T T T"
Si       2.14993421       1.11888683       3.13464248       0.15998828       1.39320230      -1.05252020
Si       4.69452789       7.02175767       3.13464248      -0.15998828      -1.39320230      -1.05252020
Si       4.69452789       1.11888683       3.13464248      -0.15998828       1.39320230      -1.05252020
Si       2.14993421       7.02175767       3.13464248       0.15998828      -1.39320230      -1.05252020
Si       4.78080355       2.95412557       1.36622547      -2.42756814      -2.34679981       0.57743602
Si       2.06365855       5.18651893       1.36622547       2.42756814       2.34679980       0.57743602
Si       2.06365855       2.95412557       1.36622547       2.42756814      -2.34679981       0.57743602
Si       4.78080355       5.18651893       1.36622547      -2.42756814       2.34679981       0.57743602
Si      -0.00000000       5.17999960       2.02211769      -0.00000000       2.25314085       0.95016836
Si      -0.00000000       2.96064491       2.02211769       0.00000000      -2.25314085       0.95016836
10
Lattice="6.977547606227586 0.0 0.0 0.0 7.936859836645584 0.0 0.0 0.0 6.306037970890293" Properties=species:S:1:pos:R:3:forces:R:3 unique_starting_index=142 config_type=initial n_minim_iter=7 energy=-1620.054820103573 stress="0.004193599668750967 -0.010460278249530351 0.015403883250236316 -2.0701312070344817e-12 -8.821763533731206e-13 -1.7392171174640475e-12" pbc="T T T"
Si       2.19267210       1.09900200       3.06539532       0.57689645       1.85278022      -0.75396795
Si       4.78487551       6.83785784       3.06539532      -0.57689645      -1.85278022      -0.75396795
Si       4.78487551       1.09900200       3.06539532      -0.57689645       1.85278022      -0.75396795
Si       2.19267210       6.83785784       3.06539532       0.57689645      -1.85278022      -0.75396795
Si       4.85959061       2.86648997       1.33954199      -1.48698758      -2.50107128       0.38027402
Si       2.11795700       5.07036987       1.33954199       1.48698758       2.50107128       0.38027402
Si       2.11795700       2.86648997       1.33954199       1.48698758      -2.50107128       0.38027402
Si       4.85959061       5.07036987       1.33954199      -1.48698758       2.50107128       0.38027402
Si      -0.00000000       5.06346758       1.98294655      -0.00000000       2.87783773       0.74738785
Si      -0.00000000       2.87339226       1.98294655       0.00000000      -2.87783773       0.74738786
10
Lattice="6.952100809261609 0.0 0.0 0.0 8.009522092461555 0.0 0.0 0.0 6.221973530350942" Properties=species:S:1:pos:R:3:forces:R:3 unique_starting_index=142 config_type=initial n_minim_iter=8 energy=-1620.3878059488927 stress="0.005418382240319877 0.0113026837571853 0.016033265948341056 -1.3758345376383985e-12 -2.7701393658740743e-13 -1.294271885089194e-12" pbc="T T T"
Si       2.18717323       1.11682487       3.02273613       0.44401707       1.29774668      -0.69710927
Si       4.76492758       6.89269722       3.02273613      -0.44401707      -1.29774668      -0.69710927
Si       4.76492758       1.11682487       3.02273613      -0.44401707       1.29774668      -0.69710927
Si       2.18717323       6.89269722       3.02273613       0.44401707      -1.29774668      -0.69710927
Si       4.83542990       2.88225558       1.32259021      -1.50288012      -1.89334098       0.34563328
Si       2.11667091       5.12726652       1.32259021       1.50288013       1.89334098       0.34563327
Si       2.11667091       2.88225558       1.32259021       1.50288012      -1.89334098       0.34563328
Si       4.83542990       5.12726652       1.32259021      -1.50288013       1.89334098       0.34563327
Si      -0.00000000       5.12187934       1.95829172      -0.00000000       2.34292950       0.70295198
Si      -0.00000000       2.88764275       1.95829172       0.00000000      -2.34292950       0.70295198
10
Lattice="6.927104080939923 0.0 0.0 0.0 7.94956549138534 0.0 0.0 0.0 6.156007989385958" Properties=species:S:1:pos:R:3:forces:R:3 unique_starting_index=142 config_type=initial n_minim_iter=9 energy=-1620.6015912222201 stress="0.002219815981918753 -0.0024175002639694083 0.01206272480975998 9.625679094689039e-13 -9.862617948180292e-14 -4.634269552216649e-13" pbc="T T T"
Si       2.18077699       1.11265267       2.98944284       0.55929718       1.37074268      -0.56429740
Si       4.74632709       6.83691282       2.98944284      -0.55929718      -1.37074268      -0.56429740
Si       4.74632709       1.11265267       2.98944284      -0.55929718       1.37074268      -0.56429740
Si       2.18077699       6.83691282       2.98944284       0.55929718      -1.37074268      -0.56429740
Si       4.81307540       2.85456995       1.30918593      -1.68326090      -1.80242626       0.15331309
Si       2.11402868       5.09499555       1.30918593       1.68326090       1.80242626       0.15331309
Si       2.11402868       2.85456995       1.30918593       1.68326090      -1.80242626       0.15331309
Si       4.81307540       5.09499555       1.30918593      -1.68326090       1.80242626       0.15331309
Si      -0.00000000       5.09109957       1.93878645      -0.00000000       2.48524692       0.82196862
Si      -0.00000000       2.85846592       1.93878645       0.00000000      -2.48524692       0.82196862
10
Lattice="6.916963456814098 0.0 0.0 0.0 7.962258672849661 0.0 0.0 0.0 6.107195479341719" Properties=species:S:1:pos:R:3:forces:R:3 unique_starting_index=142 config_type=initial n_minim_iter=10 energy=-1620.7807083428083 stress="0.0038322275061664418 0.0023340077253305937 0.010713145741922175 4.0752243700272525e-12 1.7417233579251735e-12 -9.82181648193791e-13" pbc="T T T"
Si       2.17945103       1.11889087       2.96473423       0.52466437       1.16600445      -0.49808152
Si       4.73751243       6.84336780       2.96473423      -0.52466438      -1.16600445      -0.49808152
Si       4.73751243       1.11889087       2.96473423      -0.52466437       1.16600445      -0.49808152
Si       2.17945103       6.84336780       2.96473423       0.52466438      -1.16600445      -0.49808152
Si       4.80041212       2.85326119       1.29907800      -1.67405943      -1.53067300       0.09128593
Si       2.11655133       5.10899748       1.29907800       1.67405943       1.53067300       0.09128593
Si       2.11655133       2.85326119       1.29907800       1.67405944      -1.53067300       0.09128593
Si       4.80041212       5.10899748       1.29907800      -1.67405944       1.53067300       0.09128593
Si      -0.00000000       5.10731779       1.92487662      -0.00000000       2.31727615       0.81359119
Si      -0.00000000       2.85494088       1.92487662       0.00000000      -2.31727615       0.81359119
10
Lattice="6.874321235603755 0.0 0.0 0.0 7.932326642771574 0.0 0.0 0.0 6.002524689768615" Properties=species:S:1:pos:R:3:forces:R:3 unique_starting_index=142 config_type=initial n_minim_iter=11 energy=-1621.128286498448 stress="0.0016696931756910718 -0.005432971497642646 0.003418412580346935 1.0772472860679417e-13 2.788258473727161e-12 -2.1037157154253155e-12" pbc="T T T"
Si       2.17029697       1.12401712       2.91179121       0.52831900       0.93581668      -0.28873204
Si       4.70402427       6.80830952       2.91179121      -0.52831900      -0.93581668      -0.28873204
Si       4.70402427       1.12401712       2.91179121      -0.52831900       0.93581668      -0.28873204
Si       2.17029697       6.80830952       2.91179121       0.52831900      -0.93581668      -0.28873204
Si       4.75715556       2.83028395       1.27720369      -1.81285676      -1.06971822      -0.15975810
Si       2.11716568       5.10204270       1.27720369       1.81285676       1.06971822      -0.15975810
Si       2.11716568       2.83028395       1.27720369       1.81285676      -1.06971822      -0.15975810
Si       4.75715556       5.10204270       1.27720369      -1.81285676       1.06971822      -0.15975810
Si      -0.00000000       5.10666511       1.89536661       0.00000000       2.18293799       0.89698027
Si      -0.00000000       2.82566154       1.89536661       0.00000000      -2.18293799       0.89698027
10
Lattice="6.853068307560162 0.0 0.0 0.0 8.012651910365783 0.0 0.0 0.0 5.964592574719863" Properties=species:S:1:pos:R:3:forces:R:3 unique_starting_index=142 config_type=initial n_minim_iter=12 energy=-1621.395156542369 stress="0.012398251345336526 0.019558586423940927 0.005830794845719465 -3.0842260704942222e-12 1.0610419264953864e-12 -4.670444652355145e-13" pbc="T T T"
Si       2.16863226       1.14430079       2.89196599       0.27862344       0.40586299      -0.21557818
Si       4.68443605       6.86835112       2.89196599      -0.27862344      -0.40586299      -0.21557818
Si       4.68443605       1.14430079       2.89196599      -0.27862343       0.40586299      -0.21557818
Si       2.16863226       6.86835112       2.89196599       0.27862343      -0.40586299      -0.21557818
Si       4.72513665       2.84876912       1.26834435      -1.61383071      -0.54795110      -0.18298640
Si       2.12793166       5.16388279       1.26834435       1.61383071       0.54795110      -0.18298640
Si       2.12793166       2.84876912       1.26834435       1.61383071      -0.54795110      -0.18298640
Si       4.72513665       5.16388279       1.26834435      -1.61383071       0.54795110      -0.18298640
Si      -0.00000000       5.17914099       1.88781470      -0.00000000       1.78857536       0.79712917
Si      -0.00000000       2.83351092       1.88781470       0.00000000      -1.78857536       0.79712917
10
Lattice="6.806649394428418 0.0 0.0 0.0 7.927201900751386 0.0 0.0 0.0 5.945558177471964" Properties=species:S:1:pos:R:3:forces:R:3 unique_starting_index=142 config_type=initial n_minim_iter=13 energy=-1621.4957839343467 stress="0.0008333293753223383 -0.006635196096389527 -0.0021659424204319845 4.454854545504864e-12 1.129608286407971e-12 1.72154734000932e-12" pbc="T T T"
Si       2.15472138       1.13323723       2.88242583       0.42594671       0.62343481      -0.10710027
Si       4.65192801       6.79396467       2.88242583      -0.42594671      -0.62343481      -0.10710027
Si       4.65192801       1.13323723       2.88242583      -0.42594671       0.62343481      -0.10710027
Si       2.15472138       6.79396467       2.88242583       0.42594671      -0.62343481      -0.10710027
Si       4.68862347       2.81685003       1.26403260      -1.89017380      -0.62087229      -0.36779576
Si       2.11802592       5.11035187       1.26403260       1.89017380       0.62087229      -0.36779576
Si       2.11802592       2.81685003       1.26403260       1.89017380      -0.62087229      -0.36779576
Si       4.68862347       5.11035187       1.26403260      -1.89017380       0.62087229      -0.36779576
Si      -0.00000000       5.12893115       1.88294105       0.00000000       1.94493289       0.94979204
Si      -0.00000000       2.79827075       1.88294105       0.00000000      -1.94493289       0.94979204
10
Lattice="6.80440961421999 0.0 0.0 0.0 7.948002202257371 0.0 0.0 0.0 5.950646235988309" Properties=species:S:1:pos:R:3:forces:R:3 unique_starting_index=142 config_type=initial n_minim_iter=14 energy=-1621.5525502484963 stress="0.004477280487439103 0.0004907039700098611 -0.000460081252810947 6.844841729653325e-12 -3.066985753387331e-12 8.658719186641211e-13" pbc="T T T"
Si       2.15488123       1.13748803       2.88477907       0.36536645       0.52578908      -0.11350793
Si       4.64952839       6.81051417       2.88477907      -0.36536645      -0.52578908      -0.11350793
Si       4.64952839       1.13748803       2.88477907      -0.36536645       0.52578908      -0.11350793
Si       2.15488123       6.81051417       2.88477907       0.36536645      -0.52578908      -0.11350793
Si       4.68322495       2.82296918       1.26472469      -1.81625943      -0.54922570      -0.34568072
Si       2.12118466       5.12503302       1.26472469       1.81625943       0.54922570      -0.34568072
Si       2.12118466       2.82296918       1.26472469       1.81625943      -0.54922570      -0.34568072
Si       4.68322495       5.12503302       1.26472469      -1.81625943       0.54922570      -0.34568072
Si      -0.00000000       5.14637377       1.88555861       0.00000000       1.87308612       0.91837729
Si      -0.00000000       2.80162844       1.88555861      -0.00000000      -1.87308612       0.91837729
10
Lattice="6.792085587131897 0.0 0.0 0.0 7.946423224943495 0.0 0.0 0.0 5.951754850614264" Properties=species:S:1:pos:R:3:forces:R:3 unique_starting_index=142 config_type=initial n_minim_iter=15 energy=-1621.6055445953177 stress="0.004326373473784839 0.00016967111512339797 -0.0008531121804998138 1.0307560613428148e-12 1.168794989549091e-13 4.1261188770173254e-12" pbc="T T T"
Si       2.15173840       1.13836564       2.88519349       0.34932181       0.50333712      -0.09651828
Si       4.64034718       6.80805759       2.88519349      -0.34932181      -0.50333712      -0.09651828
Si       4.64034718       1.13836564       2.88519349      -0.34932181       0.50333712      -0.09651828
Si       2.15173840       6.80805759       2.88519349       0.34932181      -0.50333712      -0.09651828
Si       4.67096448       2.82125558       1.26458566      -1.81791979      -0.51717617      -0.36621428
Si       2.12112111       5.12516764       1.26458566       1.81791979       0.51717617      -0.36621428
Si       2.12112111       2.82125558       1.26458566       1.81791979      -0.51717617      -0.36621428
Si       4.67096448       5.12516764       1.26458566      -1.81791979       0.51717617      -0.36621428
Si      -0.00000000       5.14928282       1.88690524       0.00000000       1.84902090       0.92546513
Si      -0.00000000       2.79714041       1.88690524      -0.00000000      -1.84902090       0.92546513
10
Lattice="6.676145634563869 0.0 0.0 0.0 7.941059428813314 0.0 0.0 0.0 5.971995660305801" Properties=species:S:1:pos:R:3:forces:R:3 unique_starting_index=142 config_type=initial n_minim_iter=16 energy=-1622.0744702046325 stress="-0.0021185267423255547 -0.004714498421479034 -0.004610569642498627 -8.968733114432675e-13 3.0393255904711585e-12 -8.122220771718228e-13" pbc="T T T"
Si       2.12202906       1.14799081       2.89397177       0.16804522       0.29281147       0.06582467
Si       4.55411657       6.79306862       2.89397177      -0.16804522      -0.29281147       0.06582467
Si       4.55411657       1.14799081       2.89397177      -0.16804522       0.29281148       0.06582467
Si       2.12202906       6.79306862       2.89397177       0.16804522      -0.29281147       0.06582467
Si       4.55469591       2.80867192       1.26496404      -1.60780900      -0.22573544      -0.54305365
Si       2.12144972       5.13238751       1.26496404       1.60780900       0.22573544      -0.54305365
Si       2.12144972       2.80867192       1.26496404       1.60780900      -0.22573544      -0.54305365
Si       4.55469591       5.13238751       1.26496404      -1.60780900       0.22573544      -0.54305365
Si      -0.00000000       5.18398809       1.90323418      -0.00000000       1.54792149       0.95445795
Si      -0.00000000       2.75707134       1.90323418      -0.00000000      -1.54792149       0.95445795
10
Lattice="6.72761117142231 0.0 0.0 0.0 8.077932578682047 0.0 0.0 0.0 6.072641622396994" Properties=species:S:1:pos:R:3:forces:R:3 unique_starting_index=142 config_type=initial n_minim_iter=17 energy=-1622.0914827627928 stress="0.039403619398714444 0.053198758042636456 0.014792274080201125 2.3560586226161353e-12 1.8090389134707164e-13 2.3145124983265375e-12" pbc="T T T"
Si       2.14147904       1.17345798       2.94340859      -0.33177825      -0.18121358      -0.18932678
Si       4.58613213       6.90447460       2.94340859       0.33177825       0.18121358      -0.18932678
Si       4.58613213       1.17345798       2.94340859       0.33177825      -0.18121358      -0.18932678
Si       2.14147904       6.90447460       2.94340859      -0.33177825       0.18121358      -0.18932678
Si       4.56022859       2.85270352       1.28079820      -0.47114979      -0.06201281      -0.13824976
Si       2.16738258       5.22522906       1.28079820       0.47114979       0.06201281      -0.13824976
Si       2.16738258       2.85270352       1.28079820       0.47114979      -0.06201281      -0.13824976
Si       4.56022859       5.22522906       1.28079820      -0.47114979       0.06201281      -0.13824976
Si      -0.00000000       5.30336810       1.94494838       0.00000000       1.50363721       0.65515308
Si      -0.00000000       2.77456447       1.94494838       0.00000000      -1.50363721       0.65515308
10
Lattice="6.626006541571045 0.0 0.0 0.0 7.913660118516309 0.0 0.0 0.0 6.038048522484065" Properties=species:S:1:pos:R:3:forces:R:3 unique_starting_index=142 config_type=initial n_minim_iter=18 energy=-1622.3600900580748 stress="-0.0067814649498516 -0.010376167912608814 -0.004051236488309233 -2.6156670361749078e-12 1.6140885633909526e-14 -1.1493045515613724e-12" pbc="T T T"
Si       2.10851787       1.14923651       2.92644373       0.10911897       0.34765915       0.13287950
Si       4.51748868       6.76442361       2.92644373      -0.10911897      -0.34765915       0.13287950
Si       4.51748868       1.14923651       2.92644373      -0.10911897       0.34765915       0.13287950
Si       2.10851787       6.76442361       2.92644373       0.10911897      -0.34765915       0.13287950
Si       4.49047782       2.79456853       1.27335778      -0.85975468      -0.23899466      -0.58480681
Si       2.13552872       5.11909159       1.27335778       0.85975468       0.23899466      -0.58480681
Si       2.13552872       2.79456853       1.27335778       0.85975468      -0.23899466      -0.58480681
Si       4.49047782       5.11909159       1.27335778      -0.85975468       0.23899466      -0.58480681
Si      -0.00000000       5.19849028       1.93455265      -0.00000000       1.28891770       0.90385461
Si      -0.00000000       2.71516984       1.93455265       0.00000000      -1.28891770       0.90385461
10
Lattice="6.64000648533777 0.0 0.0 0.0 7.939258254907726 0.0 0.0 0.0 6.045666690225624" Properties=species:S:1:pos:R:3:forces:R:3 unique_starting_index=142 config_type=initial n_minim_iter=19 energy=-1622.380840048531 stress="0.0019565537979413616 0.0009347479363060034 -0.0006537929013641693 1.2513514048224988e-12 1.4770369268876782e-12 1.2118973705545577e-12" pbc="T T T"
Si       2.11314175       1.15352109       2.93025198       0.05054149       0.24870545       0.07463593
Si       4.52686474       6.78573716       2.93025198      -0.05054149      -0.24870545       0.07463593
Si       4.52686474       1.15352109       2.93025198      -0.05054149       0.24870545       0.07463593
Si       2.11314175       6.78573716       2.93025198       0.05054149      -0.24870545       0.07463593
Si       4.49863533       2.80321816       1.27445394      -0.77008820      -0.19622001      -0.51017488
Si       2.14137116       5.13604009       1.27445394       0.77008820       0.19622001      -0.51017488
Si       2.14137116       2.80321816       1.27445394       0.77008820      -0.19622001      -0.51017488
Si       4.49863533       5.13604009       1.27445394      -0.77008820       0.19622001      -0.51017488
Si      -0.00000000       5.21740845       1.93778236       0.00000000       1.30127357       0.87107791
Si      -0.00000000       2.72184980       1.93778236      -0.00000000      -1.30127357       0.87107791
10
Lattice="6.636269260004479 0.0 0.0 0.0 7.9371231104052296 0.0 0.0 0.0 6.046804151149986" Properties=species:S:1:pos:R:3:forces:R:3 unique_starting_index=142 config_type=initial n_minim_iter=20 energy=-1622.3922542236132 stress="0.0008851088812665423 4.971680964939901e-06 -0.0009481774742482699 5.437201421209372e-12 1.2665269608616286e-12 -9.022535570476591e-13" pbc="T T T"
Si       2.11202434       1.15358462       2.93086321       0.05060229       0.25072451       0.08225802
Si       4.52424492       6.78353849       2.93086321      -0.05060229      -0.25072451       0.08225802
Si       4.52424492       1.15358462       2.93086321      -0.05060229       0.25072451       0.08225802
Si       2.11202434       6.78353849       2.93086321       0.05060229      -0.25072451       0.08225802
Si       4.49500725       2.80216940       1.27428416      -0.74275656      -0.19209381      -0.51933133
Si       2.14126201       5.13495371       1.27428416       0.74275656       0.19209381      -0.51933133
Si       2.14126201       2.80216940       1.27428416       0.74275656      -0.19209381      -0.51933133
Si       4.49500725       5.13495371       1.27428416      -0.74275656       0.19209381      -0.51933133
Si      -0.00000000       5.21796085       1.93884624      -0.00000000       1.28258431       0.87414661
Si      -0.00000000       2.71916226       1.93884624      -0.00000000      -1.28258431       0.87414661
10
Lattice="6.632604777060546 0.0 0.0 0.0 7.937098485326004 0.0 0.0 0.0 6.0503831039433065" Properties=species:S:1:pos:R:3:forces:R:3 unique_starting_index=142 config_type=initial n_minim_iter=21 energy=-1622.4155158690426 stress="0.0005344917719888052 0.00023512316563651682 -0.0008997939702552808 4.832367861234805e-12 1.3359409033671659e-12 2.40294826484151e-12" pbc="T T T"
Si       2.11101422       1.15439848       2.93274133       0.04037195       0.23842987       0.08649804
Si       4.52159055       6.78270000       2.93274133      -0.04037195      -0.23842987       0.08649804
Si       4.52159055       1.15439848       2.93274133      -0.04037195       0.23842987       0.08649804
Si       2.11101422       6.78270000       2.93274133       0.04037195      -0.23842987       0.08649804
Si       4.49023349       2.80153442       1.27413292      -0.67080947      -0.17809682      -0.52293525
Si       2.14237129       5.13556406       1.27413292       0.67080947       0.17809682      -0.52293525
Si       2.14237129       2.80153442       1.27413292       0.67080947      -0.17809682      -0.52293525
Si       4.49023349       5.13556406       1.27413292      -0.67080947       0.17809682      -0.52293525
Si      -0.00000000       5.22212629       1.94151787       0.00000000       1.24999384       0.87287441
Si      -0.00000000       2.71497219       1.94151787      -0.00000000      -1.24999384       0.87287441
10