12
Lattice="5.309276824921452 -1.2241639869333821e-31 -2.3304030042402353e-31 1.995664676978676e-31 8.935255996990941 1.0084746876596397e-16 1.9118067169246388e-32 -2.5125180265480233e-16 8.984764050479006" Properties=species:S:1:pos:R:3:forces:R:3 unique_starting_index=352 config_type=initial n_minim_iter=7 energy=-1949.739283886422 stress="6.520861311672494e-05 5.879194322453936e-13 7.189929221601508e-16 5.879194322453936e-13 6.880032887705096e-06 1.2672888387674236e-16 7.189929221601508e-16 1.2672888387674236e-16 2.0432366006364746e-05" free_energy=-1949.739283886422 pbc="T T T"
Si       4.17154087       5.45453420       2.24589315       0.00510027      -0.00362998       0.00191724
Si       1.13773596       5.45453420       2.24648887      -0.00510027      -0.00362998      -0.00191724
Si       1.51690245       7.94834980       2.24648887       0.00510027       0.00362998      -0.00191724
Si       3.79237437       7.94834980       2.24589315      -0.00510027       0.00362998       0.00191724
Si       1.13773596       3.48072180       6.73887090      -0.00510027       0.00362998      -0.00191724
Si       4.17154087       3.48072180       6.73827518       0.00510027       0.00362998       0.00191724
Si       3.79237437       0.98690620       6.73827518      -0.00510027      -0.00362998       0.00191724
Si       1.51690245       0.98690620       6.73887090       0.00510027      -0.00362998      -0.00191724
Si       0.00000000       0.68593604       2.24619101      -0.00000000      -0.00266405       0.00000000
Si       0.00000000       8.24931995       6.73857304       0.00000000       0.00266405       0.00000000
Si       2.65463841       3.78169196       2.24619101       0.00000000       0.00266405      -0.00000000
Si       2.65463841       5.15356404       6.73857304       0.00000000      -0.00266405      -0.00000000
