10
Lattice="5.5195262740554 0.19251846545571433 -1.2210764806071508 0.7883367309343609 5.140897553174718 -1.3347796344863119 -0.9419102882232875 1.6251969269214241 7.558091755839501" Properties=species:S:1:pos:R:3:forces:R:3 unique_starting_index=87 config_type=initial n_minim_iter=1 energy=-1627.0988847385936 stress="-1.4724735527516492e-05 6.6424807676411655e-06 5.316210915580396e-06 6.6424807676411655e-06 -2.630120680946586e-05 1.2746508428204053e-05 5.316210915580396e-06 1.2746508428204053e-05 -8.477187163042675e-08" free_energy=-1627.0988847385936 pbc="T T T"
Si       2.94519113       6.12917690       3.22655316      -0.00192595       0.00486258       0.00602898
Si       1.63649482       3.11680884       3.71571298      -0.00049410      -0.00418473       0.00254230
Si       4.13160043       3.05601431       0.31309921      -0.00054493       0.00185913      -0.00300764
Si       0.86196854       3.15575476       1.00365927      -0.00200752       0.00417245       0.00388294
Si       0.28677651       1.25627768       6.08070567       0.00128363       0.00180987       0.00023431
Si       1.82550309       1.72723721      -0.53586728      -0.00105089      -0.00830033      -0.00121164
Si       4.79131894       5.14850711       4.58869055       0.00329601      -0.00265430      -0.00289938
Si       2.80514131       4.17565535       1.92654598      -0.00063334       0.00065583      -0.00111123
Si       2.47774798       4.52318496       5.55943338       0.00001629       0.00248984      -0.00432625
Si       4.85777971       3.22951405       3.10186304       0.00206080      -0.00071036      -0.00013240
