16
Lattice="6.833833863129348 1.893103818392275e-13 7.097879801606084e-15 -3.416916931564839 5.918273730712266 -1.0612566590569905e-14 2.0857151900559835e-15 4.546745086577821e-14 18.32686015224039" Properties=species:S:1:pos:R:3:forces:R:3 unique_starting_index=304 config_type=initial n_minim_iter=17 energy=-2595.5365097050367 stress="3.22753857998798e-05 3.770469298790915e-12 -1.5778802899749594e-12 3.770469298790915e-12 3.227538842534164e-05 -1.350791991164074e-12 -1.5778802899749594e-12 -1.350791991164074e-12 4.5109582201994874e-06" free_energy=-2595.5365097050367 pbc="T T T"
Si       1.33229617       5.11808064       8.36390135       0.00133407       0.00055302       0.00029432
Si      -1.68162004       4.51303514       8.36390135      -0.00114596       0.00087883       0.00029432
Si       0.34932284       2.20542989       8.36390135      -0.00018811      -0.00143185       0.00029432
Si       2.08462008       0.80019190       8.36390135      -0.00133407      -0.00055302       0.00029432
Si       5.09853628       1.40523740       8.36390135       0.00114596      -0.00087883       0.00029432
Si       3.06759341       3.71284265       8.36390135       0.00018811       0.00143185       0.00029432
Si       4.16974583       3.65829676       0.57864861      -0.00058692      -0.00479122       0.00000000
Si       1.58078199       1.78195684       0.57864861       0.00444278       0.00188732      -0.00000000
Si       4.50022195       0.47801835       0.57864861      -0.00385586       0.00290390       0.00000000
Si      -0.75282958       2.25997578       0.57864861       0.00058693       0.00479122      -0.00000000
Si       1.83613426       4.13631570       0.57864861      -0.00444278      -0.00188732      -0.00000000
Si      -1.08330570       5.44025420       0.57864861       0.00385586      -0.00290390       0.00000000
Si       3.41691659       1.97275732       9.79757483       0.00000000       0.00000000      -0.00071455
Si      -0.00000034       3.94551523       9.79757483      -0.00000000       0.00000000      -0.00071455
Si      -0.00000034       3.94551523      12.20800821       0.00000000       0.00000000      -0.00016841
Si       3.41691659       1.97275732      12.20800821       0.00000000      -0.00000000      -0.00016841
