12
Lattice="5.901303220719214 4.654092289862327e-07 -8.923424688675212e-07 -5.493948866664532e-07 5.751907848302441 -0.6333384737044215 -2.950650285406028 -3.5182616056234477 6.9272976809195885" Properties=species:S:1:pos:R:3:forces:R:3 unique_starting_index=484 config_type=initial n_minim_iter=6 energy=-1954.6403636816094 stress="0.00015194629508242548 2.2149874291620493e-11 -8.33189592257946e-12 2.2149874291620493e-11 -0.00010784860381137217 2.970631248487075e-05 -8.33189592257946e-12 2.970631248487075e-05 5.346495979259081e-05" free_energy=-1954.6403636816094 pbc="T T T"
Si       0.52986995       0.71254930       5.34862896      -0.00509852      -0.00188455      -0.00056792
Si       3.48052083       1.52109749       0.94532918      -0.00509852       0.00188454       0.00056792
Si      -0.62987816       3.06199162       0.85937843      -0.00317025       0.00398245      -0.00477582
Si       2.32077445      -0.82834501       5.43458006      -0.00317024      -0.00398244       0.00477582
Si       0.62987821       0.18603780       1.17604747       0.00317024       0.00398245      -0.00477582
Si      -2.32077295       2.04760855       5.11791152       0.00317025      -0.00398245       0.00477582
Si       4.43213168      -0.43842267       2.13911027       0.00385239       0.00450785      -0.00589124
Si       1.48148012       2.67206961       4.15484758       0.00385239      -0.00450785       0.00589124
Si      -1.48147902      -0.20388455       4.47151726      -0.00385239      -0.00450785       0.00589124
Si       1.46917198       2.43753103       1.82244148      -0.00385239       0.00450785      -0.00589124
Si       2.42078215       4.39705133       0.62866010       0.00509852       0.00188455       0.00056792
Si      -0.52986818      -2.16340471       5.66529835       0.00509852      -0.00188455      -0.00056792
