22
Lattice="7.350698398619002 -0.9111160246781058 -0.6283840633449959 -0.31657658426307833 9.769630442865 0.16769858845739094 -1.1116939223570732 2.6144897531769735 8.253689347328836" Properties=species:S:1:pos:R:3:forces:R:3 unique_starting_index=184 config_type=initial n_minim_iter=1 energy=-3575.3227968256456 stress="-0.0014393768405037248 -0.0009663824828534589 -3.718275180309139e-05 -0.0009663824828534589 -0.0004737611085067829 -6.470989248856507e-05 -3.718275180309139e-05 -6.470989248856507e-05 -0.0013795674333746202" free_energy=-3575.3227968256456 pbc="T T T"
Si       2.74032402       4.62020243       8.22172470      -0.16061087       0.09546548      -0.06575982
Si       1.77341982       6.24562457       2.03494828      -0.02583857      -0.00795414       0.03714652
Si       4.39860544       3.58035625       6.87646759       0.00927840      -0.01193895       0.10459473
Si       5.75333592       1.76719800       6.56365583      -0.02474612       0.11905641       0.02545359
Si       1.87529476      10.27998691       4.27045224       0.07376831      -0.03946458       0.00995635
Si       2.14093793       7.87558545       4.47045439       0.18516630      -0.06569093       0.07101960
Si      -0.17188288       8.73015902       3.28807420      -0.02867390       0.01652795      -0.01100838
Si       2.85890128       5.75844968       5.89816103       0.02698306       0.04413866       0.05323341
Si      -0.54154125      10.96298731       4.44550122      -0.08843966      -0.05137032      -0.21545633
Si       6.90324293       2.56008369       2.97060492      -0.08366620      -0.00504120      -0.04225715
Si       6.21608552       3.83749542       4.95439105      -0.02386937      -0.01812350      -0.05700281
Si       3.86269907       7.37841382       2.73991806       0.12417211       0.00119668      -0.01364698
Si      -0.43376339       8.42974808       7.89596239       0.05503610       0.14529650       0.06869931
Si       5.84058656       9.28545769       5.87596279       0.06858065      -0.02295330       0.08533641
Si       4.21094985       9.52738724       3.91583593      -0.03249506      -0.04662608      -0.10305271
Si       3.97848463       2.04998723       4.69684161      -0.07886153       0.04937109       0.03470606
Si       1.05766628       5.19516936       4.21935946       0.03045238      -0.04961990       0.10535257
Si       4.77490020       2.71615732       2.02589793       0.04068975      -0.07037923       0.06591435
Si      -0.29417568       7.19694626       5.21410193      -0.09114838       0.01321855       0.07719637
Si       4.57174005       5.55523128       4.18558427       0.04177630      -0.02802292      -0.14146643
Si       7.39438736       6.87283290       0.12741606      -0.07086067      -0.09096011      -0.05037568
Si       3.19176558       3.87210345       3.26587506       0.05330696       0.02387384      -0.03858297
22
Lattice="7.359667214967582 -0.904970402517563 -0.62898833309561 -0.3082432258794329 9.773647611642721 0.1684880616255859 -1.1105506610653029 2.615137431391594 8.264358023701885" Properties=species:S:1:pos:R:3:forces:R:3 unique_starting_index=184 config_type=initial n_minim_iter=2 energy=-3575.324749896925 stress="0.0002171856844604331 -0.0008158491768971574 0.00021240984767824814 -0.0008158491768971574 0.0009730747381325269 -0.00011953834670338615 0.00021240984767824814 -0.00011953834670338615 0.0011801285746426914" free_energy=-3575.324749896925 pbc="T T T"
Si       2.74814530       4.62533100       8.23250079      -0.11792401       0.08456003      -0.06849045
Si       1.78140842       6.25006520       2.03804454      -0.03732433      -0.00760127       0.03246385
Si       4.40793228       3.58626165       6.88579081       0.01213001       0.00227723       0.08785349
Si       5.76278128       1.77371047       6.57239089      -0.02762065       0.11002466       0.02842330
Si       1.88726859      10.28637460       4.27660814       0.08382573      -0.03473069       0.00493470
Si       2.15129736       7.88112543       4.47682833       0.15604690      -0.06524629       0.03983139
Si      -0.16422555       8.73406276       3.29277733      -0.02151232      -0.00106100      -0.01639725
Si       2.86811935       5.76396342       5.90622931       0.03357304       0.04500425       0.03320504
Si      -0.53243285      10.96750165       4.45147874      -0.09317529      -0.07242666      -0.18734447
Si       6.91471432       2.56756077       2.97472637      -0.09316077       0.02327376      -0.04191527
Si       6.22794812       3.84501630       4.96107764      -0.03099526      -0.01361950      -0.05357700
Si       3.87475325       7.38528025       2.74397443       0.09500822      -0.00204396      -0.02439451
Si      -0.42643172       8.43376718       7.90665568       0.05657090       0.13590721       0.04591271
Si       5.85700687       9.29508264       5.88436837       0.07659808      -0.02272857       0.09428861
Si       4.22518378       9.53550342       3.92139364      -0.02074172      -0.03953870      -0.08647220
Si       3.98566458       2.05481112       4.70316092      -0.08466929       0.04247051       0.02235316
Si       1.06392433       5.19857229       4.22526906       0.03545294      -0.03712617       0.08194615
Si       4.78383775       2.72163609       2.02892037       0.03538473      -0.07493692       0.06865401
Si      -0.28808792       7.20017728       5.22131156      -0.08652078       0.00982310       0.05198731
Si       4.58302561       5.56197203       4.19119967       0.02123093      -0.04866869      -0.12150067
Si       7.41029881       6.88233642       0.12816592      -0.04834542      -0.08243752       0.02038611
Si       3.19968943       3.87689668       3.27033046       0.05616833       0.04882522      -0.01214801
22
Lattice="7.3671022757837 -0.885054042229582 -0.6314076489133627 -0.28342589271223345 9.761380768798418 0.17132907970039482 -1.108002530005559 2.6115639815596268 8.261412442199347" Properties=species:S:1:pos:R:3:forces:R:3 unique_starting_index=184 config_type=initial n_minim_iter=3 energy=-3575.3272324696527 stress="1.4727650555346211e-05 0.00036054872472082565 5.33896808413454e-05 0.00036054872472082565 -0.00044082981390364403 0.00015714805287794713 5.33896808413454e-05 0.00015714805287794713 0.00014929606199109367" free_energy=-3575.3272324696527 pbc="T T T"
Si       2.76023234       4.62980536       8.22851477      -0.14063966       0.10918306      -0.03414259
Si       1.79903548       6.24785302       2.03842101      -0.00311346      -0.01489644       0.07232142
Si       4.42068146       3.59540003       6.88243442      -0.02402091       0.06565144       0.10340014
Si       5.77252065       1.78899050       6.56787001       0.01599141       0.08461834       0.01922994
Si       1.91529325      10.28017993       4.27687135       0.10096910      -0.01215025       0.02089598
Si       2.17382423       7.87836144       4.47644005       0.16091324      -0.07117640       0.04042341
Si      -0.14308095       8.72432278       3.29365791      -0.02212986      -0.00470462      -0.00198690
Si       2.88493009       5.76651539       5.90422946       0.04200739       0.06105751       0.01392225
Si      -0.50672177      10.95415439       4.45162000      -0.08943231      -0.08809178      -0.18276621
Si       6.92888768       2.58333125       2.97146893      -0.07924372       0.05161902      -0.04372540
Si       6.24417757       3.85793949       4.95737468      -0.03581012      -0.02992590      -0.06311218
Si       3.89850940       7.38738474       2.74335166       0.07131111       0.01380489      -0.05069760
Si      -0.40754001       8.42571193       7.90561565       0.07837441       0.05027804       0.01577601
Si       5.88705534       9.30085440       5.88264794       0.05983044      -0.02933935       0.03836062
Si       4.25388823       9.53610538       3.92032322      -0.00837345      -0.03715746      -0.08136398
Si       3.99416223       2.06427807       4.70023826      -0.08859190       0.01745062       0.01530237
Si       1.07750294       5.19620125       4.22479384       0.01890082      -0.04312213       0.09253073
Si       4.79660167       2.73101323       2.02744490       0.04495219      -0.09800090       0.04973523
Si      -0.27204349       7.19250564       5.22122819      -0.07191945      -0.00734632       0.06968150
Si       4.60210812       5.56827033       4.18854459       0.00777878      -0.07490305      -0.11035252
Si       7.43739022       6.89298795       0.12756493      -0.07280895      -0.03700104       0.02861827
Si       3.21305764       3.88174211       3.26864967       0.03505489       0.09415273      -0.01205049
22
Lattice="7.377879199031722 -0.8826228587313362 -0.6360409196374286 -0.27926428701083056 9.779700543642369 0.1623158309569142 -1.1160335022500076 2.608455089746691 8.241783076281868" Properties=species:S:1:pos:R:3:forces:R:3 unique_starting_index=184 config_type=initial n_minim_iter=4 energy=-3575.332043493489 stress="0.0005236897923311122 0.0003080252720085395 -0.0003619095990068896 0.0003080252720085395 0.0006347269901571699 2.1327233702245162e-05 -0.0003619095990068896 2.1327233702245162e-05 -0.0006527697821173822" free_energy=-3575.332043493489 pbc="T T T"
Si       2.75584808       4.63459081       8.20257926      -0.14103580       0.10409296      -0.04856522
Si       1.80247807       6.25849814       2.02781792       0.02367134      -0.01437049       0.10347808
Si       4.42211432       3.59900363       6.86195552       0.00507123       0.05790947       0.10174102
Si       5.77564432       1.79116425       6.54681434       0.00588454       0.09392302       0.01084682
Si       1.92105625      10.29637858       4.25660485       0.10303819      -0.01804065       0.02789707
Si       2.18006559       7.88888550       4.45826523       0.14615755      -0.04568981       0.03925224
Si      -0.14261589       8.73784360       3.27842498      -0.02280254      -0.01538198       0.03107856
Si       2.88720784       5.77468593       5.88371059       0.06548500       0.06928466       0.00301933
Si      -0.50822136      10.96900673       4.42828418      -0.09503917      -0.05977719      -0.17497473
Si       6.93559984       2.58968757       2.95519721      -0.03284898       0.02431455      -0.03882903
Si       6.24971102       3.86322465       4.93581640      -0.05153972      -0.02791123      -0.04052458
Si       3.90691298       7.40103876       2.72606205       0.05562311      -0.00777108      -0.04397339
Si      -0.40988603       8.43604254       7.88142030       0.08056038       0.01477064      -0.00047240
Si       5.89593064       9.31546906       5.85686602       0.05189919      -0.00746033       0.01674578
Si       4.26068893       9.55192369       3.89720952      -0.01203706      -0.02684658      -0.08094782
Si       3.99469221       2.06638338       4.68465784      -0.08350803       0.01221385       0.01134093
Si       1.07813256       5.20186002       4.21165802       0.00907807      -0.04599477       0.09619744
Si       4.80384026       2.73476798       2.01719551       0.00025518      -0.07327357       0.06245215
Si      -0.27546663       7.20127409       5.20479478      -0.05552792      -0.01903185       0.06984359
Si       4.60784031       5.57591482       4.16746568       0.01231128      -0.07063762      -0.09905494
Si       7.44988099       6.90845995       0.11447168      -0.09844249      -0.00617576      -0.01486288
Si       3.21742138       3.88932708       3.25457383       0.03374665       0.06185376      -0.03168801
22
Lattice="7.378599647811824 -0.8762727487921681 -0.62662969172626 -0.2764285342684602 9.761896881669953 0.1204267435790529 -1.110202256765039 2.5685572725316534 8.21908443740383" Properties=species:S:1:pos:R:3:forces:R:3 unique_starting_index=184 config_type=initial n_minim_iter=5 energy=-3575.3441513544763 stress="-0.00023248415997794908 0.0002604696355398614 0.0002773390492744233 0.0002604696355398614 -0.0007617847477766373 -0.002583959213039766 0.0002773390492744233 -0.002583959213039766 0.0009122586257497969" free_energy=-3575.3441513544763 pbc="T T T"
Si       2.74510258       4.60547873       8.16785326      -0.11010552       0.11768448       0.07868448
Si       1.80504056       6.23781253       2.00841813       0.04002309       0.01196469       0.11020577
Si       4.42734367       3.57046204       6.85334945       0.00437843       0.10238457       0.10493732
Si       5.78175532       1.77402646       6.53682922       0.03265030      -0.02949670      -0.00604545
Si       1.93940865      10.25836713       4.21088135       0.01956652      -0.06698667       0.00848299
Si       2.20619073       7.84864278       4.42590004       0.02311777      -0.01467225      -0.04093868
Si      -0.14101024       8.70812674       3.23704412      -0.04890469      -0.10705998       0.08742494
Si       2.89885442       5.74791741       5.85577092       0.07101278       0.08465036      -0.03431572
Si      -0.51418549      10.92122326       4.35181755      -0.13780975       0.01575028      -0.00772792
Si       6.93010758       2.57906985       2.93940129       0.12477161      -0.12981326      -0.05582545
Si       6.25037824       3.83404742       4.90978210      -0.04569842      -0.01287962       0.02942611
Si       3.92162501       7.37845644       2.68838260       0.02636870      -0.12635583      -0.08869858
Si      -0.39307641       8.39664072       7.83792295       0.10522340      -0.19405413      -0.13005345
Si       5.91148011       9.27307969       5.81977974       0.04050048       0.08145664      -0.08328812
Si       4.26489103       9.51527892       3.84350047       0.05941155       0.06488212      -0.06650209
Si       3.98794498       2.04705258       4.67459448      -0.01066466       0.07034481      -0.02098590
Si       1.08521493       5.16960422       4.19663339      -0.01315953       0.05740377       0.02933502
Si       4.81112868       2.71174379       2.01347330      -0.19543828      -0.11916286      -0.04879934
Si      -0.27963560       7.16586484       5.17581961       0.01065259       0.03880985      -0.01726168
Si       4.61482455       5.54161987       4.12679441       0.07610661       0.09883975       0.01597870
Si       7.44380608       6.89222300       0.09123468       0.01159498       0.16571542       0.21344025
Si       3.22654309       3.87895185       3.23342331      -0.08359797      -0.10940545      -0.07747320
22
Lattice="7.383269011622668 -0.8852697492380904 -0.6290068134111128 -0.28379603579330526 9.768550486665482 0.16746124775942647 -1.1115112514121654 2.610865555280249 8.219344968401845" Properties=species:S:1:pos:R:3:forces:R:3 unique_starting_index=184 config_type=initial n_minim_iter=6 energy=-3575.354313784953 stress="0.00018203700339818716 -0.00011216028342243843 -0.00027614622226627896 -0.00011216028342243843 0.0003572042754067469 -0.0001526058393509213 -0.00027614622226627896 -0.0001526058393509213 0.0002445825041641622" free_energy=-3575.354313784953 pbc="T T T"
Si       2.73463755       4.65321752       8.17581292      -0.02093843       0.08176683       0.09818863
Si       1.80153511       6.24919998       2.04095412       0.08169293       0.02574673       0.07415851
Si       4.42770543       3.60609132       6.86831254      -0.00197924       0.07920953       0.12213120
Si       5.78493673       1.80879361       6.53786323      -0.00452486      -0.05277469       0.00405486
Si       1.93999279      10.28194709       4.25587939       0.00953724      -0.04585578       0.03190600
Si       2.21302685       7.86900137       4.46037531      -0.01244260       0.02204582      -0.03769569
Si      -0.14883363       8.72841170       3.27497195      -0.03487106      -0.12606840       0.05660127
Si       2.90039801       5.78199569       5.87649813       0.08283074       0.08276106      -0.07914828
Si      -0.52870088      10.94435557       4.38591842      -0.09775474       0.00714744      -0.01312154
Si       6.92828804       2.59147023       2.94542592       0.22104846      -0.08819603      -0.01001586
Si       6.24903000       3.85385199       4.91839882      -0.02055678      -0.00166164       0.02487083
Si       3.92407342       7.39284277       2.71756250      -0.04530245      -0.07307532      -0.09928552
Si      -0.39298573       8.44369800       7.86797637       0.07897087      -0.23062068      -0.10474973
Si       5.91309322       9.30149623       5.85971185       0.01548527       0.14532118      -0.10387544
Si       4.26012058       9.53442518       3.87856315       0.03389011       0.10634105      -0.05438271
Si       3.98355756       2.06996518       4.67925766      -0.00470529       0.00039267       0.05481051
Si       1.08391963       5.18969126       4.22194641      -0.05408970       0.02934971       0.03763433
Si       4.81333748       2.71339177       2.02786317      -0.34168260      -0.07344609      -0.10107838
Si      -0.28917481       7.19536818       5.20729066       0.05760912      -0.00857059       0.00470049
Si       4.61523505       5.55780540       4.14073591       0.09228118       0.09151481       0.08307187
Si       7.43793339       6.88915165       0.12697299       0.05382268       0.15281658       0.16778927
Si       3.22828928       3.89888009       3.24623557      -0.08832085      -0.12414419      -0.15656462
22
Lattice="7.3842425803726295 -0.8832254030415919 -0.6143943869994096 -0.2800724598793964 9.769411418249938 0.1745774274253267 -1.0943777643647006 2.617372007966333 8.211620269893427" Properties=species:S:1:pos:R:3:forces:R:3 unique_starting_index=184 config_type=initial n_minim_iter=7 energy=-3575.3603990124293 stress="0.00030340451136216595 4.2843828008040634e-05 0.0007424414478128522 4.2843828008040634e-05 0.0005212746948199447 0.00023022619686787613 0.0007424414478128522 0.00023022619686787613 -0.0006708285274502837" free_energy=-3575.3603990124293 pbc="T T T"
Si       2.75295240       4.66276034       8.17875953      -0.06328555       0.09196577       0.09950296
Si       1.80965334       6.25235964       2.04890971       0.07569849       0.02891300       0.02790590
Si       4.44424281       3.61488723       6.87577411       0.01104778       0.04861578       0.10863166
Si       5.80078271       1.81582837       6.54494540      -0.00920268      -0.04123839       0.00775809
Si       1.95335264      10.28627999       4.26457949       0.03811767      -0.01779447       0.04486108
Si       2.22599349       7.87413450       4.46662158       0.00097164       0.02034849      -0.04647712
Si      -0.13975772       8.72998063       3.27939642      -0.03378132      -0.10575012       0.04937760
Si       2.91661294       5.78966217       5.88046556       0.06035306       0.08094721      -0.07385442
Si      -0.51780840      10.94845672       4.38877977      -0.08131600      -0.00113021      -0.05600888
Si       6.94043037       2.59547608       2.95833043       0.13381928      -0.05796409      -0.04855463
Si       6.26212261       3.86027325       4.92953332      -0.02614532      -0.00667110       0.01274069
Si       3.93318305       7.39610859       2.72725505      -0.05517375      -0.05637457      -0.09959168
Si      -0.37287603       8.44760686       7.86531441       0.02775667      -0.13231200      -0.03034865
Si       5.93071124       9.31110571       5.87223438       0.01124549       0.11118076      -0.05448355
Si       4.27328614       9.54128272       3.89008617       0.03100601       0.10553063      -0.05521524
Si       3.99477542       2.07544040       4.68539295      -0.01065005      -0.02017817       0.05191856
Si       1.09395686       5.19421662       4.22521764      -0.02847038       0.00229785       0.07594820
Si       4.81534130       2.71555934       2.03646566      -0.21658151      -0.09049688      -0.05683590
Si      -0.27562759       7.19999044       5.20799039       0.04687725      -0.02895455       0.01364719
Si       4.62856187       5.56439540       4.15137060       0.07567489       0.04231573       0.04529549
Si       7.44380167       6.89450126       0.14967133       0.09484138       0.08572330       0.09863689
Si       3.23616832       3.90152223       3.25054364      -0.08280306      -0.05897396      -0.11485424
22
Lattice="7.37776840619923 -0.8768669079265189 -0.6474106585901848 -0.2746273170501756 9.734349665506624 0.19580328431776786 -1.1248999823095167 2.6238083242558212 8.240998289338286" Properties=species:S:1:pos:R:3:forces:R:3 unique_starting_index=184 config_type=initial n_minim_iter=8 energy=-3575.3703200320715 stress="-0.000933787352699319 -7.125184893421246e-05 -0.001244389914422614 -7.125184893421246e-05 -0.001059328892978627 0.001737426079988482 -0.001244389914422614 0.001737426079988482 -0.0005134493168958438" free_energy=-3575.3703200320715 pbc="T T T"
Si       2.71189236       4.67392739       8.20274834       0.00562399      -0.02184910      -0.18614196
Si       1.80853670       6.23659103       2.06562043       0.01205425      -0.02249583       0.01338151
Si       4.41286732       3.62528890       6.89380467      -0.05567771       0.10431769       0.11217327
Si       5.76859510       1.82525331       6.54199732      -0.02935424       0.00760090       0.06288028
Si       1.94444425      10.25558532       4.29082231      -0.01420868      -0.00206008       0.04380406
Si       2.21504667       7.85517450       4.48276511       0.07391311       0.01098149       0.01855494
Si      -0.15119424       8.69615343       3.30919358      -0.03222055      -0.06794651      -0.00311031
Si       2.89979763       5.79036266       5.88961801       0.07756865       0.01709609      -0.03275332
Si      -0.53849448      10.91497121       4.41525399      -0.01031899      -0.09096735      -0.02359698
Si       6.93358121       2.59175186       2.93947623      -0.09991042       0.06450938      -0.08639773
Si       6.23450757       3.85881158       4.92332234      -0.00680331      -0.10632936      -0.04585243
Si       3.92134909       7.37253299       2.72402947       0.03403418       0.05783340      -0.03936534
Si      -0.39216838       8.42038927       7.89747144      -0.03068305       0.24863445       0.12242098
Si       5.90893746       9.30177312       5.87631862       0.08730670       0.02351937      -0.01906440
Si       4.26049488       9.52371964       3.89451239       0.00984945       0.07350308      -0.09122149
Si       3.96903147       2.08029370       4.68922642      -0.01991721       0.02269003       0.11411382
Si       1.07599107       5.18482365       4.24817088       0.00076791       0.02290938       0.11940319
Si       4.78223831       2.70344507       2.02270421       0.03206112      -0.11757521       0.07170273
Si      -0.29077238       7.18332489       5.23894606       0.05567813      -0.08282586       0.07746198
Si       4.61679673       5.55908365       4.15513985      -0.05720679      -0.06627084       0.04930492
Si       7.44148863       6.88257745       0.14551888       0.03903433      -0.13393496      -0.21266376
Si       3.21634525       3.89086186       3.24214834      -0.07159089       0.05865985      -0.06503397
22
Lattice="7.391400745772672 -0.8675521602742026 -0.6288864142722194 -0.26354125601679007 9.739376920226727 0.17530216985571997 -1.1076966272409776 2.6077022426098306 8.207642100311787" Properties=species:S:1:pos:R:3:forces:R:3 unique_starting_index=184 config_type=initial n_minim_iter=9 energy=-3575.3853020152483 stress="-0.00027574833252416947 0.00011279970043877682 7.087914128493798e-05 0.00011279970043877682 -0.000276201610279045 0.0007234088754683189 7.087914128493798e-05 0.0007234088754683189 -0.0007147077992785179" free_energy=-3575.3853020152483 pbc="T T T"
Si       2.72631354       4.67460380       8.17007909      -0.01356911      -0.01545086      -0.12802284
Si       1.82534911       6.23770744       2.05792465       0.02635618      -0.01128212      -0.01701272
Si       4.43945816       3.62573538       6.88662574      -0.00982055       0.07495450       0.08199506
Si       5.79626402       1.82684080       6.53179190      -0.03522213      -0.01783748       0.05920239
Si       1.97782006      10.25248416       4.26369487      -0.02131539       0.00331779       0.04374555
Si       2.25231085       7.84861199       4.46000237       0.01505729       0.04577427      -0.04421591
Si      -0.13824213       8.69008701       3.28300143      -0.04038694      -0.09657925       0.03761087
Si       2.93131470       5.79299076       5.86477757       0.06716635       0.01494801      -0.04280248
Si      -0.52911999      10.90473693       4.36195806      -0.00776067      -0.03877103       0.00846982
Si       6.95503769       2.59649362       2.93341982      -0.08843972       0.01263050      -0.12427327
Si       6.25828573       3.85513154       4.90807374      -0.02359711      -0.10220167      -0.00735203
Si       3.94993834       7.37468940       2.70198958       0.00157089       0.00164172      -0.04958443
Si      -0.35956765       8.41241540       7.85602564      -0.08054519       0.21756241       0.12102555
Si       5.95122614       9.30423367       5.85295558       0.06667965       0.03880285      -0.02158036
Si       4.28872301       9.52706298       3.86214493       0.03315904       0.12038761      -0.09005549
Si       3.98169906       2.07938705       4.68198313       0.01530682       0.03092549       0.08562501
Si       1.09371407       5.17811117       4.23711528       0.01014925       0.04510707       0.12011760
Si       4.79521869       2.69532544       2.02400782       0.05683587      -0.14690941       0.07657634
Si      -0.27701063       7.17550553       5.21406412       0.08119998      -0.09470578       0.03075388
Si       4.64469883       5.55562500       4.13273636      -0.04472402      -0.04414175       0.05966693
Si       7.46198665       6.89351520       0.14965800       0.11788765      -0.07856090      -0.16687236
Si       3.23455219       3.89427387       3.22494949      -0.12598815       0.04038803      -0.03301713
22
Lattice="7.423010874565669 -0.8509138228681505 -0.6190777581807696 -0.24758351983587548 9.727485519751244 0.13384133559799005 -1.1047748167931157 2.568652637060625 8.156301673307832" Properties=species:S:1:pos:R:3:forces:R:3 unique_starting_index=184 config_type=initial n_minim_iter=10 energy=-3575.4013357127906 stress="0.0007399473156779465 9.553286055735828e-05 0.000915893756446334 9.553286055735828e-05 0.0006803402076523323 -0.0009156539727455818 0.000915893756446334 -0.0009156539727455818 -1.8459172739568418e-05" free_energy=-3575.4013357127906 pbc="T T T"
Si       2.71566291       4.66905743       8.10298380       0.03211943      -0.06167024      -0.10081054
Si       1.85169087       6.22430200       2.04247007       0.02853427      -0.02104559      -0.04272320
Si       4.46628845       3.62169113       6.87643221       0.05890842       0.03196888       0.01370977
Si       5.82687298       1.82292621       6.50270526      -0.06027149      -0.02524056       0.08755663
Si       2.02738697      10.21868556       4.20998345      -0.10136966      -0.00751563       0.01177536
Si       2.31367618       7.81540856       4.41001471      -0.09216646       0.11181787      -0.14022560
Si      -0.13323789       8.64943030       3.23807804      -0.05627860      -0.13587519       0.10635248
Si       2.97773061       5.78834481       5.80882964       0.06367132      -0.04903637      -0.02708778
Si      -0.54076263      10.85512549       4.25429624       0.03058305       0.04682316       0.10091816
Si       6.98821072       2.59404480       2.89322007      -0.06452760      -0.06278784      -0.14598304
Si       6.28362047       3.82984365       4.86018320      -0.03778910      -0.11451477       0.06128721
Si       3.99613738       7.35677220       2.63964518       0.00959670      -0.07765068      -0.02663948
Si      -0.32473529       8.37893002       7.78576565      -0.13505284       0.13505468       0.05961531
Si       6.01653301       9.28905251       5.78967823       0.05076549       0.06724844      -0.06536816
Si       4.32887579       9.51585447       3.77733004       0.05590964       0.19189152      -0.12076410
Si       3.98659422       2.07244406       4.66459884       0.09605001       0.09526921       0.05289167
Si       1.11083781       5.15266304       4.22550837      -0.00780087       0.12368059       0.07832192
Si       4.80536501       2.65770883       2.01388719       0.07138106      -0.19574263       0.07967034
Si      -0.27090565       7.13906944       5.17501721       0.13211197      -0.09942779      -0.02877991
Si       4.68564788       5.53212377       4.07637189      -0.05232667      -0.00585749       0.08611725
Si       7.50364077       6.89674583       0.13162973       0.19959379       0.05925552      -0.05750487
Si       3.25130895       3.88997300       3.17635133      -0.22164189      -0.00664508       0.01767057
22
Lattice="7.399419546954053 -0.8411998292130501 -0.6443347690585142 -0.23736187395367242 9.71120958615118 0.12084048864087142 -1.1267299029248516 2.551126849127629 8.17447982207689" Properties=species:S:1:pos:R:3:forces:R:3 unique_starting_index=184 config_type=initial n_minim_iter=11 energy=-3575.436872820552 stress="-0.00157270113493461 0.0002495700979425785 -0.000265204655442607 0.0002495700979425785 0.0003427617692257808 -0.0008647352658093097 -0.000265204655442607 -0.0008647352658093097 0.0017168406607833062" free_energy=-3575.436872820552 pbc="T T T"
Si       2.66685037       4.66626437       8.09091764       0.02237806      -0.04768156      -0.04086611
Si       1.85530633       6.21153106       2.04305585      -0.03728430      -0.08984504      -0.03940528
Si       4.43132141       3.63255455       6.90343987       0.13268289      -0.04740607      -0.04194695
Si       5.77988143       1.81823690       6.50836242      -0.04707018       0.04246938       0.12954651
Si       2.01911614      10.19015435       4.20701679      -0.13499999       0.04905368      -0.01105554
Si       2.31249752       7.80316764       4.39051579      -0.03611798       0.06584980      -0.08393817