22
Lattice="7.601908178854209 -2.660000719503219e-38 1.2009545285990402e-22 1.0800915584664991e-38 6.205586453570268 -2.295466820257526e-15 -4.047264094263224e-23 3.572205416267748e-15 13.72569532557064" Properties=species:S:1:pos:R:3:forces:R:3 unique_starting_index=32 config_type=initial n_minim_iter=19 energy=-3576.3830825594464 stress="-7.289619600417825e-05 2.9804596074488246e-12 1.5908853820668756e-11 2.9804596074488246e-12 -0.00013033669171874795 1.5313699546537904e-12 1.5908853820668756e-11 1.5313699546537904e-12 -6.552891778136587e-05" free_energy=-3576.3830825594464 pbc="T T T"
Si       2.50091689       1.63053649       7.41132898       0.00087518      -0.00114225       0.00019627
Si       5.10099129       4.57504996       7.41132898      -0.00087518       0.00114225       0.00019627
Si       2.50091689       1.47225673       0.54848132       0.00087518       0.00114225       0.00019627
Si       5.10099129       4.73332972       0.54848132      -0.00087518      -0.00114225       0.00019627
Si       6.83344512       1.54299479      13.04593393      -0.00091432       0.00106362      -0.00115335
Si       0.76846306       4.66259167      13.04593393       0.00091432      -0.00106362      -0.00115335
Si       6.83344512       1.55979844       6.18308626      -0.00091432      -0.00106362      -0.00115335
Si       0.76846306       4.64578801       6.18308626       0.00091432       0.00106362      -0.00115335
Si       5.14448116       1.58634438      10.18474760       0.00153975      -0.00797209       0.00057213
Si       2.45742702       4.61924207      10.18474760      -0.00153975       0.00797209       0.00057213
Si       5.14448116       1.51644884       3.32189993       0.00153975       0.00797209       0.00057213
Si       2.45742702       4.68913761       3.32189993      -0.00153975      -0.00797209       0.00057213
Si       2.60631656       4.21615522       7.79823095      -0.00218045      -0.00015472       0.00311160
Si       4.99559162       1.98943124       7.79823095       0.00218045       0.00015472       0.00311160
Si       2.60631656       5.09222446       0.93538329      -0.00218045       0.00015472       0.00311160
Si       4.99559162       1.11336199       0.93538329       0.00218045      -0.00015472       0.00311160
Si       2.81420595       0.89291105       2.85561422       0.00228765       0.00126023      -0.00576361
Si       4.78770223       5.31267540       2.85561422      -0.00228765      -0.00126023      -0.00576361
Si       2.81420595       2.20988217       9.71846188       0.00228765      -0.00126023      -0.00576361
Si       4.78770223       3.99570428       9.71846188      -0.00228765       0.00126023      -0.00576361
Si       3.80095409       3.10279323       1.97078496      -0.00000000      -0.00000000       0.00607391
Si       3.80095409      -0.00000000       8.83363263       0.00000000      -0.00000000       0.00607391
