20
Lattice="3.7179379399833543 0.5477274030471245 0.6148567017480031 2.0212621555587647 13.458035218986032 -2.497221561681209 -0.6994014961259523 -8.731157778455566 10.129011225472436" Properties=species:S:1:pos:R:3:forces:R:3 unique_starting_index=474 config_type=initial n_minim_iter=1 energy=-3261.4041129895854 stress="2.7995185503765237e-05 5.351942109110799e-06 2.5678478477751294e-06 5.351942109110799e-06 -2.838809681213574e-06 -5.324557355312721e-06 2.5678478477751294e-06 -5.324557355312721e-06 3.3820543630173637e-06" free_energy=-3261.4041129895854 pbc="T T T"
Si       0.75658153      -3.92702117       7.25325361      -0.01466072      -0.00100507       0.00626214
Si       2.46744940       6.37578585       0.22698992       0.01318334       0.02559683      -0.00979326
Si       5.52869362      10.59476161       2.05023022      -0.00948989       0.00756973      -0.01129944
Si       3.80986322      -1.10607445       7.74008265      -0.00450073       0.00153065       0.00463931
Si       3.52558383      -0.67965345       5.44369640       0.00450058       0.00017298       0.00730987
Si       3.79791209      11.72399835      -1.33956876       0.00420839      -0.02413027       0.00819979
Si       4.05774959       6.93342342       1.86851888      -0.01502651       0.00152067       0.01154544
Si       1.61075897       0.23257573       4.41049993      -0.00200659       0.01406839       0.01166628
Si       3.21060109       1.95675716       1.71776614       0.00016188      -0.00619526      -0.00407247
Si       1.99649185      10.24565901      -0.91368856      -0.00076261      -0.00237631      -0.01247400
Si       1.23897652      -7.67138225       8.35584169      -0.00110234       0.00536557      -0.01580571
Si       1.67981159      -0.73529319       8.61928705      -0.01990462       0.00698209       0.00975710
Si       3.65994277       9.16369843       2.56333751       0.00353754      -0.00291888      -0.00462381
Si       2.44673724      -4.12360518       8.87544821       0.00063309       0.00889541       0.00630139
Si      -0.92349080      -6.90541608       8.91651713       0.00184027      -0.01157628       0.02403776
Si       1.75866792       2.48656168       5.07250155       0.01665593      -0.01159676      -0.00739292
Si       1.47220646       0.42867519       2.06236677       0.01618212      -0.00754614       0.00746073
Si       3.87275225       5.32171038       3.58135336       0.00461648       0.01543702      -0.03044485
Si       3.34245787       3.50618356       6.50417880      -0.00373996      -0.02361514       0.00097785
Si      -1.45254028       3.12969490       2.46960622       0.00567435       0.00382079      -0.00225119
20
Lattice="3.7157829318515856 0.5474283679645215 0.6146838478452078 2.0188370847143555 13.458315134275665 -2.495734485000858 -0.6986017737033955 -8.730505020304859 10.127444108153915" Properties=species:S:1:pos:R:3:forces:R:3 unique_starting_index=474 config_type=initial n_minim_iter=2 energy=-3261.4042951801794 stress="-0.0005220247731251253 -0.0001687456366592706 -7.820830595845166e-05 -0.0001687456366592706 -5.2030827454085775e-05 0.00010047708456388235 -7.820830595845166e-05 0.00010047708456388235 -0.00016867003899425593" free_energy=-3261.4042951801794 pbc="T T T"
Si       0.75550000      -3.92660474       7.25261598      -0.00520893       0.00259774      -0.00273165
Si       2.46602698       6.37714506       0.22704931      -0.00032851       0.01379132      -0.00347340
Si       5.52393364      10.59535436       2.05038428      -0.00404893       0.00963367      -0.00908854
Si       3.80725211      -1.10564928       7.73947640      -0.00745966      -0.00215885       0.00276401
Si       3.52363748      -0.67948246       5.44343298       0.00074789      -0.00285749       0.00403955
Si       3.79482871      11.72294710      -1.33803680       0.00158059      -0.00462297       0.00124722
Si       4.05393729       6.93365441       1.86947789      -0.00016168       0.01365150      -0.00106678
Si       1.60951754       0.23356444       4.41071064       0.00235588       0.00667013       0.00738895
Si       3.20852994       1.95640833       1.71749706       0.00751140      -0.00095382       0.00743345
Si       1.99430422      10.24581288      -0.91324932      -0.00018490      -0.00919818      -0.00188868
Si       1.23862390      -7.67080361       8.35364248       0.00372555      -0.00660277      -0.01241945
Si       1.67755502      -0.73426417       8.61901710      -0.01271290       0.01026134       0.00335278
Si       3.65697658       9.16395591       2.56372386      -0.00465695      -0.00203618       0.00182217
Si       2.44539417      -4.12272910       8.87459669      -0.00565291      -0.00229785       0.01566291
Si      -0.92260976      -6.90532457       8.91639823      -0.00172583       0.00135381       0.00588995
Si       1.75797346       2.48649016       5.07197662       0.00826371      -0.00550503      -0.00660483
Si       1.47202016       0.42839594       2.06255935       0.00726056      -0.01783340       0.00498445
Si       3.87007613       5.32272399       3.58000580       0.00246950       0.00635123      -0.01017710
Si       3.33971644       3.50557146       6.50398964       0.00378632      -0.00884062       0.00111917
Si      -1.45191733       3.13047137       2.46973640       0.00443980      -0.00140359      -0.00825417
20
Lattice="3.717311227422073 0.548055131640774 0.6150407709535994 2.0216282654216267 13.460238977918587 -2.4970330005460997 -0.6995409727893797 -8.732271656666784 10.129938238043193" Properties=species:S:1:pos:R:3:forces:R:3 unique_starting_index=474 config_type=initial n_minim_iter=3 energy=-3261.4044072237793 stress="2.776974870068663e-05 -6.355981493096165e-05 -1.7458148870622475e-05 -6.355981493096165e-05 0.00012039901286620928 6.595655603756253e-05 -1.7458148870622475e-05 6.595655603756253e-05 0.00012743314431175331" free_energy=-3261.4044072237793 pbc="T T T"
Si       0.75523763      -3.92743963       7.25450105       0.00184716       0.00192588      -0.00028890
Si       2.46840422       6.37899507       0.22651728      -0.00930008       0.01143278       0.00558124
Si       5.52761785      10.59747940       2.05005769       0.00038712       0.00387194      -0.00491035
Si       3.80892388      -1.10566180       7.74144945      -0.01283512      -0.00036508       0.00625138
Si       3.52538940      -0.67937192       5.44500232       0.00062159       0.00241542       0.00191450
Si       3.79821342      11.72418019      -1.33861323      -0.00109232      -0.00127577      -0.00260644
Si       4.05630395       6.93500350       1.86996494       0.00975666       0.01556092      -0.01447432
Si       1.61044136       0.23396577       4.41201200       0.00424491      -0.00429945       0.00490282
Si       3.21021395       1.95683469       1.71782709       0.00832874      -0.00701062       0.01344602
Si       1.99665210      10.24718152      -0.91438683       0.00120275      -0.00452038       0.00336989
Si       1.23843146      -7.67187549       8.35536943       0.00693522      -0.01069946      -0.00524105
Si       1.67809103      -0.73445397       8.62111921      -0.00660341       0.00391488      -0.00487120
Si       3.66014139       9.16524091       2.56368793      -0.01074654       0.00631418       0.00134161
Si       2.44629874      -4.12315099       8.87699191      -0.00871430      -0.00686161       0.01111557
Si      -0.92337485      -6.90718185       8.91923387      -0.00446745       0.00414104      -0.00655852
Si       1.75993817       2.48631546       5.07264821       0.00131016       0.00528235      -0.00276394
Si       1.47329333       0.42825498       2.06326250       0.00514591      -0.01429889       0.00348950
Si       3.87281785       5.32413085       3.57966543      -0.00023748      -0.00519339      -0.00068626
Si       3.34194106       3.50529932       6.50524623       0.00875505      -0.00265039      -0.00359593
Si      -1.45157724       3.13048578       2.46977184       0.00546143       0.00231566      -0.00541561
20
Lattice="3.717432327184368 0.5482937053507083 0.6150269324148352 2.022900464331554 13.45888607611704 -2.4978443595962365 -0.7000957313239712 -8.732091249976156 10.129378516312022" Properties=species:S:1:pos:R:3:forces:R:3 unique_starting_index=474 config_type=initial n_minim_iter=4 energy=-3261.4044233874047 stress="1.6812639350293253e-05 1.4546401684266913e-05 7.299789994504609e-06 1.4546401684266913e-05 -7.736413290060121e-05 4.453957642706031e-07 7.299789994504609e-06 4.453957642706031e-07 -3.783230153719056e-05" free_energy=-3261.4044233874047 pbc="T T T"
Si       0.75502843      -3.92749077       7.25395557       0.00139689       0.00013418       0.00123344
Si       2.46909666       6.37852157       0.22597118      -0.01021826       0.01150683       0.00720957
Si       5.52875502      10.59649047       2.04895422      -0.00049068       0.00126859      -0.00383567
Si       3.80904399      -1.10582635       7.74069896      -0.01275687       0.00087014       0.00691425
Si       3.52555702      -0.67941377       5.44450201       0.00114472       0.00562127       0.00228288
Si       3.79938847      11.72302307      -1.33933919      -0.00213476      -0.00371434      -0.00343294
Si       4.05706317       6.93438010       1.86923423       0.01098799       0.01334841      -0.01595968
Si       1.61062678       0.23374843       4.41153352       0.00359982      -0.00688527       0.00556881
Si       3.21052949       1.95669309       1.71755530       0.00839835      -0.00941876       0.01336432
Si       1.99765735      10.24608165      -0.91516044       0.00174466      -0.00158283       0.00306048
Si       1.23796889      -7.67149881       8.35491996       0.00738086      -0.01025100      -0.00370016
Si       1.67820014      -0.73491488       8.62014402      -0.00611963       0.00190319      -0.00620985
Si       3.66114961       9.16417053       2.56263816      -0.00965249       0.00896465       0.00087558
Si       2.44617359      -4.12314200       8.87634727      -0.00796413      -0.00769040       0.00920487
Si      -0.92379690      -6.90719082       8.91874366      -0.00492976       0.00394489      -0.00823691
Si       1.76043763       2.48567505       5.07178129       0.00173129       0.00772063      -0.00203250
Si       1.47350284       0.42807885       2.06304502       0.00500410      -0.01123857       0.00317338
Si       3.87352119       5.32354206       3.57871519      -0.00081725      -0.00595030      -0.00118721
Si       3.34254191       3.50447856       6.50418666       0.00863097      -0.00241390      -0.00400531
Si      -1.45117086       3.12973251       2.46909887       0.00506418       0.00386259      -0.00428736
20
Lattice="3.7171103529533887 0.5486283445501245 0.6149591937231346 2.023826736392281 13.462275573184016 -2.499923530458478 -0.7006770019289984 -8.73560396750721 10.130520921243146" Properties=species:S:1:pos:R:3:forces:R:3 unique_starting_index=474 config_type=initial n_minim_iter=5 energy=-3261.4044603489815 stress="-7.26977911291269e-05 6.359332045972467e-05 -1.8391589434269043e-06 6.359332045972467e-05 0.00010190835634036606 -0.00011089637736298646 -1.8391589434269043e-06 -0.00011089637736298646 -4.218490481141107e-06" free_energy=-3261.4044603489815 pbc="T T T"
Si       0.75460645      -3.92940534       7.25447140      -0.00136074       0.00206192       0.00238609
Si       2.46929492       6.38044982       0.22502576      -0.00827081       0.01133062       0.00249198
Si       5.52905027      10.59895153       2.04708642      -0.00235130       0.00157078      -0.00130436
Si       3.80835042      -1.10695402       7.74088741      -0.00998427      -0.00250108       0.00411643
Si       3.52524781      -0.68003499       5.44460696       0.00304808       0.00447104       0.00276574
Si       3.79999254      11.72577988      -1.34115509      -0.00308208      -0.00377728      -0.00453345
Si       4.05736865       6.93617319       1.86788870       0.00834838       0.01021027      -0.00849899
Si       1.61058817       0.23321061       4.41159583       0.00309724      -0.00500237       0.00539467
Si       3.21056101       1.95688427       1.71746854       0.00641481      -0.01108571       0.01065060
Si       1.99835162      10.24847273      -0.91679214       0.00245028      -0.00074170       0.00189300
Si       1.23740354      -7.67450888       8.35575241       0.00650088      -0.01259027      -0.00039738
Si       1.67777640      -0.73620360       8.62001988      -0.00742136       0.00027885      -0.00308310
Si       3.66141718       9.16612970       2.56112571      -0.00730194       0.00912811      -0.00032815
Si       2.44549822      -4.12530476       8.87705825      -0.00590481      -0.00820188       0.00848665
Si      -0.92429322      -6.91014993       8.91964400      -0.00491087       0.00566580      -0.00777705
Si       1.76067835       2.48558386       5.07117115       0.00369420       0.00711462      -0.00573093
Si       1.47363056       0.42765968       2.06305994       0.00656767      -0.00913859       0.00317531
Si       3.87364304       5.32441473       3.57756282      -0.00041504      -0.00319264      -0.00482549
Si       3.34271387       3.50423006       6.50342479       0.00641850       0.00274803      -0.00276509
Si      -1.45058706       3.12996054       2.46840867       0.00446318       0.00165149      -0.00211646
20
Lattice="3.717740761206741 0.5484861365182034 0.6152248691237229 2.023142536942814 13.462149635421392 -2.4977934081780964 -0.6994662950670764 -8.7345450467104 10.127935649737848" Properties=species:S:1:pos:R:3:forces:R:3 unique_starting_index=474 config_type=initial n_minim_iter=6 energy=-3261.4046086899575 stress="4.671985591000282e-05 2.453123946134082e-06 7.133629095860897e-05 2.453123946134082e-06 9.422772333882337e-05 -1.089178372215449e-05 7.133629095860897e-05 -1.089178372215449e-05 -8.564575485181012e-05" free_energy=-3261.4046086899575 pbc="T T T"
Si       0.75513580      -3.92860239       7.25331122      -0.00507399       0.00162905       0.00995305
Si       2.46875520       6.38258120       0.22623574       0.00348398      -0.00469832      -0.00593394
Si       5.52908026      10.59958100       2.04768803      -0.00335180       0.00397287       0.01204659
Si       3.80818336      -1.10624791       7.74073986      -0.00620979      -0.00487059      -0.00079243
Si       3.52659727      -0.67912841       5.44450086      -0.00081456      -0.00333723       0.00130556
Si       3.79972848      11.72448635      -1.33934637       0.00365446       0.00097355      -0.00400597
Si       4.05833583       6.93780151       1.86763697      -0.00380009       0.00743015       0.00537408
Si       1.61151251       0.23351129       4.41208506       0.00572247      -0.00045788       0.00382987
Si       3.21198412       1.95575774       1.71894918       0.00797833      -0.00815026       0.00233357
Si       1.99814146      10.24813206      -0.91539644      -0.00422526       0.00219751      -0.00286059
Si       1.23945741      -7.67473641       8.35276875      -0.00516499      -0.00223076       0.00940386
Si       1.67738031      -0.73480637       8.61857203      -0.00557392      -0.00176220      -0.00687071
Si       3.66076554       9.16719124       2.56205914      -0.00430240       0.00961700      -0.00238113
Si       2.44603274      -4.12499674       8.87672120      -0.00651036       0.00855671       0.00165893
Si      -0.92377817      -6.90911203       8.91744479       0.00717090      -0.01210276      -0.00585049
Si       1.76201076       2.48647094       5.07028614       0.00036639       0.00313399      -0.00299880
Si       1.47513861       0.42628979       2.06353313       0.00337518      -0.00528864       0.00180764
Si       3.87433748       5.32470413       3.57673590       0.00910129       0.00126145      -0.00507173
Si       3.34432006       3.50389334       6.50279538       0.00643731       0.00718497      -0.00338659
Si      -1.45008778       3.13086386       2.46776349      -0.00226316      -0.00305863      -0.00756078
20
Lattice="3.7175587146142357 0.548507623136945 0.6148726425395572 2.023742357388189 13.460429729289043 -2.4985858918023385 -0.7009060100172005 -8.73349385830995 10.129804409915264" Properties=species:S:1:pos:R:3:forces:R:3 unique_starting_index=474 config_type=initial n_minim_iter=7 energy=-3261.404626954392 stress="-8.523864649825872e-06 3.02340171960185e-05 -2.3610050518016473e-05 3.02340171960185e-05 -2.686399590048997e-05 -3.8856353009236055e-05 -2.3610050518016473e-05 -3.8856353009236055e-05 8.853047031662205e-05" free_energy=-3261.404626954392 pbc="T T T"
Si       0.75401685      -3.92810747       7.25458336      -0.00607309      -0.00138123       0.00787078
Si       2.46874710       6.38216994       0.22592812       0.00335145      -0.00706854      -0.00724847
Si       5.52884179      10.59841120       2.04716548      -0.00460201       0.00398650       0.00928789
Si       3.80679392      -1.10608463       7.74173707      -0.00802123      -0.00327230      -0.00407049
Si       3.52585464      -0.67892579       5.44509648      -0.00022175      -0.00342974       0.00413886
Si       3.80009366      11.72281290      -1.34016755       0.00360274       0.00185473      -0.00813621
Si       4.05823212       6.93727437       1.86722903      -0.00333346       0.00492973       0.00697948
Si       1.61101587       0.23347144       4.41283354       0.00458954      -0.00094212      -0.00069032
Si       3.21191956       1.95531650       1.71906055       0.00708368      -0.00649768      -0.00215894
Si       1.99846898      10.24677143      -0.91593605      -0.00404476       0.00332575       0.00125382
Si       1.23829984      -7.67393460       8.35395390      -0.00676056      -0.00071898       0.00777846
Si       1.67596754      -0.73465650       8.61975919      -0.00317003      -0.00369493      -0.00668448
Si       3.66040456       9.16622013       2.56193232      -0.00272873       0.01100360       0.00128851
Si       2.44458789      -4.12450290       8.87819729      -0.00486073       0.01187362       0.00048954
Si      -0.92505716      -6.90835872       8.91911860       0.00879672      -0.01489055      -0.00087307
Si       1.76156458       2.48619863       5.07077894      -0.00066480       0.00450984      -0.00438945
Si       1.47508272       0.42594319       2.06382163       0.00360994      -0.00438601       0.00468518
Si       3.87398779       5.32408209       3.57654473       0.00933692       0.00476875      -0.00283931
Si       3.34368052       3.50328627       6.50337144       0.00723507       0.00611319      -0.00012255
Si      -1.45012871       3.13045135       2.46818518      -0.00312491      -0.00608362      -0.00655925
20
Lattice="3.7178748140389173 0.54849633744606 0.6142511447825565 2.0237352777188793 13.46142360126033 -2.4961121364846943 -0.7020492523248664 -8.732863046210104 10.125717750152374" Properties=species:S:1:pos:R:3:forces:R:3 unique_starting_index=474 config_type=initial n_minim_iter=8 energy=-3261.4046830317166 stress="2.0047542761573932e-05 1.8681170204868974e-05 -0.0001109970496704891 1.8681170204868974e-05 4.748114983625661e-05 8.90499425276855e-05 -0.0001109970496704891 8.90499425276855e-05 -0.00013484110159403426" free_energy=-3261.4046830317166 pbc="T T T"
Si       0.75257847      -3.92743104       7.25249298      -0.01075701      -0.00070475       0.00541496
Si       2.46857362       6.38421217       0.22631242       0.00199149      -0.01539108      -0.00532053
Si       5.52817240      10.60025082       2.04722264      -0.00772677       0.00582073       0.01260619
Si       3.80473617      -1.10531565       7.73934803      -0.00785770      -0.00636272      -0.00401374
Si       3.52572024      -0.67814866       5.44351017       0.00058513      -0.00488416      -0.00166034
Si       3.80037171      11.72277922      -1.33882337       0.00163355       0.00682378      -0.00503202
Si       4.05824740       6.93952685       1.86675053      -0.00288702       0.00800276       0.00979732
Si       1.61101622       0.23410008       4.41224475       0.00179973       0.00129584       0.00179224
Si       3.21294816       1.95446299       1.71926628       0.00464997      -0.00449426      -0.00347432
Si       1.99827770      10.24750744      -0.91459335      -0.00218284       0.00175178      -0.00034365
Si       1.23780690      -7.67424246       8.34980887      -0.00862067       0.00277127       0.00773229
Si       1.67361243      -0.73319097       8.61657887       0.00109826      -0.00027155      -0.00908526
Si       3.65927337       9.16844277       2.56201230       0.00164570       0.00715703       0.00477776
Si       2.44293173      -4.12348415       8.87574215       0.00135765       0.00852188       0.00214417
Si      -0.92605164      -6.90840943       8.91577035       0.01140766      -0.01268389      -0.00252119
Si       1.76161478       2.48747511       5.06885012      -0.00460783       0.00060218      -0.00117382
Si       1.47602525       0.42482542       2.06375857       0.00392104      -0.00190195      -0.00018420
Si       3.87423218       5.32531204       3.57451623       0.00750815       0.00093932       0.00382374
Si       3.34382392       3.50388606       6.50129252       0.00867560       0.00952016      -0.00345598
Si      -1.45034589       3.13135691       2.46741727      -0.00163409      -0.00651238      -0.01182363
20
Lattice="3.7177940722402902 0.5477953545526474 0.6151218390580958 2.020816404396743 13.460121827961698 -2.4964474382759043 -0.6982366553227413 -8.732503416204159 10.12673287613706" Properties=species:S:1:pos:R:3:forces:R:3 unique_starting_index=474 config_type=initial n_minim_iter=9 energy=-3261.4047231327813 stress="-4.9436540751231945e-05 -8.238678757396857e-05 6.103824195537001e-05 -8.238678757396857e-05 -3.7106735143715976e-05 5.3136660585329534e-05 6.103824195537001e-05 5.3136660585329534e-05 -4.386609611628385e-05" free_energy=-3261.4047231327813 pbc="T T T"
Si       0.75441412      -3.92756390       7.25384626      -0.00547011       0.00020768       0.00495526
Si       2.46739070       6.38391981       0.22645031       0.00513575      -0.01451293      -0.00261814
Si       5.52628410      10.59877523       2.04819948      -0.00196687       0.00460521       0.01217755
Si       3.80565897      -1.10635228       7.74110105      -0.00190721      -0.00610450      -0.00746885
Si       3.52707265      -0.67888322       5.44507844      -0.00400653      -0.00413902       0.00062757
Si       3.79806716      11.72081109      -1.33882643       0.00701748       0.00780976      -0.00539692
Si       4.05741130       6.93906636       1.86734652      -0.00760994       0.00443175       0.00951694
Si       1.61222302       0.23359543       4.41342264       0.00561821       0.00037754      -0.00067406
Si       3.21352465       1.95295367       1.72050126       0.00955512      -0.00164958      -0.00779131
Si       1.99617790      10.24634184      -0.91476496      -0.00761157       0.00187221       0.00121505
Si       1.24100700      -7.67460496       8.35094208      -0.00584427       0.00418082       0.00564472
Si       1.67489443      -0.73366180       8.61732762      -0.00195906      -0.00176278      -0.00687383
Si       3.65773036       9.16764837       2.56262838      -0.00356940       0.00613663       0.00571978
Si       2.44507365      -4.12374661       8.87775910      -0.00224412       0.00151067      -0.00107536
Si      -0.92265675      -6.90864029       8.91655258       0.00870682      -0.00794096      -0.00045606
Si       1.76262443       2.48696719       5.06915531      -0.00075223       0.00063491      -0.00072129
Si       1.47701524       0.42362551       2.06462218      -0.00200080      -0.00015329       0.00065707
Si       3.87440939       5.32423404       3.57475455       0.00807283       0.00132073       0.00694140
Si       3.34517260       3.50251637       6.50219917       0.00336339       0.00894230      -0.00300701
Si      -1.45004406       3.13123915       2.46660128      -0.00252749      -0.00576715      -0.01137251
20
Lattice="3.7179709566066528 0.5478290642526943 0.6149030645979157 2.021231744858608 13.460240122262212 -2.496856442171372 -0.6989563698843315 -8.732748365689 10.12701914244279" Properties=species:S:1:pos:R:3:forces:R:3 unique_starting_index=474 config_type=initial n_minim_iter=10 energy=-3261.4047784035047 stress="-2.4969334948798563e-05 -1.8338040457882913e-05 3.135153437075404e-05 -1.8338040457882913e-05 -1.6025398411915407e-05 2.8992662858334085e-05 3.135153437075404e-05 2.8992662858334085e-05 -8.288419402799315e-06" free_energy=-3261.4047784035047 pbc="T T T"
Si       0.75374042      -3.92772826       7.25424432      -0.00570059      -0.00063368       0.00146581
Si       2.46765365       6.38353965       0.22600427       0.00181453      -0.00703620       0.00198335
Si       5.52642773      10.59902304       2.04817793      -0.00281590       0.00335261       0.00503506
Si       3.80506584      -1.10669173       7.74078144      -0.00108638      -0.00468898      -0.00549364
Si       3.52689599      -0.67908323       5.44501681      -0.00128526       0.00027394       0.00004571
Si       3.79866136      11.72113435      -1.33962948       0.00334814       0.00386392      -0.00315166
Si       4.05751496       6.93943482       1.86721442      -0.00529377       0.00272718       0.00644175
Si       1.61230373       0.23343387       4.41338098       0.00194914       0.00088702       0.00049977
Si       3.21402773       1.95266915       1.72023210       0.00607605      -0.00191377      -0.00807932
Si       1.99626089      10.24653138      -0.91502310      -0.00356976       0.00097254       0.00194679
Si       1.24027260      -7.67483637       8.35143166      -0.00002518       0.00394587      -0.00099101
Si       1.67436806      -0.73394074       8.61692202      -0.00337300      -0.00075909      -0.00314646
Si       3.65770390       9.16814734       2.56238324      -0.00202011       0.00297218       0.00781045
Si       2.44444674      -4.12364782       8.87783067       0.00113620      -0.00766143      -0.00003055
Si      -0.92293986      -6.90933888       8.91661960       0.00292082       0.00043486       0.00248702
Si       1.76239555       2.48709798       5.06890688       0.00262327      -0.00045483      -0.00140950
Si       1.47708118       0.42341609       2.06466058       0.00083202       0.00207249       0.00012873
Si       3.87485643       5.32427138       3.57453282       0.00161674      -0.00045092       0.00643168
Si       3.34537497       3.50282583       6.50186208       0.00022069       0.00451063      -0.00348611
Si      -1.45031714       3.13094276       2.46621631       0.00263235      -0.00241434      -0.00848787
20
Lattice="3.718279829780331 0.5472954524278164 0.614362758035022 2.0201124337094782 13.46027722399586 -2.4985911229877162 -0.6991668933689639 -8.733876334453004 10.127622183910228" Properties=species:S:1:pos:R:3:forces:R:3 unique_starting_index=474 config_type=initial n_minim_iter=11 energy=-3261.4047971537852 stress="5.274960364473879e-05 -6.194605357227438e-05 -4.091001970555543e-05 -6.194605357227438e-05 -5.736433012482436e-06 -6.613478485039388e-05 -4.091001970555543e-05 -6.613478485039388e-05 -1.7501574524481267e-05" free_energy=-3261.4047971537852 pbc="T T T"
Si       0.75308235      -3.92871865       7.25456345      -0.00637543      -0.00142675      -0.00125366
Si       2.46717949       6.38288714       0.22483146      -0.00364806      -0.00040291       0.00388230
Si       5.52529619      10.59833953       2.04657396      -0.00155536       0.00055085      -0.00029669
Si       3.80431255      -1.10836428       7.73986868      -0.00366253      -0.00453677      -0.00288336
Si       3.52673422      -0.68023219       5.44450626      -0.00026686       0.00535905      -0.00044282
Si       3.79801208      11.72095779      -1.34177365       0.00143636      -0.00042416      -0.00097602
Si       4.05679002       6.93913409       1.86604024      -0.00050340       0.00047216       0.00585747
Si       1.61218817       0.23264070       4.41303598       0.00052770       0.00018854       0.00205398
Si       3.21446250       1.95167885       1.71940903       0.00475025      -0.00188631      -0.00654743
Si       1.99514335      10.24648006      -0.91636469      -0.00156325       0.00072331       0.00118035
Si       1.24023626      -7.67602745       8.35196893       0.00143607       0.00251260      -0.00557837
Si       1.67336485      -0.73527141       8.61597093      -0.00070622      -0.00096048       0.00149133
Si       3.65646600       9.16789262       2.56096153      -0.00241679       0.00136042       0.00752834
Si       2.44399983      -4.12496962       8.87771813       0.00349563      -0.01386041       0.00066370
Si      -0.92294022      -6.91069199       8.91699881       0.00195993       0.00790051       0.00449249
Si       1.76176144       2.48645262       5.06793792       0.00125584       0.00013719      -0.00329438
Si       1.47717174       0.42276426       2.06447483       0.00129123       0.00378648      -0.00138238
Si       3.87458093       5.32339383       3.57331506       0.00028919      -0.00033199       0.00485486
Si       3.34492213       3.50195531       6.50051022       0.00153589       0.00173039      -0.00348607
Si      -1.45112876       3.13061066       2.46534200       0.00271980      -0.00089173      -0.00586364
20
Lattice="3.718166017269916 0.5477491622894265 0.614540666265427 2.0213623763047917 13.460577768739421 -2.4975829262551157 -0.6997486232165624 -8.733351747930715 10.127289956537457" Properties=species:S:1:pos:R:3:forces:R:3 unique_starting_index=474 config_type=initial n_minim_iter=12 energy=-3261.404810184305 stress="1.0752864173720974e-05 4.117594916072453e-05 -1.1621537538859439e-05 4.117594916072453e-05 1.3258684746468598e-05 -1.0682989937381851e-05 -1.1621537538859439e-05 -1.0682989937381851e-05 2.329607591494433e-05" free_energy=-3261.404810184305 pbc="T T T"