10
Lattice="5.726862945255483 1.9616560788744047e-15 -2.383422662267699e-15 9.14363847876157e-16 5.1509627529321556 -2.2568340017509147e-07 -2.86343147262775 -2.575481120780023 5.835738624555161" Properties=species:S:1:pos:R:3:forces:R:3 unique_starting_index=482 config_type=initial n_minim_iter=19 energy=-1627.250974164451 stress="6.6969914150287e-05 -1.7826927985855006e-13 -5.422800728157809e-12 -1.7826927985855006e-13 0.00014224756869249405 -5.930700306768613e-13 -5.422800728157809e-12 -5.930700306768613e-13 0.00012786503082422122" free_energy=-1627.250974164451 pbc="T T T"
Si       0.98438916       1.52869121       1.71713671       0.00410230       0.00136969       0.00251380
Si       1.87904231      -1.04679006       4.11860176      -0.00410230       0.00136969      -0.00251380
Si       4.28561113       1.52930660       1.68244662       0.00311490       0.00160150      -0.00039421
Si      -1.42217965      -1.04617467       4.15329185      -0.00311490       0.00160150       0.00039421
Si       3.84782064       1.52869132       4.11860165       0.00410230       0.00136969      -0.00251380
Si      -0.98438916      -1.04679017       1.71713683      -0.00410230       0.00136969       0.00251380
Si       1.42217966       1.52930670       4.15329174       0.00311490       0.00160150       0.00039421
Si       1.44125182       4.10478797       1.68244651      -0.00311490       0.00160150      -0.00039421
Si       2.86343147       0.24567497      -0.00000002       0.00000000      -0.00594239       0.00000000
Si       2.86343147       2.82115634      -0.00000013       0.00000000      -0.00594239       0.00000000
