10
Lattice="4.87015 -2.8505952017772743e-16 -8.958784503810831e-15 -2.435074999999999 4.217673620240783 -1.7917569007621674e-14 6.103645770184404e-16 1.0571824585362267e-15 9.968010000000001" Properties=species:S:1:pos:R:3:forces:R:3 unique_starting_index=362 config_type=initial n_minim_iter=1 energy=-1617.5827490973618 stress="-0.040798957682516866 -0.12372469563406886 -0.1432223782659423 0.04604238765342172 0.033625858009623165 -0.04155377373940008" pbc="T T T"
Si       2.03673228       0.54653121       1.43877559      -0.95495968      -1.22688527       2.12839925
Si       2.90529188       0.54653121       5.15348210      -1.00761681       8.16034668      -6.18703411
Si       3.85165602       0.54653121       3.37575231       0.56821909      -2.41330303      -2.29562136
Si      -1.41658102       3.67114241       4.81452790      -0.50698441      -1.49888490      -0.97361628
Si       0.39834272       3.67114241       6.59225769       0.09445521      -7.22505892       7.61149976
Si      -0.47021688       3.67114241       8.52923441       1.21925603       4.27433830       5.45803696
Si       2.47447938       2.10883681      -0.00000000       1.49281150      -1.60288032      -1.36781687
Si      -0.03940438       2.10883681       2.41135133       1.80067424       2.59760528      -2.05005287
Si       3.65261250       2.10883681       7.55665867      -2.70710424      -4.28343225      -2.58449749
Si       4.87015000      -0.00000000      -0.00000000       0.00124907       3.21815442       0.26070301
10
Lattice="4.874222942521001 0.004152158853195491 -0.003361327615308382 -2.433515596213083 4.226298968760213 -0.0023075315617590323 -0.006879818338755076 -0.00942566326920832 9.99729067555763" Properties=species:S:1:pos:R:3:forces:R:3 unique_starting_index=362 config_type=initial n_minim_iter=2 energy=-1617.8126754000311 stress="-0.03800445185496535 -0.11841584958997445 -0.13688664887025487 0.04437183325859405 0.03249811505190978 -0.04063377456666628" pbc="T T T"
Si       2.03781272       0.54817060       1.44129306      -0.94638211      -1.12761011       2.05461331
Si       2.90453095       0.54634040       5.16547705      -0.99026764       7.93861331      -5.96190834
Si       3.85307006       0.54776797       3.38226325       0.59695622      -2.29772866      -2.27156765
Si      -1.41800954       3.67454660       4.82607924      -0.50149989      -1.47343326      -0.96524541
Si       0.39726418       3.67383812       6.60863994       0.10166048      -7.01414800       7.33184806
Si      -0.47324498       3.67241918       8.55168879       1.17353891       4.15934069       5.30426131
Si       2.47849611       2.11613676      -0.00383909       1.46837957      -1.57417344      -1.27464661
Si      -0.03912311       2.11213454       2.41626171       1.71903104       2.45565652      -1.96104863
Si       3.65197849       2.10972672       7.57408238      -2.63407565      -4.16503571      -2.51292467
Si       4.87422332       0.00447477      -0.00333549       0.01265907       3.09851866       0.25661864
10
Lattice="4.981606106640822 0.12184069674162282 -0.09857903622072349 -2.385285914727368 4.460681861927822 -0.06912333246535829 -0.20176725949682933 -0.2798558126932007 10.800836539612147" Properties=species:S:1:pos:R:3:forces:R:3 unique_starting_index=362 config_type=initial n_minim_iter=3 energy=-1620.9084130762471 stress="0.02688317137115493 -0.0002702157396339709 0.004088187719148132 0.012386006056542963 0.006419742220342222 -0.013087211284287562" pbc="T T T"
Si       2.06495351       0.59280489       1.50887438      -0.55307285       0.20445271       0.44035926
Si       2.87921225       0.53843971       5.49099594      -0.38728913       3.15330593      -1.44210194
Si       3.88683455       0.58074651       3.55767227       0.70630613      -0.37623338      -1.17862395
Si      -1.45610989       3.76064780       5.13957553      -0.20023603      -1.01027879      -0.35116936
Si       0.36520975       3.73867390       7.05500115      -0.16237621      -2.75288674       2.06224527
Si      -0.55839211       3.69674240       9.16417580       0.46250496       2.15279260       1.84656425
Si       2.58807421       2.31814112      -0.11317114       0.91442588      -1.04602186       0.08853046
Si      -0.03108410       2.19986864       2.54808101      -0.07063836       0.23878947      -0.28160457
Si       3.62822934       2.12739062       8.04765944      -0.89832157      -1.54539880      -1.18059017
Si       4.98185348       0.13123372      -0.09804743       0.18869719       0.98147886      -0.00360926
10
Lattice="4.8939058344758255 0.16615232441678005 -0.12082054724676942 -2.3030607833951473 4.441591794140366 -0.09643748523785071 -0.24729021142288687 -0.37069251193431224 10.77481586282293" Properties=species:S:1:pos:R:3:forces:R:3 unique_starting_index=362 config_type=initial n_minim_iter=4 energy=-1621.29730766948 stress="0.03320192211553325 -0.002136504744510748 0.0031258134178864506 0.009243647671059988 0.00869993213145159 -0.014801624004197295" pbc="T T T"
Si       2.02506834       0.59901312       1.49232936      -0.49650184       0.35607938       0.44836195
Si       2.80829654       0.52874868       5.45388636      -0.45668205       2.78400348      -0.79901672
Si       3.80907996       0.58464758       3.52250265       0.88700076      -0.29100853      -1.28787833
Si      -1.41988534       3.70336815       5.09915687      -0.20829078      -1.06218743      -0.35499592
Si       0.35983612       3.67545808       7.00991719      -0.22520490      -2.37359789       1.55548338
Si      -0.55404919       3.62390511       9.11596541       0.62989577       2.08256477       1.69550635
Si       2.56502134       2.33905388      -0.14328689       0.84344722      -1.13137381       0.09272220
Si      -0.02232104       2.17997540       2.52172390      -0.07268204       0.16949406      -0.22637892
Si       3.54451564       2.08842128       7.98877750      -0.98539665      -1.52997442      -1.14354419
Si       4.89493828       0.17871569      -0.12060086       0.08441451       0.99600040       0.01974020
10
Lattice="4.534206176567771 0.3365184446175057 -0.22347142343490273 -1.9756695664030972 4.391744274912107 -0.14968868295962642 -0.4573915348630422 -0.6178479453410255 10.713165367873536" Properties=species:S:1:pos:R:3:forces:R:3 unique_starting_index=362 config_type=initial n_minim_iter=5 energy=-1622.622853549297 stress="0.024986059304444908 0.0023565254838097123 0.0019384075904781233 -0.0016816841418414224 0.011298168007795794 -0.02268112459210405" pbc="T T T"
Si       1.85888540       0.64193964       1.43227343       0.22105188       0.75609438       0.54441512
Si       2.50535602       0.54065324       5.33466525      -0.30258440       1.91068566       0.71109115
Si       3.48122919       0.63954833       3.39170218       0.84585972       0.08343511      -1.62893436
Si      -1.29116900       3.55294780       5.00562286      -0.51171568      -1.21791786      -0.40947176
Si       0.31252570       3.52618757       6.89112352       0.30525719      -1.31934796       0.52099278
Si      -0.56393598       3.44962600       8.99846098       1.08037831       1.77317096       1.14099646
Si       2.46198023       2.43116943      -0.24599413       0.30733372      -1.20870997       0.07036359
Si       0.00326213       2.13900618       2.45233558       0.00006467      -0.03943961      -0.12794572
Si       3.17958708       2.02863462       7.80251293      -1.35762625      -1.62116558      -0.61237570
Si       4.53743710       0.36085531      -0.22446874      -0.58801916       0.88319487      -0.20913156
10
Lattice="4.3429781535645775 0.5417042485706075 -0.32819810307322794 -1.702359436182182 4.284513717281521 -0.09106295368958403 -0.671741522009591 -0.6030474732584216 10.683591649843665" Properties=species:S:1:pos:R:3:forces:R:3 unique_starting_index=362 config_type=initial n_minim_iter=6 energy=-1623.5913491907286 stress="0.02411110030147687 0.0029803944677530237 -0.0016398537734510802 -0.004174095138353279 0.00550008918309108 -0.016735107829086958" pbc="T T T"
Si       1.77346033       0.73653341       1.38964702       0.27134963       0.76315785       0.37253962
Si       2.30717697       0.68838023       5.26336771       0.02754456       1.58366619       0.56803058
Si       3.28823079       0.81097367       3.28169318       0.65311952       0.34696802      -1.36947922
Si      -1.19026536       3.48310596       5.02512714      -0.52300645      -1.01727412      -0.55324178
Si       0.30623737       3.53470244       6.87497633       1.10421012      -1.30176249       0.81874518
Si      -0.56399080       3.45787214       8.99691225       0.83795370       1.08928374       0.78937014
Si       2.45254041       2.52147678      -0.29453804       0.19054415      -1.01845113       0.01047634
Si       0.04231106       2.13849858       2.44784211      -0.35582416      -0.03092310       0.02534349
Si       2.95022523       2.17214008       7.70218972      -1.42821752      -1.04472286      -0.31205388
Si       4.34435937       0.57466404      -0.33182272      -0.77767355       0.63005790      -0.34973046
10
Lattice="3.9493968127453116 0.8558027731785045 -0.4292133391976381 -1.2335514641708971 4.1084774270847415 0.026129210423214734 -0.8784950889100486 -0.44544584692860284 10.773991916575259" Properties=species:S:1:pos:R:3:forces:R:3 unique_starting_index=362 config_type=initial n_minim_iter=7 energy=-1624.7390530509535 stress="-0.012295370093287392 0.0006008403653406271 -0.040129978168918695 -0.00773829619449722 -0.0013242608682064777 -0.00354575975544883" pbc="T T T"
Si       1.62297537       0.90850437       1.37608691       0.53432455      -0.04345491      -0.54364285
Si       2.01551931       0.99339161       5.26990381      -0.37610726       1.35572721       0.55976761
Si       2.95864323       1.12786837       3.20172889       0.16968247       1.30804678      -1.88627916
Si      -0.95295408       3.42247860       5.14617701       0.77424803      -1.65615787       0.29486816
Si       0.37604984       3.61961738       7.00478623       1.40676011      -1.04943582       1.27069721
Si      -0.44722134       3.57911866       9.15741061       0.25680654       0.09680052       0.06365402
Si       2.38197077       2.64733339      -0.31097531      -0.51062183       0.13277138       0.10708878
Si       0.12580901       2.16158550       2.50580216      -1.19700764       0.54830340       0.75362920
Si       2.60527678       2.48022925       7.72769763      -0.90492979      -0.21274452      -0.31795240
Si       3.94535006       0.90105456      -0.44034885      -0.15315520      -0.47985617      -0.30183058
10
Lattice="4.045511086735188 0.8920932579212636 -0.43299966599216827 -1.250180119462956 4.0889708764053685 0.08908791703585786 -0.8862447769794763 -0.3011241188307481 11.608947249673973" Properties=species:S:1:pos:R:3:forces:R:3 unique_starting_index=362 config_type=initial n_minim_iter=8 energy=-1624.9199675407192 stress="0.04014769790276825 0.034517230856440866 0.02559799224254381 -0.005499138123888451 0.0007891906438573473 -0.002179092633979389" pbc="T T T"
Si       1.67100379       0.94653286       1.49737596       0.13015730       0.21804545      -0.26460854
Si       2.07474853       1.10377649       5.71429607      -0.03079061       0.75990474       0.03426391
Si       3.04617324       1.22276926       3.45726428      -0.31405429       0.65007174      -1.03060063
Si      -0.95886751       3.46232154       5.60524540       0.56834556      -0.76734573       0.32093017
Si       0.40987973       3.70890410       7.62917184       0.67159811      -0.83616987       0.89617124
Si      -0.43234001       3.70109752       9.93210012       0.20172953      -0.12090904      -0.01049138
Si       2.44302709       2.66498229      -0.28095192      -0.68524709      -0.05992851       0.17615031
Si       0.13075191       2.19712457       2.74907755      -0.54757050       0.04834168       0.34883375
Si       2.67867004       2.60989808       8.38253367      -0.68200820       0.17085737      -0.29989827
Si       4.03923006       0.93102530      -0.44742634       0.68784019      -0.06286784      -0.17075054
10
Lattice="3.9171134221399173 0.8724774258040687 -0.42271556691821394 -1.2029690960951782 3.973836796155728 0.1070949753551579 -0.8651957328205934 -0.24641373595626526 11.368642350417064" Properties=species:S:1:pos:R:3:forces:R:3 unique_starting_index=362 config_type=initial n_minim_iter=9 energy=-1625.253429923662 stress="0.00352128688668972 0.0027559119212802008 -0.01161132336542371 -0.004422068944614978 0.0010454739625187562 -0.0035124970589435487" pbc="T T T"
Si       1.61881686       0.93058799       1.46814516       0.40489464      -0.09987166      -0.31413865
Si       2.00738648       1.10375345       5.60006141      -0.17363830       1.15698178      -0.09402212
Si       2.94891015       1.21122407       3.38400977      -0.44488815       0.70277873      -1.28454247
Si      -0.92508156       3.38492749       5.50788235       0.76984498      -1.25306607       0.53936582
Si       0.39861718       3.63500198       7.49328083       0.73951588      -0.98970478       1.13763355
Si      -0.41759704       3.63842341       9.74449615       0.21847113       0.02077345      -0.02601708
Si       2.36700317       2.59283211      -0.26301755      -1.02498868       0.04106557       0.15389181
Si       0.12693772       2.14713436       2.70471260      -0.68719164       0.58605427       0.56165346
Si       2.59044425       2.57662559       8.21867856      -0.59284976       0.02920140      -0.44943362
Si       3.91309946       0.91096474      -0.43804588       0.79082989      -0.19421270      -0.22439069
10
Lattice="3.909805488894754 0.8809415767421334 -0.4261429966945734 -1.191984959738772 3.9627747507769464 0.12204681690179836 -0.8722108461714058 -0.21512687244019887 11.461411312282964" Properties=species:S:1:pos:R:3:forces:R:3 unique_starting_index=362 config_type=initial n_minim_iter=10 energy=-1625.3210310148781 stress="0.00527152981878245 0.004865700785665984 -0.007364215789902238 -0.004242324578405569 0.0010923330694068937 -0.0029363181471340487" pbc="T T T"
Si       1.61684526       0.93793717       1.48026495       0.36616689      -0.09372099      -0.30365627
Si       2.00166300       1.12851342       5.64740503      -0.19244591       1.07846496      -0.10107084
Si       2.94232701       1.23006785       3.40731627      -0.48423956       0.64348539      -1.19664839
Si      -0.92000440       3.38723193       5.56730686       0.77768757      -1.17210206       0.55903662
Si       0.39938788       3.64741538       7.57170624       0.65771044      -0.94056777       1.06275676
Si      -0.41586973       3.65893318       9.83628184       0.19802096      -0.02252165      -0.02930994
Si       2.36416328       2.59268869      -0.25687524      -1.09029308       0.08520213       0.17369704
Si       0.12761100       2.15264941       2.73693687      -0.60356334       0.55685386       0.52016445
Si       2.58211132       2.60266756       8.29069676      -0.52558042       0.07256190      -0.45697888
Si       3.90782261       0.91952375      -0.44304164       0.89653644      -0.20765576      -0.22799055
10
Lattice="3.8843587235696173 0.8920738141450386 -0.43166660672865437 -1.1696207766843236 3.929400609016575 0.15152002863262803 -0.883516329586792 -0.15199738609012636 11.584044452428527" Properties=species:S:1:pos:R:3:forces:R:3 unique_starting_index=362 config_type=initial n_minim_iter=11 energy=-1625.4357631145826 stress="0.002760730813640475 0.0032598130261582 -0.005563497944423664 -0.0036640220773010157 0.0011309424597510046 -0.0021483182817879734" pbc="T T T"
Si       1.60791447       0.94829698       1.49588728       0.31522686      -0.12694561      -0.28687115
Si       1.98416301       1.17199266       5.71049750      -0.23643824       0.99619733      -0.12552838
Si       2.92033158       1.26068561       3.43478739      -0.56822970       0.54350678      -1.06566913
Si      -0.90947927       3.38240657       5.65596451       0.80883960      -1.09697737       0.61828776
Si       0.39729421       3.66044204       7.68647641       0.51863781      -0.86981104       0.96386545
Si      -0.41377724       3.68793640       9.96571046       0.16430329      -0.06644297      -0.03335089
Si       2.35017110       2.58269639      -0.24341498      -1.23786422       0.16701473       0.20139394
Si       0.12759880       2.15682408       2.78608994      -0.44735141       0.58833370       0.45500635
Si       2.55757473       2.64456951       8.38797506      -0.38218624       0.10719925      -0.47585520
Si       3.88700213       0.93090583      -0.45195526       1.06506225      -0.24207480      -0.25127875
10
Lattice="3.847180888205264 0.9183660008829069 -0.45070139180438357 -1.1282621573661071 3.8612147046236878 0.2320801508101343 -0.9224758950996887 0.0159043301728383 11.876018624673758" Properties=species:S:1:pos:R:3:forces:R:3 unique_starting_index=362 config_type=initial n_minim_iter=12 energy=-1625.6810711926587 stress="0.001261882416148578 0.002668014490077311 0.0015095729784418237 -0.0006391090440775135 0.0008162132067258159 -0.0010843554221016533" pbc="T T T"
Si       1.59493180       0.97571391       1.52940392       0.06150959      -0.17226692      -0.17087301
Si       1.95047308       1.28923971       5.85760625      -0.29597546       0.76530945      -0.15000531
Si       2.88089233       1.33939207       3.49172999      -0.72418759       0.27935752      -0.68690207
Si      -0.89664031       3.38647260       5.88041370       0.77212727      -0.85281614       0.68515361
Si       0.38417000       3.71006698       7.97084860       0.17166153      -0.67674173       0.66762214
Si      -0.42160789       3.78095141      10.28059176       0.02600753      -0.16378132      -0.04654180
Si       2.32316968       2.56369612      -0.20661979      -1.40172702       0.27782584       0.26068672
Si       0.12576651       2.18088402       2.90939752       0.04991016       0.59208901       0.21786292
Si       2.50866783       2.76409799       8.61424509       0.01937921       0.19490918      -0.46369009
Si       3.86617900       0.95876469      -0.48339021       1.32129477      -0.24388491      -0.31331312
10
Lattice="3.8296370249973295 0.9317377601585565 -0.4647958956442559 -1.1079099425361354 3.8034319636985465 0.2505199444129605 -0.9513239090665775 0.0428293555886468 11.79325180313312" Properties=species:S:1:pos:R:3:forces:R:3 unique_starting_index=362 config_type=initial n_minim_iter=13 energy=-1625.8422925640382 stress="-0.010598494101130444 -0.007922234128915337 -0.012956082492929444 -0.0004764785154639861 0.00022745650488802325 -0.000722173161292389" pbc="T T T"
Si       1.58529243       0.97408629       1.50648422      -0.05272549      -0.30831928      -0.10207529
Si       1.92956664       1.32120235       5.80410703      -0.33867846       0.75361544      -0.08142468
Si       2.85242692       1.35323430       3.43324954      -0.58951965       0.22581495      -0.43849333
Si      -0.89327196       3.33530926       5.87598149       0.72954593      -0.87476481       0.59879581
Si       0.36654912       3.66903035       7.94740127       0.07240353      -0.49924931       0.46951669
Si      -0.43542309       3.75316118      10.21883607      -0.00766550      -0.07989981      -0.05063703
Si       2.29683305       2.54083839      -0.19203252      -1.30739088       0.33147215       0.20441767
Si       0.12994378       2.17831115       2.90277966       0.16986406       0.65488758       0.24674512
Si       2.48398939       2.77533851       8.52979714       0.21485655       0.02935781      -0.49597430
Si       3.87102548       0.97667605      -0.51503232       1.10930991      -0.23291472      -0.35087067
10
Lattice="3.8690888084706154 0.9428409265712344 -0.4708721219376395 -1.1180202100969603 3.83086275197134 0.2556083685747693 -0.9637604632702594 0.04767504127728048 11.939779563274746" Properties=species:S:1:pos:R:3:forces:R:3 unique_starting_index=362 config_type=initial n_minim_iter=14 energy=-1625.881080662346 stress="0.008077972379593738 0.009268329836456679 0.00433237317411608 -0.0011132135386820125 2.521648530697349e-05 -0.0008952574787521545" pbc="T T T"
Si       1.60077516       0.98209258       1.52462560      -0.11533132      -0.16752401      -0.08423141
Si       1.94857500       1.33966333       5.87605512      -0.28281591       0.59425035      -0.08777842
Si       2.87992134       1.36846228       3.47322675      -0.53047767       0.25955418      -0.40377135
Si      -0.90228332       3.35854287       5.95439011       0.59469377      -0.64106682       0.52827656
Si       0.36851086       3.69809051       8.05109173       0.10282761      -0.52843075       0.41124808
Si      -0.44114327       3.78524814      10.34708533      -0.01725404      -0.18085611      -0.02262384
Si       2.31693513       2.56189685      -0.19087625      -1.15366821       0.29299275       0.19251328
Si       0.13284370       2.20015426       2.94142424       0.18869344       0.40625428       0.20255067
Si       2.50952438       2.80361263       8.63252426       0.14313696       0.15091512      -0.45682672
Si       3.91474107       0.98886466      -0.52542371       1.07019536      -0.18608899      -0.27935683
10
Lattice="3.8510961045786614 0.9401575212103666 -0.46891439678889796 -1.111347755362135 3.8091699193143955 0.25749503096559373 -0.9597534770664501 0.05444739591673497 11.909249245018055" Properties=species:S:1:pos:R:3:forces:R:3 unique_starting_index=362 config_type=initial n_minim_iter=15 energy=-1625.9060811766778 stress="0.0006402425775789322 0.0022456751153297344 -0.002047896172639023 -0.0008855842346897065 0.0003303025099497792 -0.000775282390564036" pbc="T T T"
Si       1.59308094       0.97815130       1.52112717      -0.10769203      -0.23412959      -0.07478978
Si       1.93963292       1.33921962       5.86174739      -0.30526444       0.64162498      -0.08226460
Si       2.86598236       1.36558097       3.46383294      -0.55157432       0.22455417      -0.38608531
Si      -0.89684144       3.34176656       5.94344999       0.62280722      -0.70978542       0.53821523
Si       0.36709154       3.68156849       8.03481943       0.06550089      -0.49552030       0.40690266
Si      -0.43841324       3.77020115      10.32306808      -0.01670161      -0.14155991      -0.03494468
Si       2.30462712       2.54909047      -0.18703155      -1.20288179       0.29933703       0.19015000
Si       0.13359076       2.19164403       2.93618261       0.21671189       0.49766297       0.21859235
Si       2.49895447       2.79629467       8.61024593       0.20557288       0.09945903      -0.47487430
Si       3.89879239       0.98648208      -0.52520374       1.07352130      -0.18164296      -0.30090158
