24
Lattice="8.225289999999996 2.0327937693866186e-15 6.078500147243312e-16 -4.112644999999994 7.123310093494105 1.215700029448664e-15 5.237857222591195e-16 9.072234832319564e-16 8.554070000000001" Properties=species:S:1:pos:R:3:forces:R:3 unique_starting_index=90 config_type=initial n_minim_iter=1 energy=-3839.1621486940817 stress="-0.20865153440476847 -0.2812323645419122 -0.3358121414631153 0.04236393837841979 0.13573527745705885 -0.0690872988872047" pbc="T T T"
Si       6.34990578       0.54553443       6.38961314      -1.48191248      -8.05009802      -3.39056285
Si       0.39541889       2.91997089       0.54166424      14.43481271       4.82256802     -11.36927207
Si       4.64771739       5.29440735       1.62279262      -0.03303457      -0.85585737       1.15390045
Si       1.24545532       0.54553443       2.16445686       1.38350343      -0.83194197       0.32292161
Si       4.45817915       2.91997089       8.01240576      -1.64473038     -24.78691378       5.50731017
Si      -2.53588241       5.29440735       6.93127738      14.54618570      -8.78683555     -10.63509801
Si       0.40169191       2.15053871       3.36341841       3.28218903      -0.53567955      -2.03422828
Si       2.37865064       4.52497517       6.89964357      -0.46776595       0.58722013       0.76396433
Si      -2.39253945       6.89941164       6.84507802       2.74289058      12.72855566     -27.41024172
Si       5.34036988       2.15053871       5.19065159      -0.59267696     -14.69748912      19.00198382
Si       0.62164809       4.52497517       1.65442643       2.05801976       5.71397900       3.38466482
Si       2.65107512       6.89941164       1.70899198     -12.58601149      -0.02938734      21.68942771
Si       3.41907662       6.85733495       0.27518871      -0.43669183      -0.77423923     -18.67332644
Si       6.74335719       2.10846203       7.39789078       0.88017763       6.26584097       3.70404201
Si      -1.47646176       4.48289849       0.88099051      -1.37383448       0.84773190      -0.62381609
Si      -3.11195498       6.85733495       8.27888129       2.67289159      -1.25173187      14.21552051
Si      -0.95270943       2.10846203       1.15617922     -15.06518840     -11.01202064       8.28537723
Si       4.52534646       4.48289849       7.67307949     -15.02306195      13.86359608       6.05828845
Si       2.94091707       0.79489017       7.48529199       9.95851517       8.04063603       6.79581669
Si      -0.80211301       3.16932735       4.60452329      -2.14766099       2.38699084       2.93978968
Si       0.59705036       5.54376381       5.01832472      -9.88150654      -0.59067698      23.24241203
Si       4.36651282       0.79489017       1.06877801      -0.07301598      -0.09206828       0.37261255
Si       5.36777901       3.16932735       3.94954671      -1.26953119      16.60737217     -20.37182335
Si       1.22685259       5.54376381       3.53574528      10.11743760       0.43044887     -22.92966324
24
Lattice="8.311999987180632 0.028893350270575636 -0.05675646032680849 -4.130977618255556 7.210038505297416 0.012932706549691706 -0.05902512064471275 -0.018547850429681594 8.699480019291784" Properties=species:S:1:pos:R:3:forces:R:3 unique_starting_index=90 config_type=initial n_minim_iter=2 energy=-3846.5564272947377 stress="-0.1759884110983992 -0.23575840840746223 -0.27907642022485074 0.038176987763854836 0.1141407793336645 -0.058472137747864285" pbc="T T T"
Si       6.37452193       0.56091759       6.45288891      -1.31996820      -7.08292489      -2.81212065
Si       0.40757509       2.96215550       0.54064481      12.89093729       4.24612197     -10.35324300
Si       4.70410887       5.38232631       1.60694566       0.10626723      -0.67977743       0.89724085
Si       1.24570510       0.55288066       2.19150555       1.17672897      -0.63190147       0.35242210
Si       4.45996761       2.95721577       8.11208078      -1.72991204     -22.14509459       4.91803398
Si      -2.59037072       5.34478504       7.05403024      12.17420537      -8.25722540      -8.86249490
Si       0.39060530       2.17514901       3.41294909       2.86708231      -0.37792039      -1.89160619
Si       2.37196439       4.58269939       6.99078321      -0.36026328       0.67576603       0.88960396
Si      -2.44045753       6.97545784       6.96019379       1.67708450      10.84250316     -23.87428441
Si       5.36832679       2.18709311       5.23931035      -0.46593395     -12.59714838      16.04192239
Si       0.63288822       4.58842101       1.66879041       1.74025740       5.10289274       3.01655082
Si       2.69017900       7.00300144       1.70700442     -10.97378609       0.03016932      18.83800853
Si       3.47727779       6.96607131       0.23950677      -1.46855452      -0.59598015     -15.69812317
Si       6.77089270       2.14669111       7.47291916       0.69137346       5.51984034       3.42924634
Si      -1.48249630       4.53955974       0.89637136      -1.25177099       0.79710649      -0.64443568
Si      -3.17753915       6.92572053       8.42766196       3.46837613      -1.04314534      11.42219842
Si      -0.96485618       2.13143181       1.17869056     -13.45804587      -9.94771338       7.50458372
Si       4.53433585       4.54722906       7.76319083     -12.51136804      12.61803087       4.96664905
Si       2.92406629       0.80109809       7.59119985       9.46961392       7.57379752       6.62257844
Si      -0.83142627       3.20178157       4.68175789      -1.89740290       1.95636897       2.51236791
Si       0.58717577       5.61365160       5.08986119      -8.25591647      -0.66969026      19.02960280
Si       4.40795381       0.81919186       1.05513051      -0.17863579      -0.03136075       0.09907784
Si       5.40813730       3.22632262       3.97069920      -0.89953015      14.27591112     -17.34955620
Si       1.23590065       5.61919922       3.57302398       8.50916174       0.42137388     -19.05422297
24
Lattice="8.946046216806542 0.2516076446126553 -0.49030854371098315 -4.255124496382338 7.831344707831091 0.09724067490795381 -0.509907079811388 -0.17762293731907353 9.762211768234518" Properties=species:S:1:pos:R:3:forces:R:3 unique_starting_index=90 config_type=initial n_minim_iter=3 energy=-3875.3527512428304 stress="-0.028959694852423418 -0.05016602464895225 -0.03440277126655352 0.01783209045751046 0.029425439214963003 -0.021207271276295785" pbc="T T T"
Si       6.54079009       0.66381431       6.89950388      -0.24463802      -3.10044044      -0.86645751
Si       0.50047676       3.26752728       0.52242825       2.71769471       0.07629081      -3.44599058
Si       5.12021288       6.02192052       1.46595565       0.36043975       0.03960847       0.06679175
Si       1.24337465       0.60192465       2.38488520      -0.15493881       0.12264451      -0.27505535
Si       4.45790009       3.20927692       8.82330756       0.00347374     -11.54110504       2.22887438
Si      -2.99700554       5.68494413       7.94164544       4.03089869      -5.56116775      -1.62319995
Si       0.30509897       2.34445663       3.76774428       0.14848510       0.32346048      -1.35077407
Si       2.31382263       4.98478456       7.63927112      -0.14757623       1.39848905       0.73823595
Si      -2.79566970       7.50327694       7.78611865      -2.02798229       5.31299160      -9.88753681
Si       5.56288007       2.44472538       5.57775422       0.20808579      -4.46147728       6.79726475
Si       0.71761043       5.04446013       1.75998184       0.67837164       1.96395249       1.79178618
Si       2.98064474       7.75194078       1.66926404      -3.22961637       0.35239372       5.44099912
Si       3.91165870       7.75858758      -0.04840223      -2.54873498       0.54066923      -4.86972678
Si       6.95841980       2.41346377       8.00035762       0.06635508       2.35716860       2.04905027
Si      -1.52238631       4.94497270       0.99974690      -0.30300153      -0.63466250       0.49478233
Si      -3.66584518       7.39173686       9.50305840       1.93922966       0.47710924       3.76190485
Si      -1.05455140       2.29153089       1.34123795      -3.95357728      -3.13033987       1.97466375
Si       4.58934711       4.99896463       8.39963464      -4.11517521       5.14939402       0.55880400
Si       2.78578263       0.83021393       8.35672437       6.53850247       4.74575725       4.05274479
Si      -1.05187816       3.42205850       5.23953448      -0.87732997      -0.15265460       0.77798975
Si       0.51047994       6.10544926       5.59678740      -2.04809278       0.01696525       3.71207318
Si       4.70957234       0.99926912       0.94307782       0.16275960       0.84910836      -0.01099017
Si       5.70023172       3.63731672       4.10329915       0.42952594       4.66647173      -6.72105545
Si       1.30273597       6.15789850       3.82647569       2.36684131       0.18937266      -5.39517837
24
Lattice="9.150873109877939 0.40672161056433304 -0.7029533702200984 -4.223205307922135 8.051441380082583 0.08624861750130898 -0.731051711927319 -0.3185007288061319 10.021839959638305" Properties=species:S:1:pos:R:3:forces:R:3 unique_starting_index=90 config_type=initial n_minim_iter=4 energy=-3879.01745447127 stress="-0.0073975862672375405 -0.019474731161497207 -0.0024773594638013152 0.013135090385784498 0.01840432799025533 -0.017458822079567553" pbc="T T T"
Si       6.54347980       0.69676360       6.91940971       0.02248315      -2.26975726      -1.51978729
Si       0.55600329       3.38922146       0.47465805       0.67109132      -0.30558273      -2.02837608
Si       5.29425431       6.30411742       1.30792254       0.42295544       0.40668789      -0.43962541
Si       1.22859134       0.61272079       2.40902423      -0.50637687       0.13960332       0.07781038
Si       4.41484743       3.26684421       8.90756760       0.44709171      -7.53764903       1.12580482
Si      -3.13433528       5.73728390       8.12743128       2.72987067      -3.94692398      -0.55259081
Si       0.26925401       2.38710885       3.82199083       0.08573174       0.16052614      -1.27441008
Si       2.27981820       5.10690280       7.71364151      -0.15409915       0.98533426       0.98605522
Si      -2.90167494       7.64216401       7.92748493      -1.59190046       3.44862812      -7.11554779
Si       5.60030553       2.54263562       5.57217691       0.30850912      -2.19895367       4.97553024
Si       0.77644052       5.22076051       1.72180029       0.08734278       1.13652412       1.50961749
Si       3.12694356       8.06139052       1.54782168      -1.21046489       0.09977317       2.62917728
Si       4.11701240       8.10609851      -0.24813549      -1.86521296       0.48787752      -2.91446504
Si       6.97483707       2.51008528       8.01849626       0.21844211       1.82923380       1.58387731
Si      -1.49791439       5.08904563       0.99160989      -0.18464015      -0.39538104       0.11388986
Si      -3.82642687       7.48364021       9.72696669       1.33057860       0.55265518       2.19412162
Si      -1.07465550       2.33719827       1.37053806      -2.13689711      -1.78442872       0.90207037
Si       4.58323704       5.15191081       8.44305649      -2.54540306       3.47842747       0.19571765
Si       2.68865512       0.80264533       8.49881928       4.61061080       2.93989009       3.06167043
Si      -1.13244163       3.46319366       5.34915259      -0.54600462      -0.33962421       0.51247295
Si       0.49629854       6.26481702       5.64859760      -1.52657505      -0.07577840       2.37804752
Si       4.80594609       1.09837450       0.84944512       0.03872979       0.62366682       0.61671758
Si       5.79432237       3.81349552       4.02180308       0.49518748       2.54054418      -3.83050181
Si       1.35099029       6.35577290       3.80213392       0.79894961       0.02470695      -3.18727642
24
Lattice="9.270937326642807 0.6419638075078598 -0.943329875411159 -4.07951169770941 8.162032632028518 0.04484912484533584 -0.9810365090298735 -0.5125443498027655 10.082174967719888" Properties=species:S:1:pos:R:3:forces:R:3 unique_starting_index=90 config_type=initial n_minim_iter=5 energy=-3881.3381852670136 stress="0.002922620008582942 -0.002485281738974484 0.01059276032633822 0.00945766052481191 0.0121281409726332 -0.01505053741622743" pbc="T T T"
Si       6.46490833       0.74549007       6.76356756      -0.09662839      -1.83575919      -1.51822827
Si       0.63240880       3.48252860       0.39495360      -0.47347700      -0.71309079      -1.43813359
Si       5.46727013       6.57100428       1.06213321       0.46389416       0.51423998      -0.61062241
Si       1.19801221       0.61691777       2.37586402      -0.52574779       0.17329395       0.28042694
Si       4.32663840       3.28660775       8.77252378       0.29755627      -5.01350536       0.49163570
Si      -3.21716338       5.66872895       8.12849701       1.51917797      -3.33331247       0.20243085
Si       0.23921709       2.39203320       3.78193789      -0.13360479      -0.22337713      -1.11906187
Si       2.24184367       5.16552546       7.59236365       0.19840939       0.41595664       0.94178377
Si      -2.93759372       7.65014981       7.87130989      -1.44426126       1.98264868      -4.63162183
Si       5.58500447       2.63919323       5.41684945       0.41664265      -0.79137883       3.41687155
Si       0.86654726       5.34859297       1.61584355      -0.26838796       0.91595772       1.73414960
Si       3.30842602       8.31791938       1.33327865      -0.25291180       0.00742598       1.36168302
Si       4.35273733       8.41898023      -0.50809537      -1.14342988       0.48078683      -2.22029851
Si       6.91776041       2.60693896       7.82898427       0.34626667       1.70873000       1.10811463
Si      -1.41758169       5.16938680       0.93975638      -0.07196222       0.40018066      -0.53949805
Si      -3.91586834       7.42753510       9.72537245       0.93378938       0.61041333       1.04734401
Si      -1.06846589       2.34512886       1.36295927      -0.87110063      -1.08214413       0.46194035
Si       4.54859957       5.25852238       8.26412533      -1.70162393       2.12166103       0.13688063
Si       2.54551407       0.75066623       8.45190875       3.74738122       2.39119649       2.49346711
Si      -1.18965804       3.43616984       5.33477181      -0.38158105      -0.03251140       0.42069750
Si       0.51175880       6.34376909       5.54762795      -1.02037681      -0.16655641       1.51961986
Si       4.86120749       1.22588772       0.71266708       0.04210592       0.24510834       0.73143238
Si       5.85243090       3.98714220       3.81032614       0.26675344       1.06871256      -2.28242107
Si       1.42805628       6.49008061       3.65693528       0.15311644       0.15532353      -1.98859232
24
Lattice="9.265671080088882 0.9232621469033895 -1.1573213151158455 -3.8332670664735455 8.088211005447898 -0.012320221780607736 -1.2035815809525232 -0.70968296257949 9.921927374378445" Properties=species:S:1:pos:R:3:forces:R:3 unique_starting_index=90 config_type=initial n_minim_iter=6 energy=-3883.0673868815848 stress="0.004844430817890108 0.00409726921296642 0.009493335255010085 0.0015969438150560615 0.008086111116933655 -0.011301462319108455" pbc="T T T"
Si       6.31272852       0.81479319       6.46243104      -0.32367522      -1.57675164      -1.25649584
Si       0.71769102       3.50989524       0.30294305      -0.88257439      -1.47637145      -1.53251086
Si       5.60529631       6.74455525       0.78619925       0.64399284       0.12562900      -0.19287261
Si       1.15782584       0.61492313       2.29156662      -0.19788063       0.00802316       0.13367593
Si       4.21109462       3.26382649       8.44367160      -0.08503403      -3.84832467       0.28760107
Si      -3.21254021       5.46202151       7.94378993       0.81033063      -3.10532776       0.68795410
Si       0.22544084       2.34833072       3.65543489      -0.18040382      -0.21299700      -0.93959330
Si       2.21577729       5.13136536       7.29958950       0.08962331       0.05146427       0.41002376
Si      -2.87618349       7.48458476       7.63162470      -1.52145470       1.13871130      -3.19547867
Si       5.51690052       2.71741319       5.14232412       0.37501716      -0.50887393       2.57161973
Si       0.97639788       5.37640259       1.46949553       0.01713009       1.28447280       1.75166640
Si       3.49572376       8.43197781       1.07783419      -0.24509188       0.01326231       1.24479138
Si       4.57695169       8.59625420      -0.76632080      -0.97239915       0.58311031      -2.12844618
Si       6.79445177       2.69235029       7.46860189       0.24171444       1.61561059       0.88368690
Si      -1.28589779       5.14213039       0.85651665      -0.35114999       0.49372188      -0.77595452
Si      -3.89276967       7.19660522       9.49517946       0.79289506       0.63714436       0.77744367
Si      -1.03028824       2.30014503       1.32080907      -0.11979401      -0.70546821       0.39087419
Si       4.49589478       5.28417477       7.89995908      -1.05815802       1.79017417      -0.08446730
Si       2.38732780       0.69599902       8.22004912       3.77460124       2.53711954       2.16072106
Si      -1.20212564       3.33162472       5.19801143      -0.08368172       0.46309131       0.56059394
Si       0.56535912       6.29766407       5.31599383      -0.86315225      -0.20991836       1.18268182
Si       4.85757077       1.35858483       0.56292552       0.19124304       0.00153516       0.37587592
Si       5.85931507       4.11525390       3.51547283      -0.12437537       0.40485186      -1.85911840
Si       1.52768289       6.50519340       3.42450102       0.07227737       0.49611100      -1.45427220
24
Lattice="9.194836356160257 1.2570219889597216 -1.3804852972675663 -3.5088052025253615 7.848804513285404 0.03860725731441375 -1.4356658387482466 -0.7825203000658706 9.669034713633271" Properties=species:S:1:pos:R:3:forces:R:3 unique_starting_index=90 config_type=initial n_minim_iter=7 energy=-3884.5823050923846 stress="0.0007891082224870278 0.002844916892691637 -0.0006653433778348134 -0.005429605153878575 0.007391660459061155 -0.007388607461024788" pbc="T T T"
Si       6.10439470       1.00406107       6.09211524      -0.45224834      -1.38481836      -0.98396273
Si       0.81423355       3.48386427       0.24574947      -0.46219339      -1.98950581      -1.53279717
Si       5.74007121       6.86730744       0.56488372       0.72500397      -0.14147277       0.07944704
Si       1.10925617       0.64106828       2.19016667       0.23464983      -0.53753691      -0.56012330
Si       4.06496566       3.32390234       8.06643084      -0.55963984      -3.28906523       0.39074860
Si      -3.16589207       5.22948561       7.76795287       0.65325571      -2.99873994       0.82415162
Si       0.21836788       2.31366616       3.52225719      -0.04663047       0.20180357      -0.71891779
Si       2.19168751       5.12298100       6.99440959      -0.42827515      -0.14009736      -0.03864287
Si      -2.76029116       7.26680029       7.42067199      -1.37275170       0.86767510      -2.22635593
Si       5.41270179       2.86292355       4.83871301       0.07935343      -0.58557922       1.80960287
Si       1.10905044       5.34735070       1.37313129       0.39699762       1.35310763       1.23412562
Si       3.70258132       8.45235548       0.90333574      -0.73775527       0.05244808       1.26325327
Si       4.81810364       8.66688008      -0.93527066      -0.94395579       0.72046899      -1.76793958
Si       6.62365222       2.89046050       7.05149369       0.43912574       1.36151897       0.99178152
Si      -1.11517671       5.03220899       0.82823665      -0.83798128       0.25460678      -0.69394630
Si      -3.80899800       6.93430700       9.27808090       0.77596755       0.66963179       0.79428815
Si      -0.97102125       2.22456890       1.29791433       0.18966203      -0.49532412       0.31195177
Si       4.42873590       5.36482818       7.51184508      -0.37864279       1.76818955      -0.32549154
Si       2.21159271       0.76249529       7.91445723       3.27777926       2.53855306       1.55837257
Si      -1.19230187       3.22947163       5.05940945       0.53895383       0.80235986       1.25045940
Si       0.64156731       6.21831756       5.11173322      -0.81165912      -0.24414482       1.35949185
Si       4.82370627       1.51842856       0.40775438      -0.10199520       0.19892878      -0.23531344
Si       5.83930924       4.27133701       3.21647349      -0.65327833       0.34446354      -1.91587066
Si       1.65029579       6.47367486       3.23159387       0.47625771       0.67252882      -0.86831297
24
Lattice="9.235936514635751 1.4650920845447937 -1.5923660642569406 -3.3491612932185824 7.687468878739326 0.25828356767026767 -1.6560158704773165 -0.645939824540336 9.714202307336377" Properties=species:S:1:pos:R:3:forces:R:3 unique_starting_index=90 config_type=initial n_minim_iter=8 energy=-3885.5322407893395 stress="0.01055931712386552 0.0056604983726949295 0.007507425763910497 0.0011122154799770427 0.0009543820099735795 -0.007104620781043537" pbc="T T T"
Si       5.98182651       1.25366582       5.96704626      -0.24917132      -1.53485964      -0.30090479
Si       0.87345194       3.46707982       0.27843106       0.06472511      -1.82083732      -1.10953916
Si       5.85938747       6.96855117       0.53740698       0.74430808      -0.13061017       0.13934223
Si       1.07490891       0.70027220       2.17515157       0.35663928      -0.46955193      -0.35698890
Si       3.94251592       3.51981949       8.04591242      -0.72606409      -2.92169083       0.40783742
Si      -3.22706039       5.21573790       7.95948402       0.35439038      -2.79080696       0.67098630
Si       0.18988900       2.36198981       3.55957869      -0.33313081       0.20635138      -0.43986337
Si       2.13759467       5.25541389       7.04264982      -0.55308902      -0.31887732      -0.00559317
Si      -2.77349626       7.26366118       7.61776838      -1.00989000       1.14621417      -1.57970671
Si       5.35404653       3.05933388       4.77367694      -0.42248006       0.37057936       0.82112459
Si       1.18628875       5.36131165       1.44355314       0.43637571       0.85976409       0.97940573
Si       3.83871745       8.48917096       0.96354413      -0.55208385       0.09830454       0.30416386
Si       5.00182443       8.70623930      -0.92142623      -0.71560164       0.46940172      -0.95889269
Si       6.52343238       3.17069893       6.95449444       0.46179891       0.89199754       0.93413323
Si      -1.03475148       4.97353746       0.93986057      -0.79366995       0.23778191      -0.45080396
Si      -3.86060122       6.93806611       9.51385479       0.52143461       0.48463687       0.51418446
Si      -0.95370862       2.19867284       1.36451905       0.08147995      -0.39943825       0.44812772
Si       4.36928120       5.57563788       7.50582460      -0.19313186       1.51310667      -0.49362647
Si       2.07452177       0.97156245       7.89090049       2.73489570       2.18215426       0.98004981
Si      -1.23273027       3.26193780       5.16068479       0.93322598       0.46987921       1.21418274
Si       0.64672010       6.26478468       5.22164997      -0.79181716       0.03161484       0.92681156
Si       4.83824489       1.64094082       0.31229094      -0.11000642       0.60443613      -0.39447383
Si       5.84696014       4.44672328       3.13954437      -0.72513493       0.35527859      -1.95572815
Si       1.71242953       6.52213000       3.30007702       0.48599742       0.46517116      -0.29422846
24
Lattice="9.083617573225029 1.5658234384173852 -1.5881872017270104 -3.185765911101955 7.568896573531418 0.23631273134283617 -1.6516699711106795 -0.6698145300312537 9.587463821600274" Properties=species:S:1:pos:R:3:forces:R:3 unique_starting_index=90 config_type=initial n_minim_iter=9 energy=-3886.0017192118776 stress="0.0003980824341232179 -0.0005559168616170207 -0.007932431584160274 -0.0012674940970091213 0.004320765401310551 -0.008136284986479099" pbc="T T T"
Si       5.87165916       1.30303645       5.87456513      -0.25539883      -1.87332867      -0.19743720
Si       0.90124932       3.43691212       0.26022054       0.39060110      -1.85588485      -1.16898338
Si       5.84100540       6.97062321       0.50068669       0.61090440      -0.34281106       0.30880808
Si       1.06068948       0.70316397       2.14087014       1.01426861      -0.88087354      -0.18380213
Si       3.89266613       3.51331021       7.92505810      -0.73671852      -2.82315595       0.46587788
Si      -3.11564392       5.10551853       7.84426694       0.52487202      -2.65874587       0.35762195
Si       0.21005467       2.33762545       3.50300044       0.04279162       0.30507457      -0.40011362
Si       2.15038862       5.22010554       6.92964686      -1.06329544      -0.47849762       0.08641770
Si      -2.64083231       7.15276547       7.49230063      -0.74029882       0.95743859      -1.67218412
Si       5.28190147       3.09016820       4.69563655      -0.91269943       0.50483131       0.35910216
Si       1.23257261       5.32376869       1.40858848       0.68809205       0.78604643       0.64686599
Si       3.87337119       8.44997273       0.92120946      -0.82702426       0.22479436       0.72036555
Si       5.02222615       8.68296724      -0.94483775      -1.10986501       0.48539531      -0.90566792
Si       6.42987769       3.21538961       6.84417536       0.53386078       1.06398894       0.91570373
Si      -0.95376286       4.91020350       0.91291763      -0.99030321       0.30827338      -0.50673153
Si      -3.71328587       6.81327348       9.37090753       0.78240237       0.64109151       0.56336514
Si      -0.91019024       2.16189657       1.34243906      -0.14142577      -0.42177442       0.32754645
Si       4.34698292       5.57141139       7.37948530       0.00347449       1.37072653      -0.37390651
Si       2.04338671       0.98967199       7.77767066       2.56333706       2.30391290       0.85104601
Si      -1.17433375       3.21084430       5.08572101       1.14463537       0.55400593       1.71473751
Si       0.70290077       6.20335169       5.13542881      -0.76195263       0.23411024       0.65768850
Si       4.76844923       1.68605332       0.29487659      -0.29690588       0.55803786      -0.18762474
Si       5.78889037       4.47251376       3.06977735      -1.15572843       0.60073897      -2.02062612
Si       1.76159883       6.47685597       3.23176078       0.69237635       0.43660516      -0.35806938
24
Lattice="9.100459789096831 1.6448565953834706 -1.636957498593927 -3.125742297363945 7.545276400625136 0.25996492625003054 -1.7023897066240006 -0.6706947017053863 9.67261558313418" Properties=species:S:1:pos:R:3:forces:R:3 unique_starting_index=90 config_type=initial n_minim_iter=10 energy=-3886.2759582753897 stress="0.00503420993784359 0.0032978731847527407 -0.0011311571602160145 -0.0004305455855606285 0.002878388587108244 -0.007537706993449471" pbc="T T T"
Si       5.85008706       1.36034052       5.90070837      -0.21099654      -1.75436377       0.04978078
Si       0.92721793       3.44390088       0.26058035       0.39225239      -1.74699829      -1.03664465
Si       5.89258544       7.02663247       0.48894276       0.56894624      -0.28455597       0.30085296
Si       1.05712120       0.71499223       2.15419307       1.04885747      -0.82182231      -0.07989417
Si       3.87743578       3.55476161       7.98072934      -0.72547631      -2.47708554       0.35041059
Si      -3.11273854       5.08690463       7.92883288       0.42678919      -2.45057057       0.35534747
Si       0.21228759       2.34678064       3.53276441      -0.09838314       0.27681027      -0.34673789
Si       2.15533006       5.25052713       6.98492220      -0.98367616      -0.53492400       0.04518842
Si      -2.61875006       7.14652215       7.56999012      -0.56985160       0.91587224      -1.37988530
Si       5.28035281       3.14596509       4.71727317      -0.84214745       0.82002235       0.13782562
Si       1.26905970       5.34170983       1.42170880       0.65957503       0.77086251       0.59922536
Si       3.93266389       8.49008336       0.92432712      -0.73765887       0.17653905       0.41572435
Si       5.09264861       8.73153527      -0.96469117      -1.08283349       0.49578567      -0.79279080
Si       6.42144820       3.28661076       6.87887789       0.45211205       0.92539983       0.83547741
Si      -0.92023516       4.90600338       0.92951499      -0.93242449       0.29065762      -0.38386897
Si      -3.70129594       6.79974633       9.47161267       0.70662042       0.54210486       0.46313413
Si      -0.89995297       2.15591925       1.36059674      -0.11532381      -0.35764893       0.27658854
Si       4.35546067       5.62700443       7.42757204       0.00912519       1.21045761      -0.40813134
Si       2.01923828       1.02622412       7.83371527       2.33864907       2.05363969       0.76595458
Si      -1.17139326       3.21115614       5.13858132       1.17356061       0.38258685       1.63932644
Si       0.72545086       6.22040065       5.18366872      -0.72248449       0.28961843       0.48198631
Si       4.77866532       1.73074224       0.27921334      -0.27277292       0.59328030      -0.20594359
Si       5.80713858       4.53200448       3.07291049      -1.13239277       0.35910236      -1.85252662
Si       1.79875119       6.50240751       3.25717630       0.64993439       0.32522977      -0.23039964
24