20
Lattice="5.8552871272740905 1.025264324602988 0.8007868450334998 1.7451027798142191 5.527981985131328 1.0240556673396675 4.139617019355356 3.927107713767858 15.72602488959255" Properties=species:S:1:pos:R:3:forces:R:3 unique_starting_index=222 config_type=initial n_minim_iter=1 energy=-3250.6614370063176 stress="0.03234977328279002 -0.008960021339114735 0.0005612140194060028 -0.008960021339114735 0.032020213762323536 0.008902721860644766 0.0005612140194060028 0.008902721860644766 0.0348737070343136" free_energy=-3250.6614370063176 pbc="T T T"
Si       7.76600070       7.53576240       9.73712355      -0.39155687       0.33354514       0.26881509
Si       3.97400623       2.94459163       7.81374386       0.39155687      -0.33354514      -0.26881509
Si       9.06428713       5.80187571      12.34570721      -0.61796313       0.36465805       0.27450585
Si       2.67571980       4.67847831       5.20516019       0.61796313      -0.36465805      -0.27450585
Si       5.21888638       2.27099576       1.78758480      -0.26368293       0.09307715       0.44491364
Si       6.52112055       8.20935826      15.76328260       0.26368293      -0.09307715      -0.44491364
Si      10.15187279       9.25739606      14.37387327      -0.47713632      -0.11564265       0.83216503
Si       1.58813414       1.22295796       3.17699413       0.47713632       0.11564265      -0.83216503
Si       6.75262579       6.14363939      11.42066098       0.44548659      -0.47921034       0.31251001
Si       4.98738114       4.33671463       6.13020643      -0.44548659       0.47921034      -0.31251001
Si       5.59928031       3.83759145       3.71235848      -0.07812854      -0.64230821      -0.11337642
Si       6.14072662       6.64276258      13.83850893       0.07812854       0.64230821       0.11337642
Si       6.42283213       4.24767315       9.61760792      -0.44548503       0.14585149       0.75787273
Si       5.31717479       6.23268087       7.93325948       0.44548503      -0.14585149      -0.75787273
Si       3.37697406       2.66754043       4.02869209       0.25959233      -0.00715953      -0.07580577
Si       8.36303287       7.81281359      13.52217532      -0.25959233       0.00715953       0.07580577
Si       3.86726568       5.06513443       9.29228968       0.24448947      -0.88704276       0.09198107
Si       7.87274125       5.41521959       8.25857772      -0.24448947       0.88704276      -0.09198107
Si       5.48178780       5.87867495       2.45840229      -0.40430678       0.48586413      -0.05226677
Si       6.25821913       4.60167907      15.09246511       0.40430678      -0.48586413       0.05226677
20
Lattice="5.6581563772429915 1.0381565408672067 0.7568140958428234 1.7360286019134654 5.34227765054628 0.9313367648505126 4.021194220864601 3.6800357377935295 15.088876980414547" Properties=species:S:1:pos:R:3:forces:R:3 unique_starting_index=222 config_type=initial n_minim_iter=2 energy=-3251.4846851207685 stress="-0.009470163103577593 -0.004355367478506546 -0.0008436938797453615 -0.004355367478506546 -0.008944004330884174 -0.00038451301932132076 -0.0008436938797453615 -0.00038451301932132076 -0.008465903568258196" free_energy=-3251.4846851207685 pbc="T T T"
Si       7.55734122       7.25562624       9.29120938      -0.03959314       0.48013003       0.16735752
Si       3.85803798       2.80484369       7.48581846       0.03959314      -0.48013003      -0.16735752
Si       8.79095473       5.56985626      11.81646608       0.05639898      -0.30894252       0.49903787
Si       2.62442447       4.49061367       4.96056176      -0.05639898       0.30894252      -0.49903787
Si       5.05489941       2.22514114       1.69574163       0.06169949      -0.03810955      -0.08006389
Si       6.36047979       7.83532879      15.08128621      -0.06169949       0.03810955       0.08006389
Si       9.87240773       8.89486941      13.73532046      -0.54184461       0.25516515       0.87180647
Si       1.54297147       1.16560052       3.04170738       0.54184462      -0.25516515      -0.87180647
Si       6.56720922       5.88431920      10.92488654      -0.04323724      -0.51622210       0.19781893
Si       4.84816998       4.17615073       5.85214130       0.04323724       0.51622210      -0.19781893
Si       5.43611406       3.72068680       3.53094662       0.23749096      -0.23634529       0.06060012
Si       5.97926514       6.33978313      13.24608122      -0.23749096       0.23634529      -0.06060012
Si       6.22987916       4.06993302       9.20962379      -0.37986782      -0.08264607       1.17180088
Si       5.18550004       5.99053691       7.56740405       0.37986782       0.08264607      -1.17180088
Si       3.28154138       2.56857681       3.84794234       0.36428319      -0.24390915      -0.28717184
Si       8.13383782       7.49189312      12.92908551      -0.36428319       0.24390915       0.28717184
Si       3.77411623       4.83500391       8.88895512       0.36273288      -0.93717162       0.25723047
Si       7.64126297       5.22546602       7.88807273      -0.36273287       0.93717162      -0.25723047
Si       5.34243994       5.70413054       2.30532866      -0.52683717       0.64190489      -0.10625370
Si       6.07293926       4.35633939      14.47169919       0.52683717      -0.64190489       0.10625370
20
Lattice="5.72155529289868 1.1433477984330611 0.7657712483320092 1.8474318535216963 5.403270374483829 0.9144457962482216 4.150015802094852 3.7110588718521487 15.126728218303056" Properties=species:S:1:pos:R:3:forces:R:3 unique_starting_index=222 config_type=initial n_minim_iter=3 energy=-3251.588078005378 stress="-0.0018607275170923726 0.005162078423106085 -0.002590511982303219 0.005162078423106085 0.0005662801639492246 -0.0030577364376441706 -0.002590511982303219 -0.0030577364376441706 -0.002576420977539139" free_energy=-3251.588078005378 pbc="T T T"
Si       7.76458430       7.40130054       9.30428959      -0.00563733       0.48765701       0.33299763
Si       3.95441865       2.85637650       7.50265567       0.00563733      -0.48765701      -0.33299763
Si       8.98272316       5.71102916      11.84928014      -0.05553271      -0.64793592       0.44017927
Si       2.73627979       4.54664789       4.95766512       0.05553271       0.64793592      -0.44017927
Si       5.13712446       2.32282113       1.70127761      -0.27021491      -0.15811586       0.00290688
Si       6.58187849       7.93485591      15.10566765       0.27021491       0.15811585      -0.00290688
Si      10.13267338       9.07120230      13.76480080      -0.75816709       0.33449804       0.60327990
Si       1.58632957       1.18647475       3.04214447       0.75816710      -0.33449804      -0.60327990
Si       6.74646546       5.98882480      10.94735538       0.11806827      -0.36388537       0.07256878
Si       4.97253749       4.26885224       5.85958988      -0.11806827       0.36388537      -0.07256878
Si       5.55339741       3.82456335       3.53657960       0.03661557      -0.02219321      -0.03794938
Si       6.16560554       6.43311369      13.27036566      -0.03661557       0.02219321       0.03794938
Si       6.36697962       4.16768817       9.24100250      -0.08985658       0.16801182       0.92185670
Si       5.35202333       6.08998887       7.56594276       0.08985658      -0.16801182      -0.92185670
Si       3.36364486       2.62591237       3.85302615       0.38407252      -0.54206916      -0.46391639
Si       8.35535809       7.63176467      12.95391911      -0.38407252       0.54206915       0.46391639
Si       3.91121493       4.88805843       8.90445489       0.62728919      -0.74897929       0.10025545
Si       7.80778802       5.36961862       7.90249037      -0.62728919       0.74897929      -0.10025545
Si       5.48687128       5.83124974       2.29727283      -0.48246761       0.59199945       0.01721501
Si       6.23213167       4.42642731      14.50967244       0.48246761      -0.59199945      -0.01721501
20
Lattice="5.802627339853207 1.1436844482232047 0.8852082091761028 1.8838773624552123 5.386873462605439 1.0006889644878012 4.476144121249916 3.8255465067680454 15.36180059595026" Properties=species:S:1:pos:R:3:forces:R:3 unique_starting_index=222 config_type=initial n_minim_iter=4 energy=-3251.803297423096 stress="0.011768396284223478 0.0006957136566685221 0.004119150576301814 0.0006957136566685221 0.00525386699408936 0.0013573114713728365 0.004119150576301814 0.0013573114713728365 0.005339593948736614" free_energy=-3251.803297423096 pbc="T T T"
Si       8.02370664       7.45993367       9.59235734       0.00389467       0.39058410       0.16111688
Si       4.13894218       2.89617075       7.65534043      -0.00389467      -0.39058410      -0.16111688
Si       9.30239901       5.77592706      12.17216099      -0.21983606      -0.27792562       0.23473841
Si       2.86024982       4.58017736       5.07553678       0.21983606       0.27792562      -0.23473841
Si       5.22416980       2.32376257       1.82837788      -0.26946997      -0.04718689       0.08499096
Si       6.93847903       8.03234185      15.41931989       0.26946997       0.04718689      -0.08499096
Si      10.48559782       9.15434965      14.15961259      -0.85372955      -0.18589366       0.57100307
Si       1.67705100       1.20175477       3.08808518       0.85372954       0.18589366      -0.57100307
Si       7.02722291       6.04494072      11.21666291       0.24033181      -0.44933057       0.19698663
Si       5.13542591       4.31116370       6.03103486      -0.24033181       0.44933057      -0.19698663
Si       5.68500280       3.83295001       3.69888999       0.15921178      -0.28114506      -0.11364042
Si       6.47764603       6.52315441      13.54880778      -0.15921178       0.28114506       0.11364042
Si       6.60492898       4.22950131       9.49565443      -0.21555191       0.20521992       0.90735966
Si       5.55771984       6.12660311       7.75204334       0.21555191      -0.20521992      -0.90735966
Si       3.48218982       2.63798168       3.95965064       0.23190857      -0.53051325      -0.40926374
Si       8.68045900       7.71812273      13.28804713      -0.23190857       0.53051325       0.40926374
Si       4.13143454       4.92192000       9.09667110       0.33383164      -0.73507162       0.03928318
Si       8.03121428       5.43418442       8.15102667      -0.33383164       0.73507162      -0.03928318
Si       5.57917319       5.83927940       2.46315804      -0.58887280       0.58662555      -0.07457524
Si       6.58347564       4.51682501      14.78453973       0.58887280      -0.58662555       0.07457524
20
Lattice="5.691337799297457 1.1543001910991284 0.9412888523208001 1.851402405166309 5.411520758771403 1.1090596947054177 4.449789116167252 4.044492390047483 15.852264944588336" Properties=species:S:1:pos:R:3:forces:R:3 unique_starting_index=222 config_type=initial n_minim_iter=5 energy=-3252.2115603620514 stress="0.006605931320992933 -0.0024518141879851 0.0009279075802064026 -0.0024518141879851 0.015570939819673956 0.004917190933898712 0.0009279075802064026 0.004917190933898712 0.02202854838556633" free_energy=-3252.2115603620514 pbc="T T T"
Si       7.90402338       7.63838953      10.00144395       0.30005496       0.10732156       0.38395770
Si       4.08850594       2.97192381       7.90116954      -0.30005496      -0.10732156      -0.38395770
Si       9.16086151       5.92160126      12.64584248      -0.01160549       0.44986430      -0.08485885
Si       2.83166781       4.68871208       5.25677101       0.01160549      -0.44986430       0.08485885
Si       5.11655512       2.34419920       1.92630588      -0.14792299       0.15331345       0.26196141
Si       6.87597420       8.26611414      15.97630761       0.14792299      -0.15331345      -0.26196141
Si      10.28562004       9.37316575      14.76066221      -0.81417230      -0.37120604       0.64093911
Si       1.70690928       1.23714759       3.14195129       0.81417230       0.37120604      -0.64093911
Si       6.94087274       6.17614620      11.64325921       0.09469439      -0.29306325       0.25423495
Si       5.05165658       4.43416714       6.25935428      -0.09469439       0.29306325      -0.25423495
Si       5.59720661       3.87478262       3.86849108       0.08088211      -0.10086328      -0.31647936
Si       6.39532271       6.73553072      14.03412241      -0.08088211       0.10086328       0.31647936
Si       6.49713686       4.37195023       9.91261020       0.06762172      -0.00193401       0.70954215
Si       5.49539246       6.23836311       7.99000329      -0.06762172       0.00193401      -0.70954215
Si       3.45225844       2.66669798       4.08744822       0.08273883      -0.00398028       0.06383010
Si       8.54027088       7.94361536      13.81516527      -0.08273882       0.00398028      -0.06383009
Si       4.11767128       4.99618588       9.44027845       0.11691863      -0.54080653       0.12290417
Si       7.87485805       5.61412746       8.46233504      -0.11691863       0.54080653      -0.12290417
Si       5.44194874       5.92632551       2.62285774      -0.56114620       0.15204621       0.04156393
Si       6.55058058       4.68398783      15.27975575       0.56114620      -0.15204621      -0.04156393
20
Lattice="5.771837925101008 1.1688095536390946 0.9694272541424402 1.899899401458105 5.359206131894148 1.133006467207468 4.603816438085393 4.089914082829788 15.707758688801933" Properties=species:S:1:pos:R:3:forces:R:3 unique_starting_index=222 config_type=initial n_minim_iter=6 energy=-3252.6175461274483 stress="0.010120615636488127 -0.003934215685344004 0.00278438764617417 -0.003934215685344004 0.010337254707422265 0.0011069092388870025 0.00278438764617417 0.0011069092388870025 0.014971914102814224" free_energy=-3252.6175461274483 pbc="T T T"
Si       8.08706980       7.65936437       9.98501425       0.28387619      -0.20584152       0.29679723
Si       4.18848396       2.95856540       7.82517816      -0.28387619       0.20584152      -0.29679723
Si       9.35945453       5.92462331      12.60487549      -0.06163179       0.71722899      -0.14578278
Si       2.91609924       4.69330646       5.20531692       0.06163179      -0.71722899       0.14578278
Si       5.18831889       2.34185135       1.94661984      -0.18163764       0.18094991       0.09971183
Si       7.08723487       8.27607842      15.86357257       0.18163764      -0.18094991      -0.09971183
Si      10.47313989       9.37969835      14.74297185      -0.47122003      -0.78508440       0.39268395
Si       1.80241388       1.23823142       3.06722056       0.47122003       0.78508440      -0.39268395
Si       7.11715953       6.15400405      11.58779113       0.29110428      -0.01261479       0.35603668
Si       5.15839423       4.46392572       6.22240129      -0.29110428       0.01261479      -0.35603668
Si       5.71156311       3.85779813       3.87012320       0.35945735       0.05089153      -0.35901393
Si       6.56399065       6.76013164      13.94006921      -0.35945735      -0.05089153       0.35901393
Si       6.63380864       4.39849884       9.93033388       0.15885043      -0.05367531       0.39599505
Si       5.64174513       6.21943092       7.87985853      -0.15885043       0.05367531      -0.39599505
Si       3.54860078       2.64163764       4.04693927       0.06988131       0.06590660       0.27353254
Si       8.72695299       7.97629213      13.76325314      -0.06988131      -0.06590660      -0.27353254
Si       4.26658206       4.93942804       9.38782488       0.09909477      -0.21033440      -0.03717197
Si       8.00897170       5.67850172       8.42236753      -0.09909477       0.21033440       0.03717197
Si       5.50600391       5.93051398       2.64778914      -0.48902063      -0.08876553      -0.03597410
Si       6.76954986       4.68741579      15.16240327       0.48902063       0.08876553       0.03597410
20
Lattice="5.780956192110602 1.218491486072276 0.9694816776452659 1.941604513546706 5.35619696106413 1.1948189996322829 4.6215466944963 4.31184262887557 15.585825037106584" Properties=species:S:1:pos:R:3:forces:R:3 unique_starting_index=222 config_type=initial n_minim_iter=7 energy=-3252.7718234272784 stress="0.004413002606435892 -0.00022567523220442295 0.003372482384638408 -0.00022567523220442295 0.004869457111468321 0.004595251739258595 0.003372482384638408 0.004595251739258595 0.00808788882396302" free_energy=-3252.7718234272784 pbc="T T T"
Si       8.14310356       7.82229669       9.98591175       0.43553907      -0.20236605       0.21225217
Si       4.20100384       3.06423439       7.76421397      -0.43553907       0.20236605      -0.21225217
Si       9.39381539       6.12197968      12.55170112       0.01435093       0.84001313      -0.01495928
Si       2.95029201       4.76455140       5.19842459      -0.01435093      -0.84001313       0.01495928
Si       5.19935869       2.39157466       1.95318304      -0.28218125       0.23256822      -0.02043203
Si       7.14474871       8.49495642      15.79694267       0.28218125      -0.23256822       0.02043203
Si      10.50731828       9.59890836      14.72775253      -0.38721343      -0.99390217       0.20386194
Si       1.83678912       1.28762272       3.02237318       0.38721342       0.99390216      -0.20386194
Si       7.16041058       6.31298251      11.54734111       0.16992409       0.04952836       0.41183316
Si       5.18369682       4.57354857       6.20278460      -0.16992409      -0.04952836      -0.41183316
Si       5.74714615       3.92594898       3.87222772       0.36698854       0.08857703      -0.34014156
Si       6.59696125       6.96058210      13.87789800      -0.36698854      -0.08857703       0.34014156
Si       6.65556837       4.55812548       9.91350659       0.21890636      -0.24146788       0.39092816
Si       5.68853903       6.32840560       7.83661913      -0.21890636       0.24146788      -0.39092816
Si       3.57749445       2.69468083       4.02615269       0.07291691       0.03034833       0.43111409
Si       8.76661295       8.19185024      13.72397302      -0.07291691      -0.03034833      -0.43111409
Si       4.31240672       5.04059669       9.35380442       0.02920251      -0.08305346      -0.18860375
Si       8.03170068       5.84593439       8.39632130      -0.02920251       0.08305346       0.18860375
Si       5.52976534       5.98928969       2.69472085      -0.29281871      -0.03361372      -0.13250014
Si       6.81434206       4.89724139      15.05540486       0.29281871       0.03361372       0.13250014
20
Lattice="5.795262500378238 1.198207553493617 0.8916028883110341 1.9246051141010645 5.326094635809283 1.1492185424712502 4.45903835244752 4.2533596345858005 15.294031033642522" Properties=species:S:1:pos:R:3:forces:R:3 unique_starting_index=222 config_type=initial n_minim_iter=8 energy=-3252.906220942708 stress="1.7840073718845246e-05 -0.0011989914408356596 -0.0007366011568285829 -0.0011989914408356596 0.0008228050925884501 -0.002278874183490573 -0.0007366011568285829 -0.002278874183490573 -0.0009209344834391429" free_energy=-3252.906220942708 pbc="T T T"
Si       8.06003062       7.76115265       9.74944926       0.40944129      -0.37244855       0.22049566
Si       4.11887534       3.01650917       7.58540320      -0.40944129       0.37244855      -0.22049566
Si       9.28402950       6.05128068      12.26506753      -0.01387676       0.66314926       0.14391683
Si       2.89487647       4.72638114       5.06978493       0.01387676      -0.66314926      -0.14391683
Si       5.18826139       2.36602176       1.86404725      -0.24060844       0.18900687      -0.18228908
Si       6.99064458       8.41164007      15.47080522       0.24060844      -0.18900687       0.18228908
Si      10.34186982       9.49422583      14.40318513       0.03754821      -0.83662794       0.07559323
Si       1.83703615       1.28343599       2.93166734      -0.03754821       0.83662794      -0.07559323
Si       7.05636791       6.23700930      11.29894338       0.21041160       0.30765184       0.43047929
Si       5.12253806       4.54065252       6.03590908      -0.21041160      -0.30765184      -0.43047928
Si       5.73331754       3.88720224       3.74074833       0.51470880       0.15105364      -0.34246779
Si       6.44558843       6.89045959      13.59410413      -0.51470881      -0.15105364       0.34246779
Si       6.56448394       4.50388906       9.72259933       0.23175182      -0.28068254       0.17934532
Si       5.61442203       6.27377276       7.61225314      -0.23175182       0.28068254      -0.17934532
Si       3.55482799       2.65672959       3.91968457       0.12806902       0.12826248       0.58114973
Si       8.62407798       8.12093224      13.41516789      -0.12806902      -0.12826248      -0.58114974
Si       4.23062179       4.96688738       9.16086616       0.07849020       0.05904085      -0.23273204
Si       7.94828418       5.81077444       8.17398631      -0.07849020      -0.05904085       0.23273204
Si       5.49054478       5.96012723       2.58368377      -0.07605735      -0.15283262       0.02794289
Si       6.68836119       4.81753460      14.75116869       0.07605735       0.15283262      -0.02794289
20
Lattice="5.841522959158216 1.2296488065942013 0.8486937197936029 1.9668017081722757 5.2390727724576855 1.2150810087984614 4.385116644663621 4.467811909928175 15.110643499041597" Properties=species:S:1:pos:R:3:forces:R:3 unique_starting_index=222 config_type=initial n_minim_iter=9 energy=-3253.0781759952874 stress="-0.00741991174562049 0.004150363288407474 -0.003852935239833873 0.004150363288407474 -0.01524840787728013 -0.0028408102581175695 -0.003852935239833873 -0.0028408102581175695 -0.007848366943699368" free_energy=-3253.0781759952874 pbc="T T T"
Si       8.11706363       7.82492643       9.70447494       0.34649152      -0.26482398      -0.11611017
Si       4.07637769       3.11160705       7.46994329      -0.34649152       0.26482398       0.11611017
Si       9.29010315       6.22952567      12.13984897       0.09677792       0.19191637       0.14792779
Si       2.90333816       4.70700782       5.03456926      -0.09677792      -0.19191637      -0.14792779
Si       5.20734171       2.38995057       1.82713163      -0.32436615       0.14675565      -0.28087825
Si       6.98609960       8.54658292      15.34728660       0.32436615      -0.14675565       0.28087825
Si      10.31593080       9.57092954      14.31155653       0.10463737      -0.57715237      -0.22128577
Si       1.87751051       1.36560395       2.86286170      -0.10463737       0.57715237       0.22128577
Si       7.06978857       6.34932244      11.21965127      -0.14563505       0.27189642       0.41676202
Si       5.12365274       4.58721105       5.95476696       0.14563505      -0.27189642      -0.41676202
Si       5.80695549       3.91184699       3.68670875       0.32501500      -0.15140857      -0.05936856
Si       6.38648582       7.02468650      13.48770948      -0.32501500       0.15140857       0.05936856
Si       6.56541330       4.61774745       9.66428887       0.17156795      -0.30784607       0.19769445
Si       5.62802801       6.31878604       7.51012936      -0.17156795       0.30784608      -0.19769445
Si       3.58795801       2.68447704       3.89557924       0.21819057      -0.08864914       0.55725350
Si       8.60548330       8.25205645      13.27883899      -0.21819058       0.08864914      -0.55725350
Si       4.23804549       5.01877268       9.07548327       0.05130667       0.11119054      -0.11116250
Si       7.95539582       5.91776081       8.09893496      -0.05130667      -0.11119054       0.11116250
Si       5.51885628       5.92657582       2.60432691       0.19885389       0.30689021      -0.03535323
Si       6.67458503       5.00995767      14.57009132      -0.19885389      -0.30689021       0.03535323
20
Lattice="5.831952272772667 1.2419872480137106 0.873929223643039 1.9575586664121432 5.329907624110673 1.2629568474852086 4.445429806656285 4.680982861579651 14.903325059737883" Properties=species:S:1:pos:R:3:forces:R:3 unique_starting_index=222 config_type=initial n_minim_iter=10 energy=-3253.186125595011 stress="-0.011010322378253602 0.003801301818648731 0.0004938071802753197 0.003801301818648731 -0.005756526971067468 -0.002064696765666571 0.0004938071802753197 -0.002064696765666571 -0.015420795701318326" free_energy=-3253.186125595011 pbc="T T T"
Si       8.15116885       8.02536225       9.66391463       0.28197114      -0.05302824      -0.38440252
Si       4.08377189       3.22751548       7.37629650      -0.28197114       0.05302824       0.38440252
Si       9.32276096       6.44470664      12.04212740       0.00533589      -0.00638249       0.47939243
Si       2.91217979       4.80817110       4.99808373      -0.00533590       0.00638249      -0.47939243
Si       5.18759837       2.43715984       1.83998412      -0.31699357       0.09530830      -0.21355396
Si       7.04734238       8.81571789      15.20022702       0.31699357      -0.09530829       0.21355396
Si      10.32902436       9.81189184      14.21833389       0.37806936      -0.41928715      -0.57691686
Si       1.90591639       1.44098589       2.82187724      -0.37806937       0.41928715       0.57691686
Si       7.10824635       6.54785205      11.13858881      -0.35274653       0.12616140       0.29986452
Si       5.12669440       4.70502568       5.90162232       0.35274653      -0.12616140      -0.29986452
Si       5.82628070       3.99577998       3.67946636       0.28563262      -0.10021930      -0.08589136
Si       6.40866005       7.25709775      13.36074477      -0.28563262       0.10021929       0.08589136
Si       6.59761012       4.76552049       9.59727298       0.01728631      -0.44659348       0.38282909
Si       5.63733062       6.48735724       7.44293815      -0.01728631       0.44659348      -0.38282909
Si       3.60746297       2.75411435       3.88517387       0.07164945      -0.03317066       0.58307656
Si       8.62747777       8.49876339      13.15503726      -0.07164945       0.03317066      -0.58307656
Si       4.27598946       5.16552751       8.98095111       0.06201331       0.03145441      -0.31123667
Si       7.95895129       6.08735023       8.05926002      -0.06201330      -0.03145441       0.31123667
Si       5.49447259       6.04205853       2.64885223       0.68598168       0.22082102      -0.01722209
Si       6.74046816       5.21081921      14.39135890      -0.68598167      -0.22082102       0.01722209
20
Lattice="5.868159474098207 1.206168633234971 0.8729382136116752 1.9243991687577247 5.343970261451592 1.3177857207040506 4.410379086954015 4.82019794000593 14.973425505171715" Properties=species:S:1:pos:R:3:forces:R:3 unique_starting_index=222 config_type=initial n_minim_iter=11 energy=-3253.3633720792227 stress="-0.0014871464120367517 0.0004774887127694759 -0.0005371679422225076 0.0004774887127694759 -0.00038897032853220793 0.0015606964220462518 -0.0005371679422225076 0.0015606964220462518 -0.005993467697614949" free_energy=-3253.3633720792227 pbc="T T T"
Si       8.14790087       8.07684094       9.74934423       0.18241411       0.03845035      -0.53612128
Si       4.05503686       3.29349590       7.41480521      -0.18241411      -0.03845035       0.53612128
Si       9.32007462       6.54210990      12.12214993      -0.06779352      -0.17874376       0.26089968
Si       2.88286311       4.82822693       5.04199951       0.06779353       0.17874376      -0.26089968
Si       5.18987674       2.42813885       1.84981443      -0.26582696       0.19199723      -0.14717524
Si       7.01306099       8.94219798      15.31433501       0.26582696      -0.19199723       0.14717524
Si      10.29592926       9.87235473      14.31961884       0.02457941       0.01524670      -0.36528597
Si       1.90700847       1.49798210       2.84453060      -0.02457941      -0.01524670       0.36528597
Si       7.08912349       6.63984085      11.23529562      -0.42612394      -0.04804450       0.28068901
Si       5.11381423       4.73049599       5.92885382       0.42612393       0.04804450      -0.28068901
Si       5.85327581       3.99780488       3.70210983       0.08911720      -0.13842104      -0.00972207
Si       6.34966192       7.37253196      13.46203961      -0.08911720       0.13842104       0.00972207
Si       6.59835706       4.81665873       9.66656795      -0.16263918      -0.36634670       0.43061615
Si       5.60458067       6.55367811       7.49758149       0.16263918       0.36634670      -0.43061615
Si       3.61302714       2.77922807       3.94060871       0.03764121      -0.05113078       0.50395708
Si       8.58991059       8.59110877      13.22354073      -0.03764121       0.05113078      -0.50395708
Si       4.25081957       5.24094214       9.03423072       0.10398214      -0.00170217      -0.17375770
Si       7.95211816       6.12939469       8.12991872      -0.10398213       0.00170217       0.17375770
Si       5.48631120       6.04781251       2.70403415       0.33381873       0.42346784       0.10402669
Si       6.71662653       5.32252432      14.46011529      -0.33381873      -0.42346784      -0.10402669
20
Lattice="5.867284678693348 1.188480700452097 0.9350238012868449 1.9158481734673267 5.326015182079379 1.3586844335468042 4.528618188670841 4.834701064313808 15.218287589122175" Properties=species:S:1:pos:R:3:forces:R:3 unique_starting_index=222 config_type=initial n_minim_iter=12 energy=-3253.4564995996216 stress="0.0026202390450143823 0.0004776990972908633 0.001995639386230401 0.0004776990972908633 0.002086526432998757 0.0006394890229018435 0.001995639386230401 0.0006394890229018435 0.0026255256141558677" free_energy=-3253.4564995996216 pbc="T T T"
Si       8.22162584       8.05490757       9.95867871       0.01883609      -0.03678541      -0.53694354
Si       4.09012520       3.29428937       7.55331711      -0.01883609       0.03678541       0.53694354