20
Lattice="2.488616338985941 0.2560934266859016 -0.1434832520054887 1.7394837110824724 8.531632949411884 1.6293874628023637 0.2667928536615175 6.94375375766366 17.11461054461654" Properties=species:S:1:pos:R:3:forces:R:3 unique_starting_index=238 config_type=initial n_minim_iter=1 energy=-3256.3782569589466 stress="9.888735736123426e-05 -1.0806690178931765e-05 -1.806059129663077e-05 -1.0806690178931765e-05 0.00010249083039160352 -0.00010166707841939893 -1.806059129663077e-05 -0.00010166707841939893 -2.2165322972366874e-05" free_energy=-3256.3782569589466 pbc="T T T"
Si       3.93941553      11.28148172       9.65276377       0.01824770       0.02531916       0.02951487
Si       4.16834718      13.28479787      17.14443542       0.03471708      -0.04781877       0.01988695
Si       3.87379845      15.69572333      15.86549823      -0.03073168      -0.01048461      -0.04551280
Si       1.61294753       5.72783661       2.66490556      -0.03267589       0.03165045       0.00193426
Si       1.60482406       8.80604759       8.23159887      -0.01208956       0.00679714       0.00078756
Si       1.70383967       6.89143409       6.76431934       0.00006995       0.00000384      -0.05066175
Si       3.79191810      11.38839030       7.16370252       0.00149823       0.00673771       0.01461316
Si      -0.43856347       1.45912345       3.52728890       0.00217924      -0.01574959       0.05192556
Si       1.77598643       5.19971724       5.01932145       0.03032023      -0.07210526      -0.06125999
Si       4.26827353      11.12940894      14.62776401      -0.01389626       0.00126920      -0.02134073
Si       4.00857106      13.57407693      14.57863766      -0.00304494       0.01986122      -0.06195792
Si       1.79243789       8.41709420      10.62246775      -0.01553377       0.00858847       0.03705172
Si       1.42220735       8.00675600       3.76195034       0.02388773       0.00616500       0.03175558
Si       2.25570139       7.19994920      16.70750325       0.00732801      -0.05297581       0.03841182
Si       2.01916983       9.59188732      16.76395513      -0.00133692       0.02742779       0.04592413
Si       1.97571952       5.18784189       8.43620111       0.01982171      -0.02789359      -0.02471521
Si       4.33095349       9.44658118      12.80561415       0.01225327      -0.02995528      -0.04645546
Si       1.55491314      11.62821349      12.24709312      -0.01903331       0.04522138       0.00110067
Si       2.04014564       6.02813663      10.69796183      -0.01898626       0.06175328       0.02335951
Si       1.79033620       3.47695374       1.85242376      -0.00299457       0.01618828       0.01563806
20
Lattice="2.486064118853027 0.25594896863278643 -0.1427794352480869 1.7389612760421111 8.52447732284174 1.6390929086162613 0.27050754003842425 6.954462235662342 17.125937619785585" Properties=species:S:1:pos:R:3:forces:R:3 unique_starting_index=238 config_type=initial n_minim_iter=2 energy=-3256.379199151497 stress="-0.002039395561769084 -4.467920526476268e-05 0.00012050899210308844 -4.467920526476268e-05 -0.0012818941281368674 0.0004677219624091146 0.00012050899210308844 0.0004677219624091146 -0.0006068723010738245" free_energy=-3256.379199151497 pbc="T T T"
Si       3.93902881      11.28092230       9.66857557       0.01849525       0.01309429       0.02076843
Si       4.16987840      13.28771486      17.16382419       0.03308294      -0.04971767       0.00627156
Si       3.87358172      15.69587891      15.88499998      -0.02450002      -0.03089772      -0.01935770
Si       1.61139590       5.72574645       2.67192989      -0.03066858       0.03280192      -0.00009510
Si       1.60532439       8.80576834       8.24311744      -0.00939241      -0.01191034      -0.00325317
Si       1.70413464       6.89143541       6.77185961      -0.00118109       0.00836512      -0.07017175
Si       3.79069536      11.38448276       7.17855003       0.00504598      -0.01948182       0.01376575
Si      -0.43721867       1.46074635       3.53121272       0.00506722      -0.02974518       0.06748865
Si       1.77665167       5.19739116       5.02434774       0.02501139      -0.03255124      -0.04198424
Si       4.26744291      11.13353174      14.64300529      -0.01294772      -0.00729490      -0.02912715
Si       4.00861684      13.57610945      14.59510652      -0.00368272       0.02708954      -0.04419643
Si       1.79304111       8.41983069      10.63531712      -0.01734157       0.02996487       0.03138221
Si       1.42311117       8.00257037       3.77254567       0.02147532       0.01110817       0.04623353
Si       2.25756028       7.20849610      16.72060064       0.00647546      -0.05046652       0.01872732
Si       2.02127530       9.60048051      16.77978712      -0.00084306       0.02223427       0.05227814
Si       1.97648581       5.19056326       8.44320549       0.01842040      -0.00658919       0.00078560
Si       4.33035908       9.44958385      12.81787053       0.00832597      -0.00604317      -0.04189404
Si       1.55631374      11.63038724      12.26251834      -0.01817787       0.04415975       0.00092775
Si       2.04013111       6.03520997      10.70791999      -0.01691966       0.03332694      -0.00637998
Si       1.78914123       3.47592810       1.85735442      -0.00574523       0.02255287      -0.00216938
20
Lattice="2.4886292825727296 0.2563731050268956 -0.14233374683103098 1.742925544217523 8.526489765610343 1.6500633893890948 0.2747386544816646 6.9722675945094705 17.152646006522065" Properties=species:S:1:pos:R:3:forces:R:3 unique_starting_index=238 config_type=initial n_minim_iter=3 energy=-3256.380660963225 stress="0.0003389566217759404 0.00014460333824887402 0.00014283129107701777 0.00014460333824887402 -0.00011666635805311736 0.001062444400912546 0.00014283129107701777 0.001062444400912546 0.0013274670980604393" free_energy=-3256.380660963225 pbc="T T T"
Si       3.94794099      11.29307253       9.69337270       0.01777452      -0.00026178       0.01286788
Si       4.18138567      13.30384008      17.19870547       0.02796661      -0.04254693      -0.01071767
Si       3.88171148      15.71248509      15.91756347      -0.01611717      -0.05229046       0.01139553
Si       1.61299080       5.73052517       2.68124048      -0.02601951       0.02767895      -0.00777314
Si       1.60948906       8.81490716       8.26188265      -0.00519431      -0.03279486      -0.00007462
Si       1.70838670       6.89882604       6.78416862      -0.00048176       0.00716599      -0.07534490
Si       3.79825904      11.39296010       7.19984191       0.00889504      -0.04446516       0.01737344
Si      -0.43671271       1.46341589       3.53951149       0.00590775      -0.02916418       0.06103776
Si       1.78194118       5.19928115       5.03250000       0.01758105       0.01317681      -0.02066771
Si       4.27562396      11.14966305      14.67062409      -0.01070333      -0.02087355      -0.03190578
Si       4.01766573      13.59315136      14.62311206      -0.00385330       0.02704231      -0.02150199
Si       1.79743440       8.43176318      10.65835130      -0.01846445       0.05062772       0.01690440
Si       1.42819083       8.00708757       3.78710409       0.01621938       0.02072116       0.05274062
Si       2.26420020       7.22352986      16.74935364       0.00418309      -0.03012646      -0.00296458
Si       2.02778200       9.61974695      16.81157686      -0.00015429       0.00750873       0.04568539
Si       1.98190231       5.19834422       8.45723789       0.01592046       0.02181384       0.03441330
Si       4.33933815       9.46231163      12.84037933       0.00287185       0.02392643      -0.02724868
Si       1.56125653      11.64578084      12.28881397      -0.01564691       0.03409752       0.00039206
Si       2.04406514       6.04993611      10.72776849      -0.01482626       0.00289249      -0.05004889
Si       1.79184792       3.47912457       1.86409196      -0.00585848       0.01587143      -0.00456244
20
Lattice="2.489730406452782 0.2564692447666544 -0.14283276506633547 1.742885492525146 8.526542945339223 1.6360647083074613 0.27145977068443866 6.95243115801147 17.113193982556133" Properties=species:S:1:pos:R:3:forces:R:3 unique_starting_index=238 config_type=initial n_minim_iter=4 energy=-3256.3824963057027 stress="0.0008045142966586556 0.00019477657141498043 1.7017169414689254e-05 0.00019477657141498043 -0.0008142589787954817 0.00013921109391981025 1.7017169414689254e-05 0.00013921109391981025 -0.000722490119779173" free_energy=-3256.3824963057027 pbc="T T T"
Si       3.94864528      11.28517990       9.66315488       0.01573124      -0.01699541      -0.00323072
Si       4.18192198      13.28189319      17.15167794       0.02082601      -0.03308180      -0.03047268
Si       3.87757541      15.69510783      15.86587046      -0.01190463      -0.03534996       0.02477556
Si       1.61054186       5.73084900       2.66901273      -0.02097514       0.03023891      -0.01810224
Si       1.60740096       8.80681465       8.23577465      -0.00365535      -0.02833949      -0.00262767
Si       1.70753412       6.89206088       6.75906654       0.00352707      -0.00885141      -0.05616852
Si       3.79816586      11.38662874       7.17305817       0.01043267      -0.04291828       0.03744473
Si      -0.43740523       1.45804058       3.53538134       0.00284971      -0.00582107       0.02023570
Si       1.78364166       5.18970835       5.01254227       0.01348811       0.01658408       0.00292671
Si       4.27328306      11.13370200      14.62795804      -0.00713523      -0.02011397      -0.00243921
Si       4.01583218      13.57956413      14.57501203      -0.00251086       0.00476168      -0.00066921
Si       1.79468976       8.42146201      10.63093399      -0.01784008       0.04240975      -0.02674610
Si       1.42936254       8.00491295       3.77256067       0.01302433       0.00960154       0.05759814
Si       2.26235970       7.20044035      16.71237903       0.00165532       0.00620473      -0.01910473
Si       2.02508452       9.60277697      16.77249755      -0.00032726      -0.03283260      -0.02950306
Si       1.98241016       5.18733528       8.43398971       0.00822808       0.05648460       0.01854691
Si       4.33925112       9.44663660      12.80153038       0.00030721       0.03245701       0.02111177
Si       1.55773226      11.63646842      12.25200426      -0.01169925       0.02504621       0.01535303
Si       2.04137908       6.04182379      10.70167427      -0.01318122      -0.00210093      -0.07028498
Si       1.79184508       3.47879534       1.85698309      -0.00084073       0.00261641       0.06135654
20
Lattice="2.4880879405728766 0.2562577552492548 -0.14307781873473355 1.7401379283414447 8.532056740575714 1.63352151637041 0.26924720411637354 6.951655385353705 17.115952686385757" Properties=species:S:1:pos:R:3:forces:R:3 unique_starting_index=238 config_type=initial n_minim_iter=5 energy=-3256.3828357236293 stress="-0.00015601973276004098 -3.664770200761432e-05 7.879847902631596e-05 -3.664770200761432e-05 0.00021420235351972774 -7.470432652909527e-05 7.879847902631596e-05 -7.470432652909527e-05 2.70200556325395e-05" free_energy=-3256.3828357236293 pbc="T T T"
Si       3.94390289      11.28982631       9.66234709       0.01522583      -0.01784737      -0.00555305
Si       4.17655447      13.28441126      17.15220764       0.01938942      -0.03134231      -0.03286237
Si       3.87108385      15.70035884      15.86460245      -0.01192295      -0.02737875       0.02394697
Si       1.60785365       5.73443517       2.66772191      -0.01989426       0.02972813      -0.01969974
Si       1.60422979       8.81021713       8.23513839      -0.00342753      -0.02661278      -0.00011170
Si       1.70488409       6.89456713       6.75775674       0.00483854      -0.01466125      -0.04818267
Si       3.79338657      11.39187568       7.17140789       0.01007998      -0.03933586       0.04013421
Si      -0.43750390       1.45772806       3.53674941       0.00133188       0.00593418       0.00788667
Si       1.78174781       5.19075458       5.01142799       0.01330756       0.01013989       0.00466819
Si       4.26764388      11.13612418      14.62801428      -0.00610940      -0.02179677       0.00309158
Si       4.01006848      13.58425909      14.57376107      -0.00196575      -0.00238873       0.00402686
Si       1.79125830       8.42406879      10.63154802      -0.01752019       0.03805259      -0.03615482
Si       1.42716150       8.00948412       3.77148626       0.01201091       0.00986673       0.05236303
Si       2.25893751       7.19895976      16.71523544       0.00129008       0.01571501      -0.01970112
Si       2.02125948       9.60404137      16.77470149       0.00003176      -0.04116612      -0.04082693
Si       1.98009363       5.18779769       8.43447169       0.00673284       0.06079361       0.01300495
Si       4.33431195       9.44826427      12.80139038      -0.00012875       0.03300914       0.03213878
Si       1.55377487      11.64132632      12.25166156      -0.01098608       0.02272277       0.01753593
Si       2.03819748       6.04299535      10.70272908      -0.01331368       0.00274805      -0.07183099
Si       1.78992594       3.48066648       1.85659118       0.00102979      -0.00618017       0.07612620
20
Lattice="2.4878839374766804 0.2556202271860834 -0.1484633445448679 1.7351067011394548 8.522420231374818 1.6305977106419103 0.23220345299990325 6.942515363625415 17.130756208545353" Properties=species:S:1:pos:R:3:forces:R:3 unique_starting_index=238 config_type=initial n_minim_iter=6 energy=-3256.3851619013 stress="-3.5544723073549567e-05 -0.00015703856504307035 -0.0008369312669566126 -0.00015703856504307035 -0.00037870376835015437 -0.00036139254974467555 -0.0008369312669566126 -0.00036139254974467555 0.000559783706056826" free_energy=-3256.3851619013 pbc="T T T"
Si       3.92401445      11.27639854       9.66384134       0.00986825      -0.01524878       0.00264438
Si       4.14226861      13.26117258      17.15670651       0.00606707      -0.02874915      -0.04938159
Si       3.83126892      15.67752917      15.86880691      -0.00595645      -0.01160522       0.03755606
Si       1.59671597       5.73292684       2.66468399      -0.00837778       0.03296441      -0.01853023
Si       1.58408582       8.79748559       8.23864261      -0.00069955      -0.04759815      -0.01655976
Si       1.68975603       6.88512418       6.75105045       0.00518574      -0.00122108      -0.03143731
Si       3.77698872      11.37485141       7.17378143       0.00645063      -0.03880776       0.03391022
Si      -0.44471754       1.45477331       3.54613297       0.00377466       0.01315621       0.02273369
Si       1.77365123       5.18034843       5.00764776       0.00406998       0.02151890       0.00322910
Si       4.23279415      11.12009194      14.63001226       0.00091582      -0.01993665       0.01884243
Si       3.97624283      13.56923763      14.57330770      -0.00541477      -0.00692271      -0.00180577
Si       1.76448414       8.41824622      10.63678207      -0.01407697       0.05216213      -0.02814163
Si       1.42071765       8.00177313       3.77878741       0.00771190       0.00812637       0.02675121
Si       2.22301455       7.18637426      16.72646942       0.00838125       0.00548828      -0.01344776
Si       1.98410643       9.59038557      16.78564264       0.00269256      -0.01498264       0.01043978
Si       1.96343262       5.18458356       8.43750807      -0.00238259       0.05998439      -0.01224603
Si       4.30610726       9.43718373      12.80239584      -0.00771650       0.02165162       0.04247197
Si       1.52350109      11.63301501      12.26037591      -0.00677417       0.01336985       0.00856389
Si       2.01175881       6.03978732      10.70281545      -0.00693121      -0.01088483      -0.04118257
Si       1.78493705       3.47741503       1.86174413       0.00321211      -0.03246518       0.00558990
20
Lattice="2.4875542551451133 0.2570593535508566 -0.1446075253036435 1.7418859808441238 8.534590195120094 1.6445396134972285 0.2582813812388528 6.9778702322526005 17.117209546680105" Properties=species:S:1:pos:R:3:forces:R:3 unique_starting_index=238 config_type=initial n_minim_iter=7 energy=-3256.388105681491 stress="5.284143820993274e-06 3.181910823595941e-05 -0.00027514065511040174 3.181910823595941e-05 0.0007077385205183868 0.0002281132549172406 -0.00027514065511040174 0.0002281132549172406 -0.0005512603121844209" free_energy=-3256.388105681491 pbc="T T T"
Si       3.94753854      11.30600721       9.67639182       0.00268185       0.00455650       0.02607929
Si       4.17937617      13.29315155      17.15507334      -0.01010576      -0.02790068      -0.08058564
Si       3.85433264      15.71477109      15.87516297       0.01046144       0.00521977       0.03122786
Si       1.59560704       5.75342501       2.66918734       0.00696018       0.02266463      -0.04151126
Si       1.59746346       8.81609001       8.24273706       0.00828333      -0.08616418      -0.08871258
Si       1.70300924       6.90216368       6.73897500       0.00479276       0.05105248      -0.00458595
Si       3.79430538      11.39350124       7.19552831       0.00595759      -0.00459354       0.00944142
Si      -0.43856818       1.46014206       3.55220247       0.01110307      -0.01069844       0.04312133
Si       1.78899807       5.18828050       5.00393863      -0.00731666       0.00864166       0.04574289
Si       4.25473984      11.15395870      14.62968502       0.00103057       0.01484433       0.01333067
Si       4.00152957      13.61175370      14.57182685      -0.00747051      -0.03355447       0.00693240
Si       1.77770670       8.45397662      10.63646745      -0.00178530       0.02858046       0.01244195
Si       1.43520551       8.01956969       3.80167338      -0.01095056       0.00466849       0.01679393
Si       2.24981173       7.21755885      16.71793631       0.00758341       0.02255346      -0.00301143
Si       2.01092481       9.62609470      16.78009329       0.00676904      -0.01870911       0.10514903
Si       1.98080903       5.21190162       8.43562890      -0.00789168       0.00715763      -0.06276889
Si       4.32896283       9.47230744      12.80374376      -0.01595701       0.01221376       0.06321759
Si       1.54140826      11.67564641      12.26637576       0.00058619      -0.00038819       0.00215334
Si       2.02410564       6.07230553      10.69008066      -0.00127455       0.02277779       0.00349866
Si       1.78879696       3.48605620       1.87997943      -0.00345739      -0.02292235      -0.09795460
20
Lattice="2.4875951921031847 0.2568151617157377 -0.14191137710962703 1.7442035210902125 8.521459418586238 1.6447057571710038 0.2789779229847023 6.960060441582464 17.134535203624512" Properties=species:S:1:pos:R:3:forces:R:3 unique_starting_index=238 config_type=initial n_minim_iter=8 energy=-3256.388885930732 stress="5.165037386983789e-05 7.643751922960236e-05 0.00030322858791934266 7.643751922960236e-05 -0.00020634520878375754 -0.0003348084272739288 0.00030322858791934266 -0.0003348084272739288 0.0002403923753730385" free_energy=-3256.388885930732 pbc="T T T"
Si       3.96095423      11.28530874       9.68833530       0.00156917       0.00198972       0.02626850
Si       4.20234522      13.26314024      17.17260926      -0.01298868      -0.02711473      -0.07946084
Si       3.87275284      15.68325722      15.89155074       0.01521243       0.01854499       0.04064178
Si       1.59733408       5.74635197       2.67048652       0.01042971       0.02425322      -0.03149777
Si       1.60726679       8.79762356       8.24948820       0.01188538      -0.08414717      -0.07126581
Si       1.71162346       6.88912263       6.74203555       0.00753892       0.04161996       0.00024034
Si       3.80405807      11.37203650       7.20559904       0.00962822      -0.00890981       0.01236020
Si      -0.43404543       1.45594166       3.55781234       0.00948038       0.01129729       0.04836415
Si       1.79662576       5.17723131       5.00845130      -0.01342804       0.01601999       0.01762825
Si       4.27223613      11.13045518      14.64652578       0.00306232       0.00098968       0.03853148
Si       4.01937312      13.58581151      14.58601563      -0.00916790      -0.02530393      -0.00727187
Si       1.78955192       8.43937626      10.64711193      -0.00347326       0.05052021       0.01000290
Si       1.44119564       8.00693372       3.80764233      -0.01711809       0.00063018      -0.00713795
Si       2.27058193       7.19877142      16.73728210       0.00875319      -0.00124697       0.00446065
Si       2.03146041       9.60370740      16.79896311       0.00152765       0.01198339       0.10374760
Si       1.99200264       5.20250708       8.44497910      -0.01017702       0.01888749      -0.07254337
Si       4.34505714       9.45362795      12.82022379      -0.01668328      -0.00270576       0.05942004
Si       1.55547672      11.65551192      12.27813223       0.00202368      -0.00321380      -0.00662898
Si       2.03610103       6.06063778      10.69994230       0.00527906       0.00175768       0.02560163
Si       1.79118024       3.48018691       1.88502390      -0.00335384      -0.04585163      -0.11146093
20
Lattice="2.487065165825255 0.2508446409912356 -0.14325176268758727 1.726640470501014 8.500574089311318 1.6794692616309852 0.25091471485210004 7.008509465612867 17.184076375057273" Properties=species:S:1:pos:R:3:forces:R:3 unique_starting_index=238 config_type=initial n_minim_iter=9 energy=-3256.3948670978743 stress="-3.743194385994324e-05 -0.0008407295284827332 -0.00010294183592304541 -0.0008407295284827332 -0.0011253363877783424 0.0004650338240397404 -0.00010294183592304541 0.0004650338240397404 0.00047390244617279847" free_energy=-3256.3948670978743 pbc="T T T"
Si       3.93714354      11.28453182       9.74881207      -0.00965218       0.00339770       0.03216267
Si       4.16967002      13.26926546      17.22903571      -0.03282891      -0.04482095      -0.06474120
Si       3.82410600      15.68843335      15.97587293       0.03684226      -0.02174497       0.03432211
Si       1.57641195       5.75165419       2.68722446       0.03039486      -0.02442667      -0.04466412
Si       1.58238880       8.78609815       8.28371055       0.01889362      -0.07594385      -0.05510704
Si       1.69443720       6.89647417       6.75801047       0.00525106       0.06127733      -0.06645850
Si       3.77962755      11.35190668       7.26896127       0.01173764       0.00451736      -0.00597728
Si      -0.43778639       1.46545964       3.58493648       0.01364974      -0.01288766       0.07267160
Si       1.78795033       5.17481003       5.03030242      -0.03198814       0.04552258      -0.00142737
Si       4.23532293      11.14553451      14.70683176       0.00638574      -0.01757734       0.05489024
Si       3.97879779      13.59750720      14.64765219      -0.00971651       0.01722902      -0.00706979
Si       1.75783449       8.47074944      10.69238054      -0.00016981       0.07245821       0.07820858
Si       1.42685219       8.00045133       3.85989460      -0.02249405       0.00915054      -0.00174283
Si       2.24478357       7.23754213      16.78635918       0.01072905      -0.03859516       0.02053103
Si       1.99894113       9.63584739      16.86982605      -0.00665429       0.03356909       0.06611190
Si       1.97774254       5.22929934       8.46670336      -0.00615447      -0.04203497      -0.02704397
Si       4.31520786       9.47411633      12.87832477      -0.03136588      -0.00411912       0.01533537
Si       1.51785108      11.67975690      12.34250699       0.00797438      -0.00126086      -0.03297454
Si       2.01010101       6.09157581      10.72532440       0.02073241      -0.00069474       0.02755515
Si       1.78212041       3.47097296       1.90259749      -0.01156653       0.03698447      -0.09458202
20
Lattice="2.4848863358406343 0.25758240954053174 -0.144761312586443 1.7498955733556885 8.496155130552848 1.7178491794786044 0.2554930768947095 7.07200110996639 17.234847656401847" Properties=species:S:1:pos:R:3:forces:R:3 unique_starting_index=238 config_type=initial n_minim_iter=10 energy=-3256.401124493641 stress="-0.0004542565093497724 0.00028197101146165156 -0.0003637318075257939 0.00028197101146165156 -0.0011659784970877054 0.0006456033686364027 -0.0003637318075257939 0.0006456033686364027 0.0007664268385351023" free_energy=-3256.401124493641 pbc="T T T"
Si       3.96847224      11.31838090       9.81814831      -0.02598370       0.00406816       0.02290822
Si       4.20186855      13.30281520      17.28010727      -0.05534874      -0.05548811      -0.02674341
Si       3.84459580      15.72838135      16.06649221       0.05879048      -0.05802672       0.02126156
Si       1.57726968       5.77927563       2.70075572       0.05834161      -0.07857275      -0.07213023
Si       1.59815679       8.78335761       8.31423700       0.03354553      -0.05273768       0.00245536
Si       1.71036286       6.92350991       6.76197421      -0.00342131       0.06819555      -0.14838255
Si       3.80942085      11.35860348       7.34370851       0.00207984       0.03893805      -0.01080777
Si      -0.43270566       1.47421002       3.62472159       0.01749229      -0.01599823       0.06302460
Si       1.80647964       5.18344891       5.04918136      -0.05245753       0.07271119      -0.02269608
Si       4.24555231      11.19534782      14.77061191       0.02478382      -0.03696861       0.09698069
Si       3.99887845      13.64794990      14.70656618      -0.02381891       0.05713238       0.00335975
Si       1.76110014       8.53348169      10.74270132       0.02286211       0.08590942       0.13523383
Si       1.45375343       8.01227441       3.92642125      -0.03638951      -0.00182606      -0.00592058
Si       2.25230578       7.29688718      16.83872158       0.01053686      -0.06357269       0.03640368
Si       2.01030992       9.69284744      16.95204363      -0.00434989       0.03324469      -0.04335489
Si       1.98890610       5.27896541       8.48407386      -0.01658615      -0.10699654       0.02339386
Si       4.32596082       9.53156007      12.94169707      -0.04227199      -0.00856194      -0.01548243
Si       1.53240705      11.73507274      12.41237874       0.01762773      -0.01017810      -0.06537851
Si       2.00770482       6.15016430      10.74680005       0.01984922       0.00624862       0.02291716
Si       1.78750957       3.47425180       1.92324785      -0.00528175       0.12247937      -0.01704225
20
Lattice="2.485374078166009 0.2540993853370546 -0.14106170780535143 1.740834060447931 8.503629829823932 1.7332026567725043 0.26607159871430164 7.110529368133186 17.213455313947836" Properties=species:S:1:pos:R:3:forces:R:3 unique_starting_index=238 config_type=initial n_minim_iter=11 energy=-3256.405521491357 stress="0.0003595564421869204 -0.00048241717704790575 0.00022172611682053542 -0.00048241717704790575 0.0006928960521976537 -0.00027989430460234274 0.00022172611682053542 -0.00027989430460234274 -0.0003452477117736569" free_energy=-3256.405521491357 pbc="T T T"
Si       3.97311719      11.34242460       9.83502665      -0.03769717      -0.01437659       0.00473490
Si       4.21401143      13.31613819      17.25768274      -0.07636368      -0.04619652       0.00184577
Si       3.83782032      15.75659365      16.07196116       0.07863731      -0.04688623      -0.00625683
Si       1.56448619       5.80183676       2.69622598       0.07339045      -0.09393181      -0.08629789
Si       1.59569160       8.78303701       8.30354440       0.04018724       0.00495600       0.05168656
Si       1.71145591       6.94560797       6.73464054      -0.00021182       0.04428773      -0.16715588
Si       3.80809424      11.36766132       7.36957502       0.00404806       0.08754696       0.01201082
Si      -0.42752017       1.48021905       3.64362074       0.00988909       0.01150387      -0.02284375
Si       1.81220855       5.18732625       5.04276637      -0.06335408       0.04306737      -0.01956527
Si       4.24574901      11.22137715      14.77039521       0.02239804      -0.01805579       0.11087606
Si       3.99557773      13.68316986      14.69519546      -0.01594931       0.03827952       0.02195400
Si       1.75511885       8.58014535      10.74591622       0.03074492       0.04034061       0.11669746
Si       1.45255878       8.02869906       3.95644476      -0.04096677      -0.02906847      -0.00282845
Si       2.26659324       7.32303733      16.82550894      -0.00152218      -0.02210889       0.04163886
Si       2.01775065       9.72826346      16.95491720      -0.00840434      -0.04295348      -0.16591951
Si       1.99642737       5.30422342       8.46808905      -0.02131942      -0.11390974       0.01618386
Si       4.32819164       9.56048153      12.94505022      -0.04836953      -0.01450669       0.02703336
Si       1.52530242      11.78091898      12.41352085       0.02830322      -0.02074341      -0.05563353
Si       2.00646573       6.18780005      10.72955609       0.02695741       0.05836954      -0.00136538
Si       1.78438563       3.47907592       1.93128570      -0.00039746       0.13438603       0.12320482
20
Lattice="2.4843914229335806 0.26453496879500016 -0.14172775742065957 1.773434273034647 8.525419804574899 1.736490071710964 0.28634378789473813 7.1366266098283715 17.187893143021846" Properties=species:S:1:pos:R:3:forces:R:3 unique_starting_index=238 config_type=initial n_minim_iter=12 energy=-3256.41548789059 stress="0.0001980470462573251 0.0012993295795256158 0.0002279748205923353 0.0012993295795256158 0.001775900135017563 -0.0010379400320159372 0.0002279748205923353 -0.0010379400320159372 -0.0014880843852647587" free_energy=-3256.41548789059 pbc="T T T"