14
Lattice="4.4203836495757916 -0.9700818625024196 3.6234691129743406e-14 -0.9619691486895681 4.3322286813907835 -1.669329709368297e-14 -1.4261775486052877e-13 3.944150263879013e-14 18.45432256259879" Properties=species:S:1:pos:R:3:forces:R:3 unique_starting_index=0 config_type=initial n_minim_iter=12 energy=-2275.3282868758397 stress="0.00014084089723465722 -8.083280331403416e-06 -4.083531187594024e-12 -8.083280331403416e-06 4.928830441205199e-05 1.8967974632897426e-11 -4.083531187594024e-12 1.8967974632897426e-11 -1.4202889499287129e-05" free_energy=-2275.3282868758397 pbc="T T T"
Si       0.71331746       1.25182727      13.84116602       0.00441119       0.00084156       0.00643840
Si       1.01588979       0.42924614       4.61400474      -0.00441119      -0.00084156       0.00643840
Si       2.74509704       2.11031955       4.61315654      -0.00441119      -0.00084156      -0.00643840
Si       2.44252471       2.93290068      13.84031782       0.00441119       0.00084156      -0.00643840
Si       3.40564839      -0.26746401       6.27814542       0.00231954       0.00226068       0.00171490
Si       2.74394251       0.97845556      15.50530670      -0.00231954      -0.00226068       0.00171490
Si       0.05276611       3.62961083      12.17617714      -0.00231954      -0.00226068      -0.00171490
Si       0.71447199       2.38369126       2.94901586       0.00231954       0.00226068      -0.00171490
Si       1.63981069       1.54106535       6.90943866      -0.00422562       0.00253108      -0.00281433
Si       0.08939656       0.14000806      16.13659994       0.00422562      -0.00253108      -0.00281433
Si       1.81860381       1.82108147      11.54488390       0.00422562      -0.00253108       0.00281433
Si       3.36901794       3.22213876       2.31772262      -0.00422562       0.00253108       0.00281433
Si       2.21019182      -0.48504093       0.00000000      -0.00000000      -0.00000000      -0.00000000
Si      -0.48098457       2.16611434       9.22716128       0.00000000       0.00000000       0.00000000
