10
Lattice="4.962189999999922 8.870492428227949e-07 0.0 -2.481095831380239 4.6507750741183695 0.0 0.0 0.0 8.930650000000002" Properties=species:S:1:pos:R:3:forces:R:3 unique_starting_index=466 config_type=initial n_minim_iter=1 energy=-1594.77897993964 stress="-0.18682204992766047 -0.12510874687664328 -0.7676095956447918 -1.5873248439440266e-13 -8.320999300550654e-12 -1.1028698878914318e-08" pbc="T T T"
Si       3.40965459       2.13455170       0.71150935     -10.83601030      -5.69705985      25.05466383
Si       1.55253457       2.51622471       5.17683435      10.83601030       5.69705985      25.05466383
Si       3.40965452       2.51622504       3.75381565     -10.83601234       5.69705598     -25.05466383
Si       1.55253464       2.13455137       8.21914065      10.83601234      -5.69705598     -25.05466383
Si      -0.92856043       2.51622427       8.21914065      10.83601030       5.69705985     -25.05466383
Si       0.92855959       2.13455126       3.75381565     -10.83601030      -5.69705985     -25.05466383
Si      -0.92856036       2.13455092       5.17683435      10.83601234      -5.69705598      25.05466383
Si       0.92855952       2.51622460       0.71150935     -10.83601234       5.69705598      25.05466383
Si       2.48109500       0.00000045       0.00000000       0.00000000       0.00000000      -0.00000000
Si      -2.48109583       4.65077508       4.46532500      -0.00000000       0.00000000      -0.00000000
10
Lattice="4.981333429286077 8.904713537197438e-07 0.0 -2.4906675481698084 4.662782636829605 0.0 0.0 0.0 9.073061553382484" Properties=species:S:1:pos:R:3:forces:R:3 unique_starting_index=466 config_type=initial n_minim_iter=2 energy=-1597.9490601962077 stress="-0.1737884319899572 -0.10708426298479712 -0.6730391870103402 -1.4711296657721265e-13 -7.736532255176874e-13 -1.1925861994430142e-08" pbc="T T T"
Si       3.42172078       2.13949160       0.72540077      -9.48416312      -4.95362960      22.40227450
Si       1.55961181       2.52329238       5.26193155       9.48416312       4.95362960      22.40227450
Si       3.42172071       2.52329271       3.81113001      -9.48416489       4.95362621     -22.40227450
Si       1.55961188       2.13949126       8.34766078       9.48416489      -4.95362621     -22.40227450
Si      -0.93105490       2.52329194       8.34766078       9.48416312       4.95362960     -22.40227450
Si       0.93105406       2.13949115       3.81113001      -9.48416312      -4.95362960     -22.40227450
Si      -0.93105483       2.13949082       5.26193155       9.48416489      -4.95362621      22.40227450
Si       0.93105399       2.52329227       0.72540077      -9.48416489       4.95362621      22.40227450
Si       2.49066671       0.00000045       0.00000000      -0.00000000      -0.00000000       0.00000000
Si      -2.49066755       4.66278264       4.53653078       0.00000000       0.00000000       0.00000000
10
Lattice="5.1633536213866575 9.230095824836662e-07 0.0 -2.581677662857813 4.76704276148205 0.0 0.0 0.0 10.425947583486918" Properties=species:S:1:pos:R:3:forces:R:3 unique_starting_index=466 config_type=initial n_minim_iter=3 energy=-1615.2479737302403 stress="0.013558679861420864 0.0629323318441219 -0.23221213487878886 -8.929259213562782e-13 3.0253986069868e-12 -8.816054183894729e-09" pbc="T T T"
Si       3.53704420       2.18234241       0.85960221      -3.39532501      -1.50855071       8.71637867
Si       1.62630857       2.58470175       6.07257600       3.39532501       1.50855071       8.71637867
Si       3.53704413       2.58470209       4.35337158      -3.39532555       1.50854949      -8.71637867
Si       1.62630864       2.18234206       9.56634538       3.39532555      -1.50854949      -8.71637867
Si      -0.95536825       2.58470128       9.56634538       3.39532501       1.50855071      -8.71637867
Si       0.95536739       2.18234194       4.35337158      -3.39532501      -1.50855071      -8.71637867
Si      -0.95536817       2.18234160       6.07257600       3.39532555      -1.50854949       8.71637868
Si       0.95536731       2.58470163       0.85960221      -3.39532555       1.50854949       8.71637867
Si       2.58167681       0.00000046       0.00000000       0.00000000       0.00000000      -0.00000000
Si      -2.58167767       4.76704276       5.21297379       0.00000000      -0.00000000      -0.00000000
10
Lattice="5.137602164520456 9.184062097642483e-07 0.0 -2.5688019148765684 4.657689642536176 0.0 0.0 0.0 11.358053098626204" Properties=species:S:1:pos:R:3:forces:R:3 unique_starting_index=466 config_type=initial n_minim_iter=4 energy=-1620.019664138165 stress="0.02048767510223945 0.0326925023805848 -0.08528468165218005 2.014156193819267e-12 2.234427040998651e-12 -2.181207295227161e-09" pbc="T T T"
Si       3.51414757       2.13005558       0.95504925      -1.51111642      -0.18148846       4.31085882
Si       1.62345376       2.52763544       6.63407580       1.51111642       0.18148846       4.31085882
Si       3.51414750       2.52763578       4.72397730      -1.51111648       0.18148792      -4.31085882
Si       1.62345383       2.13005524      10.40300385       1.51111648      -0.18148792      -4.31085882
Si      -0.94534733       2.52763498      10.40300385       1.51111642       0.18148846      -4.31085882
Si       0.94534649       2.13005512       4.72397730      -1.51111642      -0.18148846      -4.31085882
Si      -0.94534725       2.13005478       6.63407580       1.51111648      -0.18148792       4.31085882
Si       0.94534641       2.52763532       0.95504925      -1.51111648       0.18148792       4.31085882
Si       2.56880108       0.00000046       0.00000000      -0.00000000       0.00000000       0.00000000
Si      -2.56880192       4.65768965       5.67902655       0.00000000       0.00000000      -0.00000000
10
Lattice="5.068043056469372 9.059717092336414e-07 0.0 -2.534022342935244 4.557468024336686 0.0 0.0 0.0 12.021204699977385" Properties=species:S:1:pos:R:3:forces:R:3 unique_starting_index=466 config_type=initial n_minim_iter=5 energy=-1621.4683829551132 stress="-0.008068694409525791 0.00903417837866055 -0.02660531266492129 3.12164770240168e-13 1.0105097783495077e-12 -3.05982257355061e-09" pbc="T T T"
Si       3.46265698       2.08378619       1.02887720      -0.41282280       0.34681507       2.34461777
Si       1.60538525       2.47368320       7.03947955       0.41282280      -0.34681507       2.34461777
Si       3.46265692       2.47368353       4.98172515      -0.41282267      -0.34681522      -2.34461777
Si       1.60538532       2.08378586      10.99232750       0.41282267       0.34681522      -2.34461777
Si      -0.92863628       2.47368275      10.99232750       0.41282280      -0.34681507      -2.34461777
Si       0.92863546       2.08378574       4.98172515      -0.41282280       0.34681507      -2.34461777
Si      -0.92863621       2.08378540       7.03947955       0.41282267       0.34681522       2.34461777
Si       0.92863539       2.47368308       1.02887720      -0.41282267      -0.34681522       2.34461777
Si       2.53402152       0.00000046       0.00000000      -0.00000000      -0.00000000      -0.00000000
Si      -2.53402235       4.55746803       6.01060235      -0.00000000      -0.00000000      -0.00000000
10
Lattice="5.108039727710742 9.131215799565862e-07 0.0 -2.5540206714167386 4.517531090633308 0.0 0.0 0.0 12.336871732216256" Properties=species:S:1:pos:R:3:forces:R:3 unique_starting_index=466 config_type=initial n_minim_iter=6 energy=-1621.8368771207536 stress="0.008364552071480638 0.010775492243527671 -0.0053090651792420855 -4.562134669971006e-13 -7.971507606028924e-13 -4.401891049059171e-10" pbc="T T T"
Si       3.48846116       2.06668439       1.07119213      -0.11657104       0.56215650       1.46580044
Si       1.61957776       2.45084808       7.23962800       0.11657104      -0.56215650       1.46580044
Si       3.48846109       2.45084841       5.09724373      -0.11657084      -0.56215654      -1.46580044
Si       1.61957782       2.06668405      11.26567960       0.11657084       0.56215654      -1.46580044
Si      -0.93444211       2.45084762      11.26567960       0.11657104      -0.56215650      -1.46580044
Si       0.93444129       2.06668393       5.09724373      -0.11657104       0.56215650      -1.46580044
Si      -0.93444204       2.06668360       7.23962800       0.11657084       0.56215654       1.46580044
Si       0.93444122       2.45084796       1.07119213      -0.11657084      -0.56215654       1.46580044
Si       2.55401986       0.00000046       0.00000000      -0.00000000      -0.00000000      -0.00000000
Si      -2.55402067       4.51753109       6.16843587       0.00000000       0.00000000      -0.00000000
10
Lattice="5.0568474838229 9.039703702196224e-07 0.0 -2.528424539061861 4.459291773343647 0.0 0.0 0.0 12.415995082445141" Properties=species:S:1:pos:R:3:forces:R:3 unique_starting_index=466 config_type=initial n_minim_iter=7 energy=-1621.990505173816 stress="-0.013407482563866275 0.0011666396541995141 0.00021752318030745878 3.3769662591859536e-13 8.474643247992367e-13 -2.6132678655620877e-09" pbc="T T T"
Si       3.45298290       2.04225566       1.08996998       0.11132055       0.45998745       1.19049343
Si       1.60386378       2.41703747       7.29796752      -0.11132055      -0.45998745       1.19049343
Si       3.45298283       2.41703780       5.11802756       0.11132071      -0.45998741      -1.19049343
Si       1.60386385       2.04225533      11.32602510      -0.11132071       0.45998741      -1.19049343
Si      -0.92455996       2.41703702      11.32602510      -0.11132055      -0.45998745      -1.19049343
Si       0.92455916       2.04225521       5.11802756       0.11132055       0.45998745      -1.19049343
Si      -0.92455990       2.04225488       7.29796752      -0.11132071       0.45998741       1.19049343
Si       0.92455909       2.41703735       1.08996998       0.11132071      -0.45998741       1.19049343
Si       2.52842374       0.00000045       0.00000000      -0.00000000       0.00000000       0.00000000
Si      -2.52842454       4.45929178       6.20799754       0.00000000       0.00000000       0.00000000
10
Lattice="5.109406206667829 9.133658538973108e-07 0.0 -2.554703899767436 4.455281460031833 0.0 0.0 0.0 12.413912409220014" Properties=species:S:1:pos:R:3:forces:R:3 unique_starting_index=466 config_type=initial n_minim_iter=8 energy=-1622.0667224962008 stress="0.005002143801033387 0.003171796514452417 0.005452810543261615 -5.044612725138101e-13 -3.0802513996818036e-12 3.327516377424802e-10" pbc="T T T"
Si       3.48919349       2.04158284       1.09612430       0.04677700       0.55263143       1.11090442
Si       1.62021191       2.41369999       7.30308051      -0.04677700      -0.55263144       1.11090442
Si       3.48919343       2.41370033       5.11083190       0.04677720      -0.55263142      -1.11090442
Si       1.62021198       2.04158251      11.31778811      -0.04677720       0.55263142      -1.11090442
Si      -0.93449119       2.41369954      11.31778811      -0.04677700      -0.55263143      -1.11090442
Si       0.93449039       2.04158239       5.11083190       0.04677700       0.55263143      -1.11090442
Si      -0.93449113       2.04158205       7.30308051      -0.04677720       0.55263142       1.11090442
Si       0.93449032       2.41369987       1.09612430       0.04677720      -0.55263142       1.11090442
Si       2.55470310       0.00000046       0.00000000      -0.00000000      -0.00000000       0.00000000
Si      -2.55470390       4.45528146       6.20695620       0.00000000       0.00000000       0.00000000
10
Lattice="5.095668549924174 9.10910087827134e-07 0.0 -2.5478350700371233 4.447682041925626 0.0 0.0 0.0 12.377532425977977" Properties=species:S:1:pos:R:3:forces:R:3 unique_starting_index=466 config_type=initial n_minim_iter=9 energy=-1622.1148880555932 stress="-0.0010632084239351205 0.0014252587616230999 0.006454713967353826 -1.7158632014198663e-14 -6.718201313530429e-12 -4.4252359102402293e-10" pbc="T T T"
Si       3.47990631       2.03906479       1.09698835       0.06667129       0.52056490       1.11823807
Si       1.61576144       2.40861862       7.28575457      -0.06667129      -0.52056490       1.11823807
Si       3.47990624       2.40861896       5.09177786       0.06667148      -0.52056488      -1.11823807
Si       1.61576151       2.03906446      11.28054407      -0.06667148       0.52056488      -1.11823807
Si      -0.93207283       2.40861817      11.28054407      -0.06667129      -0.52056490      -1.11823807
Si       0.93207203       2.03906433       5.09177786       0.06667129       0.52056490      -1.11823807
Si      -0.93207277       2.03906400       7.28575457      -0.06667148       0.52056488       1.11823807
Si       0.93207197       2.40861850       1.09698835       0.06667148      -0.52056488       1.11823807
Si       2.54783427       0.00000046       0.00000000       0.00000000       0.00000000      -0.00000000
Si      -2.54783507       4.44768204       6.18876621       0.00000000       0.00000000       0.00000000
10
Lattice="5.097892796048907 9.113076976684148e-07 0.0 -2.5489471926345 4.445080870357919 0.0 0.0 0.0 12.344782947404626" Properties=species:S:1:pos:R:3:forces:R:3 unique_starting_index=466 config_type=initial n_minim_iter=10 energy=-1622.15145336649 stress="-0.0010688770278677654 0.0011541661457548941 0.007097021193455031 5.001894631368548e-13 -2.6950798979485786e-12 -4.0018044937032814e-10" pbc="T T T"
Si       3.48152819       2.03856847       1.09722047       0.05501511       0.52347873       1.11995747
Si       1.61636380       2.40651377       7.26961195      -0.05501511      -0.52347873       1.11995747
Si       3.48152813       2.40651410       5.07517100       0.05501530      -0.52347871      -1.11995747
Si       1.61636387       2.03856814      11.24756247      -0.05501530       0.52347871      -1.11995747
Si      -0.93258260       2.40651331      11.24756247      -0.05501511      -0.52347873      -1.11995747
Si       0.93258180       2.03856802       5.07517100       0.05501511       0.52347873      -1.11995747
Si      -0.93258253       2.03856768       7.26961195      -0.05501530       0.52347871       1.11995747
Si       0.93258173       2.40651365       1.09722047       0.05501530      -0.52347871       1.11995747
Si       2.54894639       0.00000046       0.00000000       0.00000000      -0.00000000      -0.00000000
Si      -2.54894720       4.44508087       6.17239147      -0.00000000       0.00000000       0.00000000
10
Lattice="5.113158672993456 9.140366508828762e-07 0.0 -2.5565801285453866 4.430752359870699 0.0 0.0 0.0 12.102116630566963" Properties=species:S:1:pos:R:3:forces:R:3 unique_starting_index=466 config_type=initial n_minim_iter=11 energy=-1622.3777783261041 stress="-0.002418945254823812 -0.00014839917456987197 0.0007356124970660149 -2.870311836369415e-13 -1.1868953246924937e-11 -4.1257513470479793e-10" pbc="T T T"
Si       3.49253619       2.03676381       1.09663075      -0.03753120       0.53406104       0.95541899
Si       1.62062169       2.39398992       7.14768907       0.03753120      -0.53406104       0.95541899
Si       3.49253612       2.39399026       4.95442756      -0.03753101      -0.53406106      -0.95541899
Si       1.62062175       2.03676348      11.00548588       0.03753101       0.53406106      -0.95541899
Si      -0.93595765       2.39398947      11.00548588       0.03753120      -0.53406104      -0.95541900
Si       0.93595685       2.03676336       4.95442756      -0.03753120       0.53406104      -0.95541899
Si      -0.93595758       2.03676302       7.14768907       0.03753101       0.53406106       0.95541899
Si       0.93595679       2.39398980       1.09663075      -0.03753101      -0.53406106       0.95541899
Si       2.55657933       0.00000046       0.00000000      -0.00000000       0.00000000       0.00000000
Si      -2.55658013       4.43075236       6.05105832      -0.00000000      -0.00000000       0.00000000
10
Lattice="5.169782654401502 9.24158846848201e-07 0.0 -2.5848921197847394 4.433747012056091 0.0 0.0 0.0 12.061652076581638" Properties=species:S:1:pos:R:3:forces:R:3 unique_starting_index=466 config_type=initial n_minim_iter=12 energy=-1622.5616277823865 stress="0.014568527617012684 0.0032180019973521716 0.004618425171240992 1.1990394395920185e-12 -1.3108869280503665e-11 2.0321002487639065e-09" pbc="T T T"
Si       3.53054406       2.04619517       1.12200156      -0.10265017       0.59767886       0.47029700
Si       1.63923780       2.38755323       7.15282760       0.10265017      -0.59767887       0.47029700
Si       3.53054400       2.38755357       4.90882448      -0.10264995      -0.59767890      -0.47029700
Si       1.63923786       2.04619484      10.93965052       0.10264995       0.59767890      -0.47029700
Si      -0.94565353       2.38755277      10.93965052       0.10265017      -0.59767886      -0.47029700
Si       0.94565273       2.04619471       4.90882448      -0.10265017       0.59767887      -0.47029700
Si      -0.94565347       2.04619437       7.15282760       0.10264995       0.59767890       0.47029700
Si       0.94565267       2.38755311       1.12200156      -0.10264995      -0.59767890       0.47029700
Si       2.58489132       0.00000046       0.00000000       0.00000000       0.00000000       0.00000000
Si      -2.58489212       4.43374701       6.03082604       0.00000000      -0.00000000       0.00000000
10
Lattice="5.052087428621542 9.031194549138691e-07 0.0 -2.5260445028732463 4.411250512296702 0.0 0.0 0.0 11.973915962748773" Properties=species:S:1:pos:R:3:forces:R:3 unique_starting_index=466 config_type=initial n_minim_iter=13 energy=-1622.5267578227918 stress="-0.034659357586741865 -0.00858644582008117 -0.007095542626696534 -1.3061564228033976e-12 -1.012821076896453e-11 -4.667178292693362e-09" pbc="T T T"
Si       3.44954517       2.03890294       1.11870939       0.05337963       0.36816587       0.40650037
Si       1.60254146       2.37234893       7.10566737      -0.05337963      -0.36816587       0.40650037
Si       3.44954511       2.37234926       4.86824859       0.05337976      -0.36816585      -0.40650037
Si       1.60254152       2.03890261      10.85520657      -0.05337976       0.36816585      -0.40650037
Si      -0.92350226       2.37234848      10.85520657      -0.05337963      -0.36816587      -0.40650037
Si       0.92350146       2.03890249       4.86824859       0.05337963       0.36816587      -0.40650037
Si      -0.92350220       2.03890216       7.10566737      -0.05337976       0.36816585       0.40650037
Si       0.92350140       2.37234881       1.11870939       0.05337976      -0.36816585       0.40650037
Si       2.52604371       0.00000045       0.00000000      -0.00000000       0.00000000       0.00000000
Si      -2.52604451       4.41125051       5.98695798      -0.00000000      -0.00000000      -0.00000000
10
Lattice="5.136766085523216 9.182567508249567e-07 0.0 -2.568383834578043 4.429453289681242 0.0 0.0 0.0 12.01473183629288" Properties=species:S:1:pos:R:3:forces:R:3 unique_starting_index=466 config_type=initial n_minim_iter=14 energy=-1622.6168426917316 stress="0.0008913592417906397 -0.000569906833767057 0.0009875341409306892 -3.936121605074495e-13 -2.277029186861577e-12 2.561292479141919e-10" pbc="T T T"
Si       3.50746454       2.04791410       1.12384056      -0.07899346       0.53254037       0.36214047
Si       1.62930075       2.38154057       7.13120647       0.07899346      -0.53254037       0.36214047
Si       3.50746448       2.38154091       4.88352536      -0.07899327      -0.53254040      -0.36214047
Si       1.62930081       2.04791376      10.89089128       0.07899327       0.53254040      -0.36214047
Si      -0.93908229       2.38154011      10.89089128       0.07899346      -0.53254037      -0.36214047
Si       0.93908149       2.04791364       4.88352536      -0.07899346       0.53254037      -0.36214047
Si      -0.93908223       2.04791331       7.13120647       0.07899327       0.53254040       0.36214047
Si       0.93908143       2.38154045       1.12384056      -0.07899327      -0.53254040       0.36214047
Si       2.56838304       0.00000046       0.00000000      -0.00000000      -0.00000000       0.00000000
Si      -2.56838384       4.42945329       6.00736592       0.00000000      -0.00000000       0.00000000
