18
Lattice="3.13927 -1.9222484785796613e-16 -1.92224847857965e-16 6.159863181499244e-16 10.059819999999998 -9.810100209040724e-31 7.29405144482762e-16 -1.12788522499207e-30 11.912090000000001" Properties=species:S:1:pos:R:3:forces:R:3 unique_starting_index=62 config_type=initial n_minim_iter=1 energy=-2842.640589991751 stress="-0.4865480761250638 -0.5611212482038843 -0.33599806055395365 -5.977121835862487e-13 3.641532822892201e-12 -1.2239158616507048e-12" pbc="T T T"
Si       1.41483728       3.00798074       8.92188262      20.38830180      14.82296730     -12.20295962
Si       2.98447228       2.02192926       2.99020738      20.38830180     -14.82296730      12.20295963
Si       0.15479772       2.02192926       8.92188262     -20.38830180     -14.82296730     -12.20295962
Si       1.72443272       3.00798074       2.99020738     -20.38830180      14.82296730      12.20295963
Si       1.72443272       7.05183926       2.99020738     -20.38830180     -14.82296730      12.20295963
Si       0.15479772       8.03789074       8.92188262     -20.38830180      14.82296730     -12.20295962
Si       2.98447228       8.03789074       2.99020738      20.38830180      14.82296730      12.20295962
Si       1.41483728       7.05183926       8.92188262      20.38830180     -14.82296730     -12.20295962
Si       1.27017407       1.87900839      10.30849040      19.28318140     -23.40850489      12.90191499
Si       2.83980907       3.15090161       1.60359960      19.28318140      23.40850490     -12.90191499
Si       0.29946093       3.15090161      10.30849040     -19.28318140      23.40850489      12.90191499
Si       1.86909593       1.87900839       1.60359960     -19.28318140     -23.40850489     -12.90191499
Si       1.86909593       8.18081161       1.60359960     -19.28318140      23.40850490     -12.90191499
Si       0.29946093       6.90891839      10.30849040     -19.28318140     -23.40850489      12.90191499
Si       2.83980907       6.90891839       1.60359960      19.28318140     -23.40850489     -12.90191499
Si       1.27017407       8.18081161      10.30849040      19.28318140      23.40850489      12.90191499
Si       1.56963500      -0.00000000      -0.00000000       0.00000000      -0.00000000      -0.00000000
Si       0.00000000       5.02991000      -0.00000000      -0.00000000      -0.00000000      -0.00000000
18
Lattice="3.197258500402274 -1.5776612190089437e-16 -1.6301452700394014e-16 7.509290467929311e-16 10.274427824074394 -4.842580645570775e-17 8.629965875531486e-16 -5.734223523114432e-17 12.063613220623454" Properties=species:S:1:pos:R:3:forces:R:3 unique_starting_index=62 config_type=initial n_minim_iter=2 energy=-2852.834927001437 stress="-0.3899698439593557 -0.46991598567618065 -0.29646842373508403 -9.533905958261648e-13 5.017592822086868e-12 -4.22866433827196e-14" pbc="T T T"
Si       1.44304860       3.07366442       9.03413422      17.03205024      12.17650964     -10.95752410
Si       3.04167785       2.06354950       3.02947900      17.03205024     -12.17650964      10.95752410
Si       0.15558065       2.06354950       9.03413422     -17.03205025     -12.17650964     -10.95752410
Si       1.75420990       3.07366442       3.02947900     -17.03205024      12.17650964      10.95752410
Si       1.75420990       7.20076341       3.02947900     -17.03205024     -12.17650964      10.95752410
Si       0.15558065       8.21087833       9.03413422     -17.03205024      12.17650964     -10.95752410
Si       3.04167785       8.21087833       3.02947900      17.03205024      12.17650964      10.95752410
Si       1.44304860       7.20076341       9.03413422      17.03205024     -12.17650964     -10.95752410
Si       1.29560062       1.91670280      10.44092224      16.34052527     -20.18734618      11.40677184
Si       2.89422988       3.22051111       1.62269098      16.34052527      20.18734618     -11.40677184
Si       0.30302863       3.22051111      10.44092224     -16.34052527      20.18734618      11.40677184
Si       1.90165788       1.91670280       1.62269098     -16.34052527     -20.18734618     -11.40677184
Si       1.90165788       8.35772502       1.62269098     -16.34052527      20.18734618     -11.40677184
Si       0.30302863       7.05391671      10.44092224     -16.34052527     -20.18734618      11.40677184
Si       2.89422988       7.05391671       1.62269098      16.34052527     -20.18734618     -11.40677184
Si       1.29560062       8.35772502      10.44092224      16.34052527      20.18734618      11.40677184
Si       1.59862925      -0.00000000      -0.00000000      -0.00000000       0.00000000      -0.00000000
Si       0.00000000       5.13721391      -0.00000000      -0.00000000       0.00000000      -0.00000000
18
Lattice="3.598316603092093 7.209865907723788e-17 4.3828755141027293e-17 1.6632672509202552e-15 11.846784979230591 -7.367062891016749e-16 1.8098282924809095e-15 -8.751710264990087e-16 13.197566479285317" Properties=species:S:1:pos:R:3:forces:R:3 unique_starting_index=62 config_type=initial n_minim_iter=3 energy=-2896.4193754007847 stress="-0.061063965811215454 -0.1273099240406557 -0.1066389022124886 -1.067473738594796e-12 5.525192637488328e-12 9.062617443125079e-13" pbc="T T T"
Si       1.63926595       3.55524450       9.87392195       7.16773774       5.85994125      -4.93394481
Si       3.43842425       2.36814799       3.32364453       7.16773774      -5.85994125       4.93394481
Si       0.15989235       2.36814799       9.87392195      -7.16773774      -5.85994125      -4.93394481
Si       1.95905066       3.55524450       3.32364453      -7.16773774       5.85994125       4.93394481
Si       1.95905066       8.29154048       3.32364453      -7.16773774      -5.85994125       4.93394481
Si       0.15989235       9.47863699       9.87392195      -7.16773774       5.85994125      -4.93394481
Si       3.43842425       9.47863699       3.32364453       7.16773774       5.85994125       4.93394481
Si       1.63926595       8.29154048       9.87392195       7.16773774      -5.85994125      -4.93394481
Si       1.47270507       2.19146083      11.43213266       6.02737626      -9.00833964       5.04091473
Si       3.27186337       3.73193166       1.76543381       6.02737626       9.00833964      -5.04091473
Si       0.32645323       3.73193166      11.43213266      -6.02737626       9.00833964       5.04091473
Si       2.12561154       2.19146083       1.76543381      -6.02737626      -9.00833964      -5.04091473
Si       2.12561154       9.65532414       1.76543381      -6.02737626       9.00833964      -5.04091473
Si       0.32645323       8.11485332      11.43213266      -6.02737626      -9.00833964       5.04091473
Si       3.27186337       8.11485332       1.76543381       6.02737626      -9.00833964      -5.04091473
Si       1.47270507       9.65532414      11.43213266       6.02737626       9.00833964       5.04091473
Si       1.79915830      -0.00000000       0.00000000       0.00000000       0.00000000      -0.00000000
Si       0.00000000       5.92339249      -0.00000000       0.00000000      -0.00000000      -0.00000000
18
Lattice="3.7477125845026618 -1.7878330339029642e-15 -1.0221843920869118e-15 -4.1132417529203736e-15 12.89536259848061 -1.1048236698761841e-15 -2.093533976446871e-15 -1.3290860409421758e-15 14.169235286547472" Properties=species:S:1:pos:R:3:forces:R:3 unique_starting_index=62 config_type=initial n_minim_iter=4 energy=-2906.2610800148673 stress="0.002429460657547722 -0.04993347517452958 -0.03341161721568166 -2.958483291456203e-12 1.4070187062059975e-12 1.4569381542196244e-12" pbc="T T T"
Si       1.71893964       3.88039956      10.59318856       5.96709008       3.75465478      -2.69469561
Si       3.59279593       2.56728173       3.57604673       5.96709009      -3.75465478       2.69469561
Si       0.15491665       2.56728173      10.59318856      -5.96709008      -3.75465478      -2.69469561
Si       2.02877294       3.88039956       3.57604673      -5.96709009       3.75465478       2.69469561
Si       2.02877294       9.01496303       3.57604673      -5.96709008      -3.75465478       2.69469561
Si       0.15491665      10.32808086      10.59318856      -5.96709008       3.75465478      -2.69469561
Si       3.59279593      10.32808086       3.57604673       5.96709008       3.75465478       2.69469561
Si       1.71893964       9.01496303      10.59318856       5.96709009      -3.75465478      -2.69469561
Si       1.54361566       2.36932790      12.28168799       2.80159669      -4.11889685       3.59007601
Si       3.41747196       4.07835340       1.88754730       2.80159669       4.11889684      -3.59007601
Si       0.33024063       4.07835340      12.28168799      -2.80159669       4.11889684       3.59007601
Si       2.20409692       2.36932790       1.88754730      -2.80159669      -4.11889684      -3.59007601
Si       2.20409692      10.52603470       1.88754730      -2.80159669       4.11889684      -3.59007601
Si       0.33024063       8.81700920      12.28168799      -2.80159669      -4.11889684       3.59007601
Si       3.41747196       8.81700920       1.88754730       2.80159669      -4.11889684      -3.59007601
Si       1.54361566      10.52603470      12.28168799       2.80159669       4.11889685       3.59007601
Si       1.87385629      -0.00000000      -0.00000000      -0.00000000       0.00000000      -0.00000000
Si      -0.00000000       6.44768130      -0.00000000      -0.00000000      -0.00000000      -0.00000000
18
Lattice="3.736028514014659 9.443554296199837e-15 2.704791846904883e-15 3.143853985250354e-14 13.750098403012654 -1.2985326975089008e-16 1.1976963701706551e-14 -2.2320579161026183e-16 14.79096002220268" Properties=species:S:1:pos:R:3:forces:R:3 unique_starting_index=62 config_type=initial n_minim_iter=5 energy=-2910.4711876185966 stress="-0.0011722071552384742 -0.033499199111752656 -0.021486011740449198 -6.960614293376185e-13 2.6838037958056374e-12 7.457257917540359e-13" pbc="T T T"
Si       1.72949282       4.14994932      11.05053164       4.46435548       1.91465894      -1.61479026
Si       3.59750708       2.72509989       3.74042838       4.46435548      -1.91465894       1.61479026
Si       0.13852143       2.72509989      11.05053164      -4.46435548      -1.91465894      -1.61479026
Si       2.00653569       4.14994932       3.74042838      -4.46435548       1.91465894       1.61479026
Si       2.00653569       9.60014909       3.74042838      -4.46435548      -1.91465894       1.61479026
Si       0.13852143      11.02499852      11.05053164      -4.46435548       1.91465894      -1.61479026
Si       3.59750708      11.02499852       3.74042838       4.46435548       1.91465894       1.61479026
Si       1.72949282       9.60014909      11.05053164       4.46435548      -1.91465894      -1.61479026
Si       1.54627413       2.51282735      12.83054221       1.85336305      -1.87619284       2.04003042
Si       3.41428839       4.36222185       1.96041781       1.85336305       1.87619285      -2.04003042
Si       0.32174013       4.36222185      12.83054221      -1.85336305       1.87619284       2.04003042
Si       2.18975438       2.51282735       1.96041781      -1.85336305      -1.87619285      -2.04003042
Si       2.18975438      11.23727105       1.96041781      -1.85336305       1.87619285      -2.04003042
Si       0.32174013       9.38787655      12.83054221      -1.85336305      -1.87619285       2.04003042
Si       3.41428839       9.38787655       1.96041781       1.85336305      -1.87619285      -2.04003042
Si       1.54627413      11.23727105      12.83054221       1.85336305       1.87619284       2.04003042
Si       1.86801426       0.00000000       0.00000000       0.00000000       0.00000000      -0.00000000
Si       0.00000000       6.87504920      -0.00000000       0.00000000       0.00000000      -0.00000000
18
Lattice="3.7545784260624377 -1.7712452458105848e-14 -5.298842142890524e-15 -4.090166492033591e-14 15.840787956792587 -9.047849766355749e-16 -1.5597668217409518e-14 -1.1546008263551446e-15 16.196573972698612" Properties=species:S:1:pos:R:3:forces:R:3 unique_starting_index=62 config_type=initial n_minim_iter=6 energy=-2913.4441833875694 stress="0.008099300377862433 0.0017594844024620491 0.011226340333322277 1.2030167895307426e-12 -2.8793002591169272e-12 -2.8503799201074712e-12" pbc="T T T"
Si       1.77341555       4.80386089      12.08552536       1.22647655      -0.28081876       0.50958518
Si       3.65070476       3.11653309       4.11104861       1.22647655       0.28081875      -0.50958518
Si       0.10387367       3.11653309      12.08552536      -1.22647655       0.28081876       0.50958518
Si       1.98116288       4.80386089       4.11104861      -1.22647655      -0.28081875      -0.50958518
Si       1.98116288      11.03692707       4.11104861      -1.22647655       0.28081875      -0.50958517
Si       0.10387367      12.72425486      12.08552536      -1.22647655      -0.28081875       0.50958518
Si       3.65070476      12.72425486       4.11104861       1.22647655      -0.28081875      -0.50958518
Si       1.77341555      11.03692707      12.08552536       1.22647655       0.28081875       0.50958518
Si       1.56862104       2.87244510      14.06900604       0.12161621       1.48136101      -0.34929042
Si       3.44591025       5.04794888       2.12756794       0.12161621      -1.48136101       0.34929042
Si       0.30866817       5.04794888      14.06900604      -0.12161621      -1.48136101      -0.34929042
Si       2.18595739       2.87244510       2.12756794      -0.12161621       1.48136101       0.34929042
Si       2.18595739      12.96834286       2.12756794      -0.12161621      -1.48136101       0.34929042
Si       0.30866817      10.79283908      14.06900604      -0.12161621       1.48136101      -0.34929042
Si       3.44591025      10.79283908       2.12756794       0.12161621       1.48136101       0.34929042
Si       1.56862104      12.96834286      14.06900604       0.12161621      -1.48136101      -0.34929042
Si       1.87728921      -0.00000000      -0.00000000       0.00000000      -0.00000000       0.00000000
Si      -0.00000000       7.92039398      -0.00000000       0.00000000      -0.00000000      -0.00000000
18
Lattice="3.631646432659299 -1.5964454455103962e-14 -4.996746034376507e-15 -3.3332345485064906e-14 15.726642728125944 6.689436989399276e-16 -1.4974447208586378e-14 6.662885964156828e-16 15.466200283182662" Properties=species:S:1:pos:R:3:forces:R:3 unique_starting_index=62 config_type=initial n_minim_iter=7 energy=-2914.1635462801646 stress="0.0075324129847125585 -0.00025207503922497146 0.0006039451689372476 -4.626562382075231e-13 -1.8006542535352948e-13 -1.751958937580578e-13" pbc="T T T"
Si       1.72259110       4.76629573      11.54437508       2.05724452       0.02918717      -0.15766088
Si       3.53841432       3.09702564       3.92182520       2.05724452      -0.02918717       0.15766088
Si       0.09323211       3.09702564      11.54437508      -2.05724452      -0.02918717      -0.15766088
Si       1.90905533       4.76629573       3.92182520      -2.05724452       0.02918717       0.15766088
Si       1.90905533      10.96034700       3.92182520      -2.05724452      -0.02918717       0.15766088
Si       0.09323211      12.62961709      11.54437508      -2.05724452       0.02918717      -0.15766088
Si       3.53841432      12.62961709       3.92182520       2.05724452       0.02918717       0.15766088
Si       1.72259110      10.96034700      11.54437508       2.05724452      -0.02918717      -0.15766088
Si       1.51797939       2.86730645      13.43194260       0.62968496       0.65484977       0.33673404
Si       3.33380260       4.99601492       2.03425768       0.62968496      -0.65484977      -0.33673404
Si       0.29784383       4.99601492      13.43194260      -0.62968496      -0.65484977       0.33673404
Si       2.11366705       2.86730645       2.03425768      -0.62968496       0.65484977      -0.33673404
Si       2.11366705      12.85933628       2.03425768      -0.62968496      -0.65484977      -0.33673404
Si       0.29784383      10.73062781      13.43194260      -0.62968496       0.65484977       0.33673404
Si       3.33380260      10.73062781       2.03425768       0.62968496       0.65484977      -0.33673404
Si       1.51797939      12.85933628      13.43194260       0.62968496      -0.65484977       0.33673404
Si       1.81582322      -0.00000000      -0.00000000      -0.00000000       0.00000000      -0.00000000
Si      -0.00000000       7.86332136       0.00000000       0.00000000       0.00000000       0.00000000
18
Lattice="3.5314772363121434 -1.4737277541471992e-14 -4.819425343083886e-15 -2.7461603008191057e-14 15.74137009340493 1.4074568347117117e-15 -1.3728157539220598e-14 1.5468998463195316e-15 15.431554516176476" Properties=species:S:1:pos:R:3:forces:R:3 unique_starting_index=62 config_type=initial n_minim_iter=8 energy=-2914.5971174236115 stress="0.0076734886831144895 0.00012919941138617603 -0.0010508766511929954 -6.014602447208164e-13 -9.041956659685814e-14 -4.619523431639451e-13" pbc="T T T"
Si       1.68633243       4.77105931      11.51739983       2.05703815       0.19621591      -0.32108009
Si       3.45207105       3.09962574       3.91415468       2.05703815      -0.19621591       0.32108009
Si       0.07940618       3.09962574      11.51739983      -2.05703815      -0.19621591      -0.32108009
Si       1.84514480       4.77105931       3.91415468      -2.05703815       0.19621591       0.32108009
Si       1.84514480      10.97031078       3.91415468      -2.05703815      -0.19621591       0.32108009
Si       0.07940618      12.64174436      11.51739983      -2.05703815       0.19621591      -0.32108009
Si       3.45207105      12.64174436       3.91415468       2.05703815       0.19621591       0.32108009
Si       1.68633243      10.97031078      11.51739983       2.05703815      -0.19621591      -0.32108009
Si       1.47955477       2.87672556      13.40423464       0.83143536       0.37988592       0.56432684
Si       3.24529339       4.99395949       2.02731987       0.83143535      -0.37988592      -0.56432684
Si       0.28618385       4.99395949      13.40423464      -0.83143535      -0.37988592       0.56432684
Si       2.05192247       2.87672556       2.02731987      -0.83143535       0.37988592      -0.56432684
Si       2.05192247      12.86464454       2.02731987      -0.83143536      -0.37988592      -0.56432684
Si       0.28618385      10.74741060      13.40423464      -0.83143536       0.37988592       0.56432684
Si       3.24529339      10.74741060       2.02731987       0.83143536       0.37988592      -0.56432684
Si       1.47955477      12.86464454      13.40423464       0.83143536      -0.37988592       0.56432684
Si       1.76573862      -0.00000000      -0.00000000      -0.00000000      -0.00000000      -0.00000000
Si      -0.00000000       7.87068505       0.00000000       0.00000000      -0.00000000      -0.00000000
18
Lattice="3.472737866126805 2.8460937371220613e-14 8.322990426138514e-15 1.0784469234212967e-13 15.736925225356234 1.2956109500696738e-15 3.517086193096429e-14 1.408900659076513e-15 15.467042182659478" Properties=species:S:1:pos:R:3:forces:R:3 unique_starting_index=62 config_type=initial n_minim_iter=9 energy=-2914.863352963154 stress="0.00846984225620796 0.00032461969908587486 -0.0017691855381161328 -9.102494704996665e-13 3.2965530779444187e-13 -2.6155690758276077e-12" pbc="T T T"
Si       1.66480614       4.77093595      11.54251005       1.95974138       0.29585695      -0.36879883
Si       3.40117507       3.09752666       3.92453213       1.95974138      -0.29585695       0.36879882
Si       0.07156280       3.09752666      11.54251005      -1.95974138      -0.29585695      -0.36879883
Si       1.80793173       4.77093595       3.92453213      -1.95974138       0.29585695       0.36879882
Si       1.80793173      10.96598927       3.92453213      -1.95974138      -0.29585695       0.36879882
Si       0.07156280      12.63939857      11.54251005      -1.95974138       0.29585695      -0.36879882
Si       3.40117507      12.63939857       3.92453213       1.95974138       0.29585695       0.36879882
Si       1.66480614      10.96598927      11.54251005       1.95974138      -0.29585695      -0.36879882
Si       1.45758158       2.87828269      13.43747881       0.93017164       0.26402222       0.62103570
Si       3.19395052       4.99017993       2.02956337       0.93017164      -0.26402222      -0.62103570
Si       0.27878735       4.99017993      13.43747881      -0.93017164      -0.26402222       0.62103570
Si       2.01515628       2.87828269       2.02956337      -0.93017164       0.26402222      -0.62103570
Si       2.01515628      12.85864254       2.02956337      -0.93017164      -0.26402222      -0.62103570
Si       0.27878735      10.74674530      13.43747881      -0.93017164       0.26402222       0.62103570
Si       3.19395052      10.74674530       2.02956337       0.93017164       0.26402222      -0.62103570
Si       1.45758158      12.85864254      13.43747881       0.93017164      -0.26402222       0.62103570
Si       1.73636893       0.00000000       0.00000000      -0.00000000       0.00000000      -0.00000000
Si       0.00000000       7.86846261       0.00000000      -0.00000000       0.00000000      -0.00000000
18
Lattice="3.232803275391472 2.931088087776031e-14 8.73821143600077e-15 9.919205272764601e-14 15.693803293999919 8.798252491601828e-16 3.2732999251955477e-14 8.725556052155219e-16 15.700082565143317" Properties=species:S:1:pos:R:3:forces:R:3 unique_starting_index=62 config_type=initial n_minim_iter=10 energy=-2915.9875071196566 stress="0.01082607576302584 0.0013546023382710612 -0.0007750242705660567 -1.135388150205342e-12 2.7540790692108196e-12 -8.140482816971077e-13" pbc="T T T"
Si       1.57210824       4.76508296      11.71010854       1.32013082       0.78990870      -0.41274490
Si       3.18850988       3.08181869       3.98997403       1.32013082      -0.78990870       0.41274490
Si       0.04429340       3.08181869      11.71010854      -1.32013082      -0.78990870      -0.41274490
Si       1.66069503       4.76508296       3.98997403      -1.32013082       0.78990870       0.41274490
Si       1.66069503      10.92872034       3.98997403      -1.32013082      -0.78990870       0.41274490
Si       0.04429340      12.61198460      11.71010854      -1.32013082       0.78990870      -0.41274490
Si       3.18850988      12.61198460       3.98997403       1.32013082       0.78990870       0.41274490
Si       1.57210824      10.92872034      11.71010854       1.32013082      -0.78990870      -0.41274490
Si       1.36747233       2.87683899      13.65056792       1.42497778      -0.12181076       0.76587590
Si       2.98387396       4.97006266       2.04951465       1.42497778       0.12181076      -0.76587590
Si       0.24892931       4.97006266      13.65056792      -1.42497778       0.12181076       0.76587591
Si       1.86533095       2.87683899       2.04951465      -1.42497778      -0.12181076      -0.76587590
Si       1.86533095      12.81696431       2.04951465      -1.42497778       0.12181076      -0.76587590
Si       0.24892931      10.72374063      13.65056792      -1.42497778      -0.12181076       0.76587590
Si       2.98387396      10.72374063       2.04951465       1.42497778      -0.12181076      -0.76587590
Si       1.36747233      12.81696431      13.65056792       1.42497778       0.12181076       0.76587590
Si       1.61640164       0.00000000       0.00000000      -0.00000000       0.00000000      -0.00000000
Si       0.00000000       7.84690165       0.00000000      -0.00000000       0.00000000      -0.00000000
18
Lattice="2.9657064315655703 3.249474916279266e-14 9.55933454220568e-15 9.821341097329984e-14 15.525377527077726 2.469836671069338e-15 3.19159708978126e-14 2.701415336565405e-15 15.797305311601669" Properties=species:S:1:pos:R:3:forces:R:3 unique_starting_index=62 config_type=initial n_minim_iter=11 energy=-2917.1806858695136 stress="0.006850506421629163 0.00025303263462374135 -0.0025440717402794343 5.787566092214136e-13 1.5370045926590933e-13 4.640373003457798e-12" pbc="T T T"
Si       1.45506239       4.73296221      11.77540913       1.00555438       1.81695203      -0.51144027
Si       2.93791561       3.02972655       4.02189618       1.00555438      -1.81695203       0.51144027
Si       0.02779082       3.02972655      11.77540913      -1.00555438      -1.81695203      -0.51144027
Si       1.51064404       4.73296221       4.02189618      -1.00555438       1.81695203       0.51144027
Si       1.51064404      10.79241531       4.02189618      -1.00555438      -1.81695203       0.51144027
Si       0.02779082      12.49565098      11.77540913      -1.00555438       1.81695203      -0.51144027
Si       2.93791561      12.49565098       4.02189618       1.00555438       1.81695203       0.51144027
Si       1.45506239      10.79241531      11.77540913       1.00555438      -1.81695203      -0.51144027
Si       1.26835368       2.84303202      13.74848556       1.61379074      -0.46456801       0.89107428
Si       2.75120689       4.91965674       2.04881975       1.61379074       0.46456801      -0.89107428
Si       0.21449954       4.91965674      13.74848556      -1.61379074       0.46456801       0.89107428
Si       1.69735275       2.84303202       2.04881975      -1.61379074      -0.46456801      -0.89107428
Si       1.69735275      12.68234551       2.04881975      -1.61379074       0.46456801      -0.89107428
Si       0.21449954      10.60572078      13.74848556      -1.61379073      -0.46456801       0.89107428
Si       2.75120689      10.60572078       2.04881975       1.61379074      -0.46456801      -0.89107428
Si       1.26835368      12.68234551      13.74848556       1.61379073       0.46456801       0.89107428
Si       1.48285322       0.00000000       0.00000000       0.00000000       0.00000000      -0.00000000
Si       0.00000000       7.76268876       0.00000000      -0.00000000       0.00000000      -0.00000000
18
Lattice="2.902080824834688 3.5124416671411425e-14 1.0093532735834135e-14 1.0356025077700186e-13 15.512945936745577 1.7890953023721867e-15 3.2667605980066864e-14 1.8484281200821523e-15 15.925050443336971" Properties=species:S:1:pos:R:3:forces:R:3 unique_starting_index=62 config_type=initial n_minim_iter=12 energy=-2917.785133186287 stress="0.011371190880084765 0.0014540713029731667 -0.0002817254435055495 -2.280370430371476e-13 -4.378492326256207e-12 -1.0637914901043955e-13" pbc="T T T"
Si       1.42766802       4.74799277      11.86668465       0.79862189       1.82394301      -0.40268616
Si       2.87870843       3.00848020       4.05836579       0.79862189      -1.82394301       0.40268616
Si       0.02337239       3.00848020      11.86668465      -0.79862189      -1.82394301      -0.40268616
Si       1.47441281       4.74799277       4.05836579      -0.79862189       1.82394301       0.40268616
Si       1.47441281      10.76495317       4.05836579      -0.79862189      -1.82394301       0.40268616
Si       0.02337239      12.50446574      11.86668465      -0.79862189       1.82394301      -0.40268616
Si       2.87870843      12.50446574       4.05836579       0.79862189       1.82394301       0.40268616
Si       1.42766802      10.76495317      11.86668465       0.79862189      -1.82394301      -0.40268616
Si       1.24727687       2.83594343      13.86653880       1.34643585      -0.35774951       0.78163274
Si       2.69831729       4.92052953       2.05851165       1.34643585       0.35774951      -0.78163274
Si       0.20376354       4.92052953      13.86653880      -1.34643585       0.35774951       0.78163274
Si       1.65480395       2.83594343       2.05851165      -1.34643585      -0.35774951      -0.78163274
Si       1.65480395      12.67700250       2.05851165      -1.34643585       0.35774951      -0.78163274
Si       0.20376354      10.59241640      13.86653880      -1.34643585      -0.35774951       0.78163274
Si       2.69831729      10.59241640       2.05851165       1.34643585      -0.35774951      -0.78163274
Si       1.24727687      12.67700250      13.86653880       1.34643585       0.35774951       0.78163274
Si       1.45104041       0.00000000       0.00000000      -0.00000000       0.00000000       0.00000000
Si       0.00000000       7.75647297       0.00000000      -0.00000000      -0.00000000      -0.00000000
18
Lattice="2.674876079914302 4.1368465215130456e-14 1.1424651059445321e-14 1.1301632036890674e-13 15.352065654944425 2.33324091622653e-15 3.424558295151013e-14 2.4577602626208605e-15 15.957248536846587" Properties=species:S:1:pos:R:3:forces:R:3 unique_starting_index=62 config_type=initial n_minim_iter=13 energy=-2918.581458360168 stress="-0.02051570576164034 -0.011393141769023616 -0.0030924212046115796 -6.868143839638688e-13 -7.599698541216612e-13 -1.8058365082339817e-12" pbc="T T T"
Si       1.32218615       4.74167589      11.88346576       0.38309085       2.17062395      -0.34075322
Si       2.65962419       2.93435694       4.07378277       0.38309085      -2.17062395       0.34075322
Si       0.01525189       2.93435694      11.88346576      -0.38309085      -2.17062395      -0.34075322
Si       1.35268993       4.74167589       4.07378277      -0.38309085       2.17062395       0.34075322
Si       1.35268993      10.61038976       4.07378277      -0.38309085      -2.17062395       0.34075322
Si       0.01525189      12.41770872      11.88346576      -0.38309085       2.17062395      -0.34075322
Si       2.65962419      12.41770872       4.07378277       0.38309085       2.17062395       0.34075322
Si       1.32218615      10.61038976      11.88346576       0.38309085      -2.17062395      -0.34075322
Si       1.16023296       2.79811370      13.90857287       0.53795405       0.15796676       0.55394491