12
Lattice="4.9696944481547485 1.6953712219252637 0.9846214068310736 1.3129459452552243 6.367540692528066 1.2990342004672093 0.5121508602963638 -0.3542491859949015 7.930962822071522" Properties=species:S:1:pos:R:3:forces:R:3 unique_starting_index=414 config_type=initial n_minim_iter=1 energy=-1953.4109873693483 stress="-0.0034554089251799223 -0.0006526974939913852 0.001498478197532705 -0.0006526974939913852 0.0056452974625869935 0.0013565157689976578 0.001498478197532705 0.0013565157689976578 -0.0012127281487138923" free_energy=-1953.4109873693483 pbc="T T T"
Si       2.24485101       3.15732175       4.91211995      -0.02907063       0.03925614      -0.08096765
Si       1.30047106       2.90042125       0.80827809       0.02124032      -0.10521788      -0.14841951
Si       3.48679359       4.99221960       4.22424076      -0.30410643       0.34290714      -0.24617077
Si       0.80867964       2.68025222       3.13015397      -0.21140908      -0.26388272      -0.09688824
Si       5.42857791       5.99911102       7.03952533      -0.18943160      -0.09483411       0.14535991
Si       4.72242898       7.62064586       5.39730503       0.33531007       0.13630401      -0.22391738
Si       4.72665988       3.09584455       0.53974929       0.04662832      -0.10957064      -0.05645514
Si       4.11679094       5.75988098       2.07472653       0.00728427       0.12478643       0.29663759
Si       1.97852266       6.71598039       4.89819206       0.30876267       0.19825388      -0.23638547
Si       1.98515051       5.85803989       7.05704147      -0.34064588       0.07390964       0.33407582
Si       3.68238039       4.52392265       8.02502979       0.28928870       0.07670552       0.17897981
Si       3.22580479       1.61092816       1.63239090       0.06614926      -0.41861741       0.13415102
12
Lattice="5.026008694902024 1.6702208884077152 0.9560043665771165 1.3354794753694255 6.246079685384937 1.2691283022328035 0.47739657564388727 -0.38214361591643 7.962243659332504" Properties=species:S:1:pos:R:3:forces:R:3 unique_starting_index=414 config_type=initial n_minim_iter=2 energy=-1953.4301505205635 stress="0.0008746474557180495 0.001347095597885916 0.000537185561506644 0.001347095597885916 -0.007425566124788829 -0.0028712269028077536 0.000537185561506644 -0.0028712269028077536 0.00034881454521763235" free_energy=-1953.4301505205635 pbc="T T T"
Si       2.25259640       3.08196106       4.90547255      -0.11888909       0.06300601      -0.02229266
Si       1.31809786       2.84418743       0.78987803       0.01515114      -0.06785298       0.00469323
Si       3.51243105       4.89276523       4.19793787      -0.10092613       0.33856794      -0.32896113
Si       0.80507236       2.61438728       3.12543041      -0.27937909       0.02175721      -0.21656615
Si       5.46635074       5.86635079       7.01601980      -0.16004490      -0.15769225       0.11133706
Si       4.77143200       7.46682724       5.35804370       0.44430729       0.07483812      -0.28378642
Si       4.78612013       3.04457101       0.50345278      -0.03326612      -0.20220596       0.13954330
Si       4.16667138       5.65407892       2.04083880      -0.03465653      -0.14112089       0.29208670
Si       1.99589644       6.57613239       4.87459031       0.08966141      -0.01726172      -0.07064847
Si       1.98043841       5.72268006       7.05427843      -0.24489912       0.02442494       0.09242104
Si       3.69867146       4.41280592       8.02138142       0.28270807       0.13748828       0.10465622
Si       3.25940323       1.57477011       1.61751192       0.14023308      -0.07394869       0.17751730
12
Lattice="5.037628837894811 1.6776018990207808 0.945797844092643 1.3223289545431927 6.299093884752634 1.2939827340890193 0.4498460896169644 -0.3507859594858324 7.968483243371502" Properties=species:S:1:pos:R:3:forces:R:3 unique_starting_index=414 config_type=initial n_minim_iter=3 energy=-1953.4514335241556 stress="0.007078366844120913 -0.0013950939581854366 -0.0008134112180370523 -0.0013950939581854366 0.0022718469342914915 -0.00028942287706006944 -0.0008134112180370523 -0.00028942287706006944 0.004127251866483289" free_energy=-1953.4514335241556 pbc="T T T"
Si       2.23443075       3.12478321       4.91618301      -0.07695464       0.05758429      -0.08520562
Si       1.31428272       2.86640839       0.79775515      -0.02394836      -0.10133119       0.04532868
Si       3.49603488       4.94926304       4.20692764      -0.15892216       0.28495320      -0.21208505
Si       0.78626434       2.64595157       3.13523602      -0.30903578      -0.02736574      -0.18411985
Si       5.44463776       5.93120318       7.03285063      -0.05094956      -0.13212605       0.04733131
Si       4.76015336       7.54251725       5.37590093       0.32701737       0.21026945      -0.19633861
Si       4.79559437       3.05868722       0.50085599      -0.08678155      -0.19328783       0.05587737
Si       4.16208805       5.69948082       2.05840366       0.03624206      -0.09461149       0.25120154
Si       1.97406196       6.64771720       4.90042044       0.14368914      -0.04557148      -0.05565609
Si       1.94385621       5.79665164       7.08483358      -0.23562511       0.01545024       0.14062094
Si       3.67772564       4.47820091       8.03958754       0.30279582       0.14343308       0.09585873
Si       3.26401163       1.58423438       1.61710362       0.13247278      -0.11739648       0.09718666
12
Lattice="4.9917410391696295 1.6913934483992978 0.9352805324918742 1.3094100069245818 6.332259582482528 1.3162072741604518 0.42379709549567113 -0.30992131886237284 7.916052205498898" Properties=species:S:1:pos:R:3:forces:R:3 unique_starting_index=414 config_type=initial n_minim_iter=4 energy=-1953.474273626379 stress="-0.001241646128104144 -0.0020836936245803594 -0.002018446279635506 -0.0020836936245803594 0.0015163354716048894 0.0026626182951136703 -0.002018446279635506 0.0026626182951136703 -0.004439554490251367" free_energy=-1953.474273626379 pbc="T T T"
Si       2.20029556       3.16587403       4.89491606      -0.00317061       0.03600497      -0.06645007
Si       1.30178194       2.88048884       0.80381847       0.00225305      -0.13263901      -0.02468033
Si       3.45086402       5.00178190       4.19069993      -0.30870145       0.12931396      -0.00498544
Si       0.76433951       2.67150905       3.12334065      -0.26217177      -0.05735470      -0.12510128
Si       5.37601193       5.99126483       7.00924819       0.01760685      -0.10725680       0.01654895
Si       4.71701735       7.60722119       5.36348794       0.18370643       0.27438737      -0.14463150
Si       4.75279244       3.07110992       0.50269893      -0.01303302      -0.21063731       0.00854792
Si       4.12196514       5.73409662       2.07266251       0.08999300       0.06530580       0.11345331
Si       1.95041032       6.70270483       4.89718280       0.21901620       0.05896176      -0.07080132
Si       1.90178617       5.85961400       7.07184682      -0.26844982       0.03431592       0.21598400
Si       3.63303846       4.54371544       8.00716921       0.21866592       0.13169072       0.07562081
Si       3.23481458       1.59539131       1.61051963       0.12428521      -0.22209269       0.00649496
12
Lattice="4.974642402910273 1.7320074859984524 0.9531185502038725 1.345369926953023 6.372520144344362 1.328768177330402 0.435095240256825 -0.30824957914347717 7.976324648437926" Properties=species:S:1:pos:R:3:forces:R:3 unique_starting_index=414 config_type=initial n_minim_iter=5 energy=-1953.500196354469 stress="-0.00301415933848676 0.002044177201080881 0.0001637671947982462 0.002044177201080881 0.005336216253074751 0.000806235790413922 0.0001637671947982462 0.000806235790413922 0.002734240848208139" free_energy=-1953.500196354469 pbc="T T T"
Si       2.21413700       3.19887518       4.93311258       0.02251660       0.12891560      -0.29813859
Si       1.31462542       2.89788056       0.81088263      -0.02132992      -0.20431890      -0.01715809
Si       3.45949674       5.06429118       4.21828582      -0.39368517      -0.20545029       0.05303544
Si       0.76862912       2.68586237       3.13959622      -0.01951283      -0.07478541       0.02812599
Si       5.39099690       6.04937568       7.07802265       0.07905220       0.09505923      -0.01834075
Si       4.76770540       7.68522755       5.40132726       0.14453751       0.19420046       0.00783526
Si       4.74400396       3.10708600       0.51929954      -0.01446818      -0.17631423       0.06608114
Si       4.13958804       5.78855113       2.11042090       0.03039705       0.09186694      -0.04531087
Si       2.00242533       6.75178557       4.93193744       0.09453866       0.15113062       0.24590396
Si       1.92731410       5.90363879       7.13963022      -0.27643085      -0.05977257      -0.08022600
Si       3.67198362       4.59727681       8.08108351       0.20371688       0.25688416       0.11755630
Si       3.23545595       1.61340337       1.63550621       0.15066806      -0.19741560      -0.05936379
12
Lattice="5.001073115023511 1.707408141514835 0.9509730184377672 1.3348987241096169 6.330517734316877 1.3272711613267643 0.4384894943392935 -0.3061831777761978 7.960951180077905" Properties=species:S:1:pos:R:3:forces:R:3 unique_starting_index=414 config_type=initial n_minim_iter=6 energy=-1953.5217457862418 stress="0.0004447041018145351 -0.002067558007290395 0.0022010430694888315 -0.002067558007290395 9.338248052631871e-05 3.370408378445446e-05 0.0022010430694888315 3.370408378445446e-05 -0.0008209933025710944" free_energy=-1953.5217457862418 pbc="T T T"
Si       2.21560751       3.17832634       4.91711360      -0.07014523       0.01047853      -0.31292272
Si       1.31439944       2.86918727       0.80782498      -0.00272326      -0.23841081       0.03327349
Si       3.45048106       5.03573684       4.20065728      -0.23394088      -0.31171983       0.18341075
Si       0.75163111       2.66345963       3.12624545      -0.00722173       0.12725350       0.08491606
Si       5.40239035       5.99364420       7.06919291       0.18930586       0.16786772      -0.14618142
Si       4.79475700       7.63664876       5.38024924       0.07832532       0.17689189       0.13527544
Si       4.76362017       3.06335731       0.52181763      -0.05407608      -0.01899294       0.14337251
Si       4.14957858       5.74223007       2.11884534       0.07792437       0.01858160      -0.22990084
Si       2.00534806       6.71069779       4.92141273      -0.02293617       0.06534653       0.34561394
Si       1.90384288       5.86480574       7.13537299      -0.06519932      -0.20637892      -0.14013164
Si       3.69812886       4.57025823       8.07325799       0.02495259       0.23696720       0.01581480
Si       3.25921455       1.58234484       1.63713474       0.08573453      -0.02788448      -0.11254037
12
Lattice="5.013344348264879 1.7246574389670202 0.9168879584125216 1.3556235343697327 6.32131655954554 1.3214545531769402 0.3811323915865185 -0.3005186377115539 7.96632441906774" Properties=species:S:1:pos:R:3:forces:R:3 unique_starting_index=414 config_type=initial n_minim_iter=7 energy=-1953.5383523320452 stress="0.00036333591768595333 -0.0002066817508356923 -0.0012450582379338955 -0.0002066817508356923 -0.001624952633612773 -0.0016664669175655204 -0.0012450582379338955 -0.0016664669175655204 -0.00010663210084454797" free_energy=-1953.5383523320452 pbc="T T T"
Si       2.19708804       3.18388710       4.90018115      -0.03229329       0.04536387      -0.25552370
Si       1.32389994       2.86140683       0.79997834      -0.04336634      -0.24979219       0.09416173
Si       3.43955278       5.03996902       4.18064640      -0.17027317      -0.32875962       0.10613983
Si       0.73633549       2.66114103       3.12309887      -0.06346446       0.15337530       0.00875335
Si       5.39085659       6.00474566       7.04018381       0.19735107       0.10315282      -0.16779276
Si       4.81009261       7.64746832       5.35134470       0.03342823       0.18131569       0.13748425
Si       4.78279067       3.07076355       0.49316566      -0.09246740      -0.12137887       0.16160889
Si       4.17028617       5.74684028       2.09543501       0.06797189      -0.02055800      -0.08863008
Si       2.00759696       6.70774311       4.91905819      -0.07815357       0.06179656       0.37399502
Si       1.87335137       5.85885309       7.13316229      -0.03363294      -0.17437449      -0.13800174
Si       3.67636795       4.58560155       8.06064906       0.07272730       0.28642093      -0.09980122
Si       3.26680419       1.58712394       1.61663878       0.14217268       0.06343800      -0.13239356
12
Lattice="5.074749036616709 1.8175702039066923 0.9062577800162328 1.4678657702127589 6.331732986210931 1.4057189780705872 0.3167297567642716 -0.18007013101808636 7.996877408781575" Properties=species:S:1:pos:R:3:forces:R:3 unique_starting_index=414 config_type=initial n_minim_iter=8 energy=-1953.5854892868356 stress="0.0018108673316898952 0.004333006038083627 -0.0019478686831698657 0.004333006038083627 -0.008410488636497545 0.0028142440231811497 -0.0019478686831698657 0.0028142440231811497 0.0035380555776122415" free_energy=-1953.5854892868356 pbc="T T T"
Si       2.22402527       3.28536227       4.90936783      -0.20971385      -0.10169090      -0.19346063
Si       1.37488440       2.84399141       0.83566499      -0.23904047      -0.37405485       0.11174412
Si       3.47036702       5.12061015       4.24232997       0.13219570      -0.15204968      -0.14959328
Si       0.73682577       2.70841060       3.16109766      -0.08253447       0.30263147       0.01587842
Si       5.49604560       6.17326157       7.10717347       0.33319896       0.01061765      -0.09787204
Si       4.98276523       7.80702744       5.43915901      -0.01582668       0.24184694       0.03092679
Si       4.85868687       3.11871048       0.52236637       0.00525745      -0.26274690      -0.02052390
Si       4.29731519       5.82206464       2.15800051      -0.01821237      -0.02923914       0.15863583
Si       2.11738680       6.79413678       5.05389789      -0.20914688       0.04840123       0.22150351
Si       1.89690796       5.94526419       7.23587006      -0.03768801      -0.09561064       0.22367743
Si       3.76032084       4.78518669       8.14417299       0.20883297       0.40329576      -0.24386100
Si       3.33378945       1.63880710       1.61595756       0.13267765       0.00859907      -0.05705526
12
Lattice="5.091340508884988 1.9022885549568895 0.8663794391913999 1.5387373658427475 6.440498804015643 1.3781137612696113 0.26237857232005446 -0.1947207233046604 7.9533675519339315" Properties=species:S:1:pos:R:3:forces:R:3 unique_starting_index=414 config_type=initial n_minim_iter=9 energy=-1953.654725281592 stress="0.001256116504405478 0.0018554399836496276 -0.003869008836109668 0.0018554399836496276 -0.0014190408955355237 -0.0031507478404931887 -0.003869008836109668 -0.0031507478404931887 -0.0007460317176270885" free_energy=-1953.654725281592 pbc="T T T"
Si       2.21979906       3.36080739       4.80823069      -0.13115504      -0.00371193      -0.13096886
Si       1.39561054       2.84586444       0.82162145      -0.30198999      -0.55076008       0.05799806
Si       3.44198048       5.21002156       4.18506462       0.41139413       0.04078966      -0.33862318
Si       0.71328171       2.75965872       3.12568135      -0.20407941      -0.16134031       0.03818209
Si       5.54919071       6.32201259       7.01237351       0.19696405      -0.06423292      -0.17365403
Si       5.10032999       8.02555178       5.35638009      -0.18359165       0.00907948       0.15681932
Si       4.88004229       3.18065575       0.50896787      -0.19914319       0.08399129      -0.09270351
Si       4.36883285       5.95697327       2.11787063       0.04342695       0.17011223       0.66844429
Si       2.18561712       6.93165657       5.04645133      -0.16007949       0.26808190       0.05195116
Si       1.87276945       6.01771947       7.18361107       0.32618764      -0.00951175       0.57823321
Si       3.82025797       4.94852802       8.07849523       0.16915753       0.19611758      -0.79716377
Si       3.37908931       1.67084697       1.57625360       0.03290847       0.02138486      -0.01851477
12
Lattice="5.069537314766832 1.971479599121617 0.9028837565411438 1.5799204881186952 6.547304300755494 1.4528919760320498 0.27994042256495255 -0.1139820243133974 7.983508976256812" Properties=species:S:1:pos:R:3:forces:R:3 unique_starting_index=414 config_type=initial n_minim_iter=10 energy=-1953.7178131885732 stress="-0.003415090273211982 -0.003697111525336038 0.0007934891896415162 -0.003697111525336038 0.002219445482324057 0.0022772859953638577 0.0007934891896415162 0.0022772859953638577 0.0022309858061974257" free_energy=-1953.7178131885732 pbc="T T T"
Si       2.22437976       3.47603058       4.81284038      -0.30334790      -0.10592120      -0.20985786
Si       1.39121383       2.83449749       0.85982081      -0.31319553      -0.70422906      -0.00201927
Si       3.41805965       5.33155239       4.24828102       0.34726292       0.47503473      -0.22514353
Si       0.69650837       2.83205816       3.16026009      -0.01999328      -0.24163619       0.13501763
Si       5.59673883       6.51726582       7.10508936       0.32970740       0.08443457      -0.20992417
Si       5.18521646       8.26930556       5.46644287      -0.38997621      -0.17933003       0.13246874
Si       4.85161083       3.22671875       0.57611160      -0.15133013       0.53509976      -0.35227218
Si       4.39839444       6.09379382       2.22503648      -0.00187207       0.17159471       0.39067034
Si       2.24887013       7.11463581       5.18115181       0.05943075      -0.00315871      -0.03261279
Si       1.88164094       6.16023756       7.30296381       0.48311336       0.12280081       0.65333896
Si       3.90592153       5.18408524       8.16126213       0.10626639      -0.07972960      -0.50809121
Si       3.40199179       1.70294210       1.60320446      -0.14606570      -0.07495978       0.22842535
12
Lattice="5.114600827625685 2.021502271817086 0.9237293543536558 1.6408074107388424 6.609803903769582 1.4490499666016494 0.3273510501524618 -0.1135001455516646 7.916733250496343" Properties=species:S:1:pos:R:3:forces:R:3 unique_starting_index=414 config_type=initial n_minim_iter=11 energy=-1953.7759992251747 stress="0.0004132272208691034 0.000699679235784361 0.005405871703044313 0.000699679235784361 0.006871917521883987 0.00190712934876111 0.005405871703044313 0.00190712934876111 -0.0037690004210901404" free_energy=-1953.7759992251747 pbc="T T T"
Si       2.27672325       3.51671921       4.76497752      -0.13926324       0.17885913      -0.34240016
Si       1.40737332       2.83119285       0.86172540      -0.25580097      -0.70979960      -0.15029772
Si       3.49703141       5.39742119       4.22206268       0.03580583       0.30894495       0.01452989
Si       0.72697040       2.85633584       3.13943482       0.04533645      -0.35890363       0.26548176
Si       5.72782192       6.61062010       7.06512420       0.29262017       0.17851405      -0.02998866
Si       5.30072863       8.37908697       5.45386715      -0.18105811      -0.18725072       0.21051356
Si       4.89459641       3.28575256       0.59786974      -0.23593139       0.63419806      -0.18389976
Si       4.47866229       6.17902205       2.24738079       0.00275604       0.23064419       0.01319233
Si       2.33866982       7.19552585       5.16227950      -0.05239385      -0.15670676      -0.15173189
Si       1.97785447       6.21809980       7.27046003       0.40568667      -0.01991772       0.46694918
Si       4.02547348       5.26851616       8.09290932       0.23420398      -0.06920323      -0.23561688
Si       3.44611323       1.73328464       1.60892084      -0.15196156      -0.02937872       0.12326836
12
Lattice="5.114917445527363 1.9870422836203974 0.9053363991803063 1.6067242208342745 6.581312515920663 1.4234398855254793 0.30715903889460217 -0.1474453076141517 7.941507759958832" Properties=species:S:1:pos:R:3:forces:R:3 unique_starting_index=414 config_type=initial n_minim_iter=12 energy=-1953.895892639284 stress="-0.0013644234510338034 -0.0026353028865600875 0.004425948293665589 -0.0026353028865600875 0.0040779815410447885 0.000932531334120411 0.004425948293665589 0.000932531334120411 -0.0005775522677232999" free_energy=-1953.895892639284 pbc="T T T"
Si       2.23070876       3.47601263       4.72757287       0.19725399       0.47651974      -0.24303992
Si       1.35685343       2.73861469       0.85060285      -0.19151066      -0.46255046       0.08727226
Si       3.48664631       5.35843478       4.19023604      -0.39449277       0.27379218       0.31709924
Si       0.69376136       2.82250050       3.14972699      -0.08436025      -0.34782608      -0.11264792
Si       5.72772194       6.55037337       7.02527127       0.10964869       0.09982765       0.11979107
Si       5.23606566       8.31287972       5.44501587      -0.05120987      -0.19251081       0.05612543
Si       4.87200410       3.27441106       0.56513184      -0.42879100       0.47527373      -0.05125591
Si       4.45594563       6.15148420       2.24972623       0.00874188      -0.08650695      -0.59433772
Si       2.28253984       7.15585913       5.16103553       0.09039506      -0.52892931      -0.01935939
Si       1.95916610       6.16342192       7.30949309       0.30721437       0.02238951      -0.12400251
Si       4.01167941       5.22364694       8.03461795       0.54094470      -0.03142027       0.30980112
Si       3.44210958       1.70327848       1.60090220      -0.10383414       0.30194106       0.25455426
12
Lattice="5.170667650717703 2.0451790822088576 0.8612295836226261 1.6760440316221514 6.603311643218435 1.4278011644255144 0.2302509640262197 -0.1208089444249463 7.936631973898223" Properties=species:S:1:pos:R:3:forces:R:3 unique_starting_index=414 config_type=initial n_minim_iter=13 energy=-1953.9436899205984 stress="0.002794031176266713 0.0002426932636322344 0.000218723616263494 0.0002426932636322344 0.003656472315532676 0.0005372743946441723 0.000218723616263494 0.0005372743946441723 0.000699530628065696" free_energy=-1953.9436899205984 pbc="T T T"
Si       2.22382753       3.52472175       4.66405823       0.24289731       0.56894295      -0.14475374
Si       1.35981116       2.67699250       0.84876612      -0.12009346      -0.38949751       0.18225420
Si       3.49918034       5.40826101       4.16049280      -0.39076895       0.40480137       0.25608536
Si       0.66491634       2.83146032       3.14860424      -0.14762605      -0.31896972      -0.28371723
Si       5.80865329       6.64246678       6.97199361       0.10052659      -0.00273498       0.20376624
Si       5.34103328       8.41882135       5.42109159      -0.04308890      -0.24417714       0.01412496
Si       4.92017951       3.31917934       0.53786615      -0.50648661       0.49606294      -0.04262073
Si       4.54623345       6.21651046       2.24625655      -0.02056576      -0.18348762      -0.63546726
Si       2.33385566       7.21038288       5.19201712       0.00672704      -0.79124749      -0.06280847
Si       1.95345391       6.19301775       7.33852766       0.61725427       0.08660441      -0.29805187
Si       4.07734767       5.34209509       7.98974275       0.42706082      -0.15628710       0.43943117
Si       3.49500314       1.72881258       1.57386327      -0.16583629       0.52998988       0.37175737
12
Lattice="5.194416069707804 2.0149431654819674 0.8263895742084462 1.6663558709793873 6.530400300709152 1.3924094765689885 0.18976235556331428 -0.1541589621416224 7.941015055222155" Properties=species:S:1:pos:R:3:forces:R:3 unique_starting_index=414 config_type=initial n_minim_iter=14 energy=-1954.027744408867 stress="0.00265878774261032 0.0011682809277377157 -0.0023149075171168005 0.0011682809277377157 -0.004378813408735984 -0.0008383869644494675 -0.0023149075171168005 -0.0008383869644494675 0.00024069694766421987" free_energy=-1954.027744408867 pbc="T T T"
Si       2.20810333       3.47882344       4.63237267       0.29723442       0.54650596      -0.08480226
Si       1.33679375       2.61027300       0.83618190       0.00258319      -0.20563217       0.33904443
Si       3.50196483       5.34527691       4.12678625      -0.28985945       0.25827453       0.08232233
Si       0.64692656       2.77584824       3.13799392      -0.29590206      -0.20966288      -0.41692020
Si       5.81391940       6.54713603       6.91341714      -0.00279489      -0.16373236       0.33873182
Si       5.30329413       8.28898213       5.37582199       0.07687211      -0.11565593      -0.05385552
Si       4.92536545       3.30787646       0.49034970      -0.57833106      -0.02351560      -0.02362561
Si       4.55041163       6.14238443       2.19173042      -0.00470899      -0.18402236      -0.51419072
Si       2.29580717       7.09530460       5.15348426      -0.03673134      -0.64046410       0.02130774
Si       1.95424796       6.10497588       7.31663283       0.42878293       0.07426163      -0.39678999
Si       4.06246787       5.24653969       7.93274652       0.54743117       0.09369589       0.40912982
Si       3.49563080       1.72000448       1.56019998      -0.14457601       0.56994738       0.29964817
12
Lattice="5.195893695921423 2.0184365943629436 0.8012985719201445 1.6718630113617177 6.5246655497400505 1.3659467679183888 0.15594623249890133 -0.18300806896343927 7.958777376146671" Properties=species:S:1:pos:R:3:forces:R:3 unique_starting_index=414 config_type=initial n_minim_iter=15 energy=-1954.1356078147403 stress="-0.0007601145871164349 0.0008517228077011913 -0.003322028734305883 0.0008517228077011913 -0.006912122389746924 -0.0017034597780464184 -0.003322028734305883 -0.0017034597780464184 0.00013998336747646732" free_energy=-1954.1356078147403 pbc="T T T"
Si       2.19820050       3.49365679       4.58735628       0.13815508       0.30276341      -0.12753581
Si       1.30268667       2.53255470       0.83678227       0.23766792       0.02620299       0.48216132
Si       3.48317805       5.35411893       4.10415877      -0.02343976       0.11597584      -0.24826198
Si       0.61401005       2.73796671       3.12443573      -0.27112036      -0.16060232      -0.29364677
Si       5.82718233       6.53380853       6.88047299       0.07006872      -0.11140892       0.35038051
Si       5.28716343       8.26898606       5.34923508       0.05680118      -0.10110926       0.00489171
Si       4.89020122       3.33428542       0.45720798      -0.52561631      -0.51303813      -0.14651672
Si       4.55712305       6.14093330       2.15056164       0.05316321       0.03937884      -0.27681651
Si       2.27947555       7.04965613       5.14326806      -0.06974353      -0.21917241       0.12831529
Si       1.97389049       6.08205042       7.31993726       0.24978655       0.07689131      -0.44538767
Si       4.09143492       5.24408806       7.89969493       0.30566451       0.18727000       0.41918976
Si       3.49037071       1.73928273       1.56514067      -0.22138722       0.35684865       0.15322685
12
Lattice="5.20579505195566 2.0516866643447673 0.8057366577440549 1.6998883238919489 6.579909421968073 1.363458738438993 0.1615127726822173 -0.19108116439989034 7.973517418548643" Properties=species:S:1:pos:R:3:forces:R:3 unique_starting_index=414 config_type=initial n_minim_iter=16 energy=-1954.2191070946926 stress="-0.0009542248027713671 0.0007517758114572962 0.0001726331156783565 0.0007517758114572962 -0.0028869362496140158 -5.4395285338399796e-05 0.0001726331156783565 -5.4395285338399796e-05 -0.0008376817877284442" free_energy=-1954.2191070946926 pbc="T T T"
Si       2.22368930       3.56399763       4.55085180      -0.23150432      -0.16046583      -0.26030483
Si       1.28608006       2.48037148       0.86011929       0.24797211       0.09430528       0.34916319
Si       3.48789580       5.42841446       4.10481264       0.30914341      -0.03981489      -0.61504289
Si       0.59367376       2.72572533       3.11291634      -0.07546226      -0.08454608       0.11462129
Si       5.89137194       6.60530334       6.89824417       0.26351679       0.03290347       0.25536517
Si       5.32643348       8.34539821       5.36435744      -0.02820267      -0.05309000       0.15371720
Si       4.85028705       3.38238148       0.45466942      -0.20911897      -0.64082511      -0.22055884
Si       4.59303903       6.20780419       2.13638173       0.15253078       0.40556940       0.08003488
Si       2.30717786       7.07689973       5.16399455      -0.11817637       0.34819960       0.12345587
Si       2.04478199       6.13369835       7.33245924       0.10500158       0.02757278      -0.28204707
Si       4.18250938       5.32453143       7.91379558      -0.11045867       0.11772042       0.35140657
Si       3.49362216       1.78681710       1.59477684      -0.30524142      -0.04752904      -0.04981053
12
Lattice="5.199850883869762 2.081467368995687 0.8041825762626246 1.7087518764423495 6.661614137615003 1.3606532955052817 0.15438349254658923 -0.20314706329455837 8.00395252571014" Properties=species:S:1:pos:R:3:forces:R:3 unique_starting_index=414 config_type=initial n_minim_iter=17 energy=-1954.2802990998416 stress="-0.0012406104886763432 -0.0011035676409162642 4.452246442744246e-05 -0.0011035676409162642 0.0075926551338847854 0.0017306209100825453 4.452246442744246e-05 0.0017306209100825453 0.0005101933221264674" free_energy=-1954.2802990998416 pbc="T T T"
Si       2.21418993       3.62269947       4.51427854      -0.23916693      -0.17754105      -0.16555362
Si       1.27381912       2.45248125       0.88830400       0.02544829       0.10072159       0.14155066