6
Lattice="3.790065705802406 0.31821263330523714 -0.05547293513494441 1.4369534031603421 5.108068545323437 -2.047705622862722 1.4577913283502382 -2.6158079772483416 7.856190777100832" Properties=species:S:1:pos:R:3:forces:R:3 unique_starting_index=260 config_type=initial n_minim_iter=1 energy=-977.4739463648041 stress="-0.007166109617345563 0.000505060093652884 0.00216064664847176 0.000505060093652884 0.00010817984799009794 -0.003151569919741142 0.00216064664847176 -0.003151569919741142 -0.0031668005670721145" free_energy=-977.4739463648041 pbc="T T T"
Si       2.56082590       2.94042853       3.38645839       0.07615792      -0.14610915      -0.06358050
Si       3.00169185      -1.47550356       6.75015458      -0.00810991       0.09299436       0.25841401
Si       2.29902646       0.61071576       3.00145789      -0.04587672       0.03294122      -0.18413434
Si       3.27384694       0.80851084       6.19773640       0.20838686       0.06227683       0.15906383
Si       4.25372396       0.03722136       4.14360567      -0.07558516       0.02510194      -0.10038599
Si       3.60410266       4.91737478      -1.26979680      -0.15497299      -0.06720521      -0.06937702
6
Lattice="3.817309655242203 0.31606928457932776 -0.0628843077046766 1.4491422033261412 5.100338988340046 -2.041207176698154 1.4525415589890835 -2.59146383266594 7.8697508748604" Properties=species:S:1:pos:R:3:forces:R:3 unique_starting_index=260 config_type=initial n_minim_iter=2 energy=-977.4807198690282 stress="0.0021630219493829644 3.937089323893375e-05 0.0003948989730054777 3.937089323893375e-05 0.001406902860860398 -0.0010539644564862794 0.0003948989730054777 -0.0010539644564862794 0.001292126403145508" free_energy=-977.4807198690282 pbc="T T T"
Si       2.57099989       2.94837075       3.40044940       0.02915123      -0.12524975       0.04514848
Si       3.00931082      -1.45482540       6.76247282       0.03249764       0.03720791       0.12889642
Si       2.30838179       0.61921423       3.00649350      -0.06023475      -0.00465567      -0.16694055
Si       3.28516825       0.82682561       6.21413661       0.17205554       0.09719270       0.08263689
Si       4.27472583       0.04832991       4.14687108      -0.08687082       0.11688128      -0.06283774
Si       3.62907946       4.91048886      -1.26668136      -0.08659885      -0.12137647      -0.02690350
6
Lattice="3.811919755775331 0.3140753496906079 -0.0675592963891295 1.4488536026866081 5.080309092280336 -2.0251703743654854 1.439294739527168 -2.560877705280435 7.8498452558116965" Properties=species:S:1:pos:R:3:forces:R:3 unique_starting_index=260 config_type=initial n_minim_iter=3 energy=-977.4830420038849 stress="-0.00035859910923331914 -0.00032627146185043956 -0.0010355572781624654 -0.00032627146185043956 -0.0028874408256183903 0.0012416317162543876 -0.0010355572781624654 0.0012416317162543876 -0.0008480191881866591" free_energy=-977.4830420038849 pbc="T T T"
Si       2.56211448       2.94821691       3.40188589       0.01067571      -0.10985147       0.06780075
Si       2.99566919      -1.43020685       6.74768197       0.03236922       0.02935536       0.05731024
Si       2.29943955       0.62622746       2.99829638      -0.09461488      -0.01505251      -0.19273147
Si       3.27400996       0.84445520       6.20567559       0.11431265       0.08354773       0.06318842
Si       4.26094775       0.06156723       4.13430497      -0.06518992       0.12852647      -0.04043629
Si       3.62290149       4.89085987      -1.25604806       0.00244721      -0.11652557       0.04486836
6
Lattice="3.8053789211719025 0.31815455927616426 -0.06396456271306551 1.4480431590839957 5.1040943056128825 -2.0175978600788755 1.4415123692069691 -2.561864489475732 7.850848310507282" Properties=species:S:1:pos:R:3:forces:R:3 unique_starting_index=260 config_type=initial n_minim_iter=4 energy=-977.4877299123043 stress="-0.0010756401989835906 -0.0009890771767888792 -0.0008431147360961 -0.0009890771767888792 0.0023444314252715087 0.0004183989731398103 -0.0008431147360961 0.0004183989731398103 0.0003622494257676192" free_energy=-977.4877299123043 pbc="T T T"
Si       2.56385291       2.96248737       3.41240245      -0.02241227       0.00797979      -0.01437068
Si       2.99670858      -1.42362555       6.75751246       0.00863399       0.06933195      -0.02497978
Si       2.29387183       0.63463774       2.99171330      -0.07161629       0.03799876      -0.12538780
Si       3.28281354       0.86487212       6.21714303       0.02599476      -0.08420711       0.04032441
Si       4.25236536       0.07729931       4.13655065      -0.03949740       0.01670124       0.07375958
Si       3.61568298       4.90944467      -1.24652925       0.09889722      -0.04780463       0.05065428
6
Lattice="3.811545744298153 0.3253687444810854 -0.05680922753786723 1.4569520252065242 5.095927340292088 -2.0156800510453516 1.4531934746552984 -2.555322162124316 7.851232499679058" Properties=species:S:1:pos:R:3:forces:R:3 unique_starting_index=260 config_type=initial n_minim_iter=5 energy=-977.4894413662369 stress="0.0004373796048546034 0.0001910537220592753 0.0005865445533477362 0.0001910537220592753 0.00013316031914607405 6.316473306541688e-05 0.0005865445533477362 6.316473306541688e-05 -0.00015052430832620698" free_energy=-977.4894413662369 pbc="T T T"
Si       2.58046222       2.95745511       3.41571412       0.02658047       0.06694865      -0.01065853
Si       3.01174256      -1.41428980       6.76293029      -0.04515500       0.02058330      -0.02471125
Si       2.30157328       0.63737349       2.98890725      -0.03664480       0.00679104      -0.04656909
Si       3.30487586       0.86857116       6.22291021       0.03011025      -0.06910026       0.04318460
Si       4.26440523       0.08746167       4.14280892      -0.04959090      -0.00265028       0.02889388
Si       3.62914844       4.90284252      -1.23999044       0.07469999      -0.02257245       0.00986039
6
Lattice="3.808431459829299 0.32578330346421364 -0.06342973594001011 1.460114300840189 5.092228323305965 -2.0227322796798366 1.4381927653916442 -2.556727537830813 7.85728010809216" Properties=species:S:1:pos:R:3:forces:R:3 unique_starting_index=260 config_type=initial n_minim_iter=6 energy=-977.4902716826056 stress="-0.00021849776101804487 0.0002172647729436769 -0.0006777691117011584 0.0002172647729436769 -0.0008722867799945122 -0.0005774951613948617 -0.0006777691117011584 -0.0005774951613948617 0.00018830028718606082" free_energy=-977.4902716826056 pbc="T T T"
Si       2.57424840       2.95397964       3.41302366      -0.02058139       0.06959294      -0.01492348
Si       2.99627078      -1.41416581       6.76520413       0.00411187      -0.02278760      -0.00154463
Si       2.29174200       0.63592176       2.98220865      -0.07042726      -0.00452038       0.01499201
Si       3.29508161       0.86314883       6.22548492       0.01546297      -0.05557689       0.01972027
Si       4.25058963       0.08758284       4.14017738      -0.01061716       0.00139406       0.01110118
Si       3.63186599       4.89657599      -1.24911567       0.08205097       0.01189787      -0.02934535
6
Lattice="3.8051843360477515 0.3230136866186259 -0.05987094266288623 1.4532057444200712 5.0946500615425725 -2.0103394939117742 1.4451898342562732 -2.545441132303786 7.850810497281203" Properties=species:S:1:pos:R:3:forces:R:3 unique_starting_index=260 config_type=initial n_minim_iter=7 energy=-977.4914043214649 stress="-0.00014136297215460518 -0.00010302100952406028 0.00018265503103165532 -0.00010302100952406028 -0.00019850438700492256 0.00028664294257267316 0.00018265503103165532 0.00028664294257267316 -4.591765419952335e-05" free_energy=-977.4914043214649 pbc="T T T"
Si       2.57308423       2.96776019       3.41975373      -0.02955878      -0.02354974      -0.03128411
Si       2.99871070      -1.40333781       6.76259645       0.01248073      -0.08655326       0.01931470
Si       2.28563402       0.64159122       2.97908402      -0.01159689       0.05773429       0.05873573
Si       3.30086042       0.86985235       6.23228202       0.03085393       0.01359883       0.01363211
Si       4.24614481       0.09452493       4.14421476      -0.04858893       0.03115292      -0.01838538
Si       3.63095736       4.89586286      -1.23585493       0.04640993       0.00761696      -0.04201306
6
Lattice="3.8055871091476785 0.32417994490330787 -0.06372006799683813 1.4560783861857352 5.105334908746668 -2.012690453331731 1.4371529463994426 -2.5532899109045273 7.846215427398004" Properties=species:S:1:pos:R:3:forces:R:3 unique_starting_index=260 config_type=initial n_minim_iter=8 energy=-977.4928096023632 stress="0.0001796546548288281 0.0007987042925889285 -0.0002599357441222591 0.0007987042925889285 0.0015834134801617687 -0.00013602554308719144 -0.0002599357441222591 -0.00013602554308719144 0.00034854799356500473" free_energy=-977.4928096023632 pbc="T T T"
Si       2.56869689       2.97523605       3.41125851      -0.05215777      -0.04716286      -0.03856123
Si       2.99134119      -1.41346977       6.75735088       0.03891013      -0.02831069      -0.00399205
Si       2.27672405       0.64650869       2.97519994      -0.03764449       0.04513850       0.04300657
Si       3.30064824       0.86524141       6.22992836       0.06724348       0.01500114       0.02492781
Si       4.23526291       0.09678902       4.13854044      -0.00713568       0.02411667      -0.02492909
Si       3.64336239       4.90472481      -1.24393998      -0.00921567      -0.00878276      -0.00045201
6
Lattice="3.8057990780510775 0.3171281612330626 -0.06509378515841581 1.447537396168744 5.103667918519335 -2.0126532125693295 1.4395416490008448 -2.5576615770159417 7.8407945156298515" Properties=species:S:1:pos:R:3:forces:R:3 unique_starting_index=260 config_type=initial n_minim_iter=9 energy=-977.4941707308492 stress="0.0002767497510934213 -0.00019835576158810044 7.706684014173865e-05 -0.00019835576158810044 0.001099027209675805 -0.0004850666035770514 7.706684014173865e-05 -0.0004850666035770514 0.0006254445551149592" free_energy=-977.4941707308492 pbc="T T T"
Si       2.55985158       2.97230707       3.40354589      -0.06409702      -0.00958737      -0.04227380
Si       2.99220681      -1.42652566       6.75354680       0.06413579       0.00334133      -0.02431396
Si       2.26543049       0.64822761       2.97113553      -0.03015648      -0.00302430       0.01921221
Si       3.30727805       0.85360030       6.23150350       0.03996373       0.01659074       0.02561244
Si       4.22475397       0.09361604       4.13439422      -0.00073732      -0.01138750      -0.02785594
Si       3.64780844       4.89563255      -1.24893860      -0.00910869       0.00406711       0.04961904
6
Lattice="3.8058584649963283 0.31674000931970464 -0.06679555795387349 1.4482822863999203 5.100740965293185 -2.0071653109533227 1.435573966421735 -2.550927695261544 7.82948405707199" Properties=species:S:1:pos:R:3:forces:R:3 unique_starting_index=260 config_type=initial n_minim_iter=10 energy=-977.4947835805852 stress="8.725062999936085e-05 3.848630777713753e-05 7.506567209945432e-05 3.848630777713753e-05 9.400783047493152e-05 -7.172180638553033e-05 7.506567209945432e-05 -7.172180638553033e-05 2.3641003502725277e-05" free_energy=-977.4947835805852 pbc="T T T"
Si       2.55550561       2.97484965       3.39807212      -0.05270985      -0.00146295      -0.03467137
Si       2.98978944      -1.42431638       6.74453993       0.05324657       0.02087383      -0.05772171
Si       2.25717871       0.65381504       2.96559333      -0.03578402      -0.02042132       0.01250677
Si       3.31106333       0.85598245       6.22884408       0.02915022       0.01649508       0.02637026
Si       4.21619531       0.10014725       4.12719462       0.01316696      -0.02046888      -0.02862032
Si       3.65550406       4.89077155      -1.24686921      -0.00706988       0.00498423       0.08213637
6
Lattice="3.804667106001732 0.3135587717664339 -0.07255597953600326 1.4472480482487338 5.095164264942937 -1.9986593228397531 1.4241621192816976 -2.5399588771500423 7.809816504967561" Properties=species:S:1:pos:R:3:forces:R:3 unique_starting_index=260 config_type=initial n_minim_iter=11 energy=-977.4956761929533 stress="-0.0002999062096254276 -0.0001346325252688766 0.00028956839163534544 -0.0001346325252688766 -0.00180934200661128 0.0004889460779058671 0.00028956839163534544 0.0004889460779058671 -0.0006856826205064193" free_energy=-977.4956761929533 pbc="T T T"
Si       2.53935230       2.97863880       3.38470219      -0.00127660       0.00461321      -0.01092332
Si       2.98344596      -1.42250357       6.72460383       0.01882878       0.02247436      -0.08310263
Si       2.23563280       0.66257630       2.95548334      -0.03406411      -0.04042696      -0.00185646
Si       3.31488549       0.85829561       6.22561156      -0.01405164       0.01979788       0.01284396
Si       4.19563280       0.10886425       4.11079754       0.01170324      -0.02752956      -0.00914682
Si       3.66788404       4.88019067      -1.24215546       0.01886034       0.02107107       0.09218527
6
Lattice="3.8031042960246295 0.314267164644718 -0.0819721494468172 1.4517002978658748 5.106545942948392 -2.001512354122436 1.4039331539740885 -2.5454469545478156 7.80424648325335" Properties=species:S:1:pos:R:3:forces:R:3 unique_starting_index=260 config_type=initial n_minim_iter=12 energy=-977.4968989634806 stress="1.3334899177658829e-05 0.0001993472671255731 2.7802065066735595e-05 0.0001993472671255731 0.00024488849289082187 5.04411597889577e-05 2.7802065066735595e-05 5.04411597889577e-05 -4.484720551833423e-05" free_energy=-977.4968989634806 pbc="T T T"
Si       2.52372912       2.98672678       3.37202874       0.03927920      -0.05272605       0.00063523
Si       2.97060411      -1.42672115       6.70851542      -0.00011348       0.00357078      -0.02304099
Si       2.21881167       0.66464254       2.95100541      -0.03681818       0.00804302       0.01169049
Si       3.30375904       0.85982007       6.22145169      -0.01275581       0.02404146      -0.00490660
Si       4.18035010       0.10859642       4.09722664      -0.00540764       0.00096567       0.02547433
Si       3.67570067       4.89172125      -1.24322554       0.01581590       0.01610511      -0.00985246
6
Lattice="3.8031364985934792 0.30993532975763877 -0.08673810131805544 1.4485853458985027 5.1043626242021425 -2.004736678553888 1.3973310415868199 -2.549028473449893 7.802478232662527" Properties=species:S:1:pos:R:3:forces:R:3 unique_starting_index=260 config_type=initial n_minim_iter=13 energy=-977.4971876306495 stress="8.713480151409591e-05 -0.0005268442541780902 3.346380717350581e-05 -0.0005268442541780902 -0.0002523849147609875 -0.0004084232348261941 3.346380717350581e-05 -0.0004084232348261941 0.00035406741622161437" free_energy=-977.4971876306495 pbc="T T T"
Si       2.51550260       2.98009286       3.36437275       0.02797839      -0.00103611       0.00711792
Si       2.96639428      -1.43430902       6.70136833       0.01923913       0.00558685      -0.00549356
Si       2.20770075       0.66329279       2.94957070      -0.02443835      -0.02955822      -0.00871048
Si       3.29883130       0.85409468       6.21956385      -0.01791255       0.01355885      -0.01252843
Si       4.17184708       0.10353742       4.09207065      -0.02222297      -0.01385388       0.03757277
Si       3.67810500       4.88750769      -1.24824069       0.01735635       0.02530251      -0.01795821
6
Lattice="3.800790534729253 0.31177358208343325 -0.09639197809792327 1.45523656514499 5.108509555049544 -1.9913790319602236 1.3733393381829562 -2.5317158542336995 7.778143851507422" Properties=species:S:1:pos:R:3:forces:R:3 unique_starting_index=260 config_type=initial n_minim_iter=14 energy=-977.4976811491874 stress="1.0563941533658727e-05 0.0004597266505048836 -0.00011238574408141598 0.0004597266505048836 0.00033529034490328467 0.0004573355988053563 -0.00011238574408141598 0.0004573355988053563 0.00011941175574020201" free_energy=-977.4976811491874 pbc="T T T"
Si       2.50785408       2.98947258       3.35422897      -0.02490566       0.02487222      -0.01312141
Si       2.95014838      -1.41919874       6.67009513       0.03519503       0.01155298      -0.00958489
Si       2.17835437       0.67557013       2.93893852       0.01703025      -0.02661220      -0.00360318
Si       3.28725880       0.87563837       6.20958021       0.05116826      -0.00286746       0.00069866
Si       4.14654316       0.11915937       4.07837756      -0.03574485      -0.01312692       0.03154770
Si       3.69580774       4.89554125      -1.24130816      -0.04274302       0.00618137      -0.00593689
6
Lattice="3.801047043695158 0.3099926704048145 -0.09699639568533755 1.4532622246544635 5.1080848499535625 -1.993673277030075 1.373773274217697 -2.5362064701718574 7.776911461604129" Properties=species:S:1:pos:R:3:forces:R:3 unique_starting_index=260 config_type=initial n_minim_iter=15 energy=-977.4979139805152 stress="4.088296386659298e-05 0.00012041838173147206 -4.04221079070112e-06 0.00012041838173147206 8.465191860958644e-05 0.0001242853608852696 -4.04221079070112e-06 0.0001242853608852696 -9.26473300596978e-06" free_energy=-977.4979139805152 pbc="T T T"
Si       2.50463648       2.98723317       3.35021898      -0.00853401       0.01887176      -0.01281766
Si       2.95121610      -1.42468202       6.66823521       0.02763393       0.00832373       0.00072998
Si       2.17710930       0.67319443       2.93736594       0.01020627      -0.02530681       0.00380972
Si       3.28866774       0.86972345       6.20798293       0.02500583       0.00339055       0.00668984
Si       4.14501905       0.11526828       4.07622545      -0.03195632      -0.01479858       0.02353670
Si       3.69504265       4.89326534      -1.24362370      -0.02235570       0.00951934      -0.02194859
6
Lattice="3.8002545344967413 0.3070032051526292 -0.10205036137125115 1.4515905701612726 5.108964599917377 -1.9935935003797154 1.3650928423665432 -2.538249941548998 7.7677303918587155" Properties=species:S:1:pos:R:3:forces:R:3 unique_starting_index=260 config_type=initial n_minim_iter=16 energy=-977.4981475332207 stress="-2.1241474799900164e-06 -0.00013802949437644456 7.207246542277997e-05 -0.00013802949437644456 -0.00012715306298725137 -6.092972166115926e-05 7.207246542277997e-05 -6.092972166115926e-05 -3.51272547619019e-05" free_energy=-977.4981475332207 pbc="T T T"
Si       2.49415116       2.98745541       3.33917373       0.00765558       0.01101479      -0.01308678
Si       2.94659215      -1.43022298       6.65535516       0.01704445       0.00881780       0.01073962
Si       2.16292908       0.67378737       2.93138218       0.00456620      -0.02548378       0.00333257
Si       3.28719832       0.86589857       6.20384403      -0.00182766       0.00691441       0.01633662
Si       4.13086706       0.11393448       4.06774881      -0.02324096      -0.01669535       0.01186345
Si       3.70049693       4.89147203      -1.24664572      -0.00419760       0.01543213      -0.02918549
6
Lattice="3.7993304443435316 0.30474574054919645 -0.10804813401830818 1.4513036327184685 5.110793681111491 -1.9922953784959074 1.3537268446001083 -2.5385923857778216 7.756460651431361" Properties=species:S:1:pos:R:3:forces:R:3 unique_starting_index=260 config_type=initial n_minim_iter=17 energy=-977.4982870755734 stress="-3.301529079843458e-05 -0.0001686053569215877 1.224068247421588e-05 -0.0001686053569215877 -0.00016274062679625162 -9.431635352910091e-05 1.224068247421588e-05 -9.431635352910091e-05 -0.00017455470448357583" free_energy=-977.4982870755734 pbc="T T T"
Si       2.48414723       2.98886914       3.32743132       0.01324361       0.00309952      -0.01219272
Si       2.94024534      -1.43347793       6.63979090       0.00870297       0.01053371       0.01492845
Si       2.14643126       0.67527188       2.92449630       0.00115858      -0.02144155       0.00346733
Si       3.28396743       0.86507321       6.19871072      -0.01534259       0.00743756       0.02441897
Si       4.11444258       0.11426573       4.05854743      -0.01148677      -0.01621993      -0.00262953
Si       3.70784717       4.89176987      -1.24960394       0.00372420       0.01659069      -0.02799250
6
Lattice="3.7980824672668554 0.3045125366368003 -0.11084945286889886 1.4518725544450657 5.112504465832542 -1.9932170143948607 1.3476491838992208 -2.5392814198364 7.7557932284369695" Properties=species:S:1:pos:R:3:forces:R:3 unique_starting_index=260 config_type=initial n_minim_iter=18 energy=-977.4984562882747 stress="-4.9846386801861025e-05 0.00010712791758332075 -0.000169287690244438 0.00010712791758332075 9.751947650148821e-05 6.628624546822785e-05 -0.000169287690244438 6.628624546822785e-05 6.940006914102666e-06" free_energy=-977.4984562882747 pbc="T T T"
Si       2.48177067       2.98913898       3.32293183       0.00730642      -0.01295599      -0.00344942
Si       2.93807503      -1.43328978       6.63599871      -0.00298555       0.00495974       0.00973509
Si       2.13778347       0.67344164       2.92304187      -0.00723075      -0.00485821       0.00540481
Si       3.28103455       0.86655702       6.20055021      -0.00947010       0.00342239       0.01821727
Si       4.10416672       0.11314581       4.05887640       0.00781543      -0.00291812      -0.02386522
Si       3.71071046       4.89529913      -1.25408657       0.00456455       0.01235020      -0.00604252
6
Lattice="3.7985474249468503 0.30506594340917065 -0.10806015091590779 1.4513495893895374 5.1115476382445495 -1.9944759977679 1.3534046483777804 -2.5405339937063607 7.760687687494337" Properties=species:S:1:pos:R:3:forces:R:3 unique_starting_index=260 config_type=initial n_minim_iter=19 energy=-977.4985140955602 stress="-1.2776083307929463e-05 7.343411255486423e-05 -8.167506054105193e-05 7.343411255486423e-05 7.717016489473827e-05 5.682151218291481e-05 -8.167506054105193e-05 5.682151218291481e-05 5.1300379484918485e-05" free_energy=-977.4985140955602 pbc="T T T"
Si       2.48667978       2.98685792       3.32685839       0.00439806      -0.00539581      -0.00207446
Si       2.94237246      -1.43300026       6.64245630      -0.00403803       0.00444586       0.00609938
Si       2.14445730       0.67109392       2.92625970      -0.00426708      -0.00388355       0.00525362
Si       3.28276666       0.86605465       6.20296497      -0.00291849       0.00081787       0.01416243
Si       4.11084037       0.11116210       4.06336231       0.00344742      -0.00369461      -0.02143192
Si       3.70708821       4.89564672      -1.25407904       0.00337812       0.00771024      -0.00200906
6
Lattice="3.7988175055044966 0.30486443740113894 -0.10684516912919298 1.4505580226493802 5.110989121649111 -1.9953535181473254 1.3563179344805205 -2.5421118195634125 7.762012852691136" Properties=species:S:1:pos:R:3:forces:R:3 unique_starting_index=260 config_type=initial n_minim_iter=20 energy=-977.4985443773868 stress="-1.1566269992227424e-06 -5.6573609863453234e-06 1.4702800287804285e-05 -5.6573609863453234e-06 8.792582392598067e-06 2.984937329186777e-05 1.4702800287804285e-05 2.984937329186777e-05 7.334630537596417e-05" free_energy=-977.4985443773868 pbc="T T T"
Si       2.48853093       2.98489338       3.32717996       0.00449326       0.00195408      -0.00017924
Si       2.94497729      -1.43409939       6.64439335      -0.00667963       0.00483619       0.00343421
Si       2.14659222       0.66929290       2.92749003      -0.00039610      -0.00264573       0.00173875
Si       3.28399426       0.86474577       6.20384922       0.00045578      -0.00122532       0.01052717
Si       4.11323281       0.10915305       4.06446770      -0.00054294      -0.00705034      -0.01661533
Si       3.70568861       4.89568668      -1.25468870       0.00266962       0.00413113       0.00109444
6
Lattice="3.7992677346884776 0.30446339032525604 -0.10581961909537022 1.4496253273549606 5.1108693823009 -1.99664129670625 1.3591674914656142 -2.5455835893255725 7.7608037612688365" Properties=species:S:1:pos:R:3:forces:R:3 unique_starting_index=260 config_type=initial n_minim_iter=21 energy=-977.4985766683346 stress="3.3567335867320506e-05 -8.735207437645108e-05 0.00010292322081080332 -8.735207437645108e-05 -7.757172909367685e-05 -2.901927513850694e-05 0.00010292322081080332 -2.901927513850694e-05 3.9785328618408126e-05" free_energy=-977.4985766683346 pbc="T T T"
Si       2.49001599       2.98248500       3.32469995       0.00466435       0.00620214       0.00272444
Si       2.94773736      -1.43686112       6.64417837      -0.00979263       0.00415150      -0.00181134
Si       2.14772772       0.66657486       2.92735069       0.00253892       0.00597174      -0.00049559
Si       3.28608263       0.86152849       6.20364651       0.00495383      -0.00031847       0.00318768
Si       4.11465564       0.10570031       4.06276997      -0.00368564      -0.01284150      -0.00457461
Si       3.70533131       4.89606879      -1.25625074       0.00132117      -0.00316540       0.00096941
