18
Lattice="4.13141 -2.52975901623268e-16 -2.529759016232679e-16 4.846815253155466e-16 7.9154500000000025 4.036143836987634e-30 6.441225783603376e-16 5.1293034923768596e-30 10.51932" Properties=species:S:1:pos:R:3:forces:R:3 unique_starting_index=294 config_type=initial n_minim_iter=1 energy=-2912.8682551897004 stress="-0.15473721172370383 -0.2730891399486265 -0.03679261332624528 1.730699587333194e-12 -1.4648022321546279e-12 3.849933250719347e-13" pbc="T T T"
Si       2.45342213       4.88203347       8.41677723       0.47032089       9.29136540      -1.35179891
Si       2.45342213       3.03341653       2.10254277       0.47032089      -9.29136540       1.35179891
Si       1.67798787       6.99114153       3.15711723      -0.47032089      -9.29136540      -1.35179891
Si       1.67798787       0.92430847       7.36220277      -0.47032089       9.29136540       1.35179891
Si       1.67798787       6.99114153       7.36220277      -0.47032089      -9.29136540       1.35179891
Si       1.67798787       0.92430847       3.15711723      -0.47032089       9.29136540      -1.35179891
Si       2.45342213       4.88203347       2.10254277       0.47032089       9.29136540       1.35179891
Si       2.45342213       3.03341653       8.41677723       0.47032089      -9.29136540      -1.35179891
Si       3.72879335       1.42915429       3.82658358       0.57519999       1.53862297       2.16699044
Si       3.72879335       6.48629571       6.69273642       0.57519999      -1.53862297      -2.16699044
Si       0.40261665       2.52857071       9.08624358      -0.57519999      -1.53862297       2.16699044
Si       0.40261665       5.38687929       1.43307642      -0.57519999       1.53862297      -2.16699045
Si       0.40261665       2.52857071       1.43307642      -0.57519999      -1.53862297      -2.16699044
Si       0.40261665       5.38687929       9.08624358      -0.57519999       1.53862297       2.16699044
Si       3.72879335       1.42915429       6.69273642       0.57519999       1.53862297      -2.16699045
Si       3.72879335       6.48629571       3.82658358       0.57519999      -1.53862297       2.16699045
Si       1.82073222       3.95772500      -0.00000000       0.21624459       0.00000000      -0.00000000
Si       2.31067778      -0.00000000       5.25966000      -0.21624459       0.00000000      -0.00000000
18
Lattice="4.153460123351732 -2.4794903414042535e-16 -2.5256938191720065e-16 5.01474152505469e-16 7.990160761542352 2.7841864826626655e-17 6.494112224253126e-16 3.700073723010428e-17 10.532642469744921" Properties=species:S:1:pos:R:3:forces:R:3 unique_starting_index=294 config_type=initial n_minim_iter=2 energy=-2914.058895506286 stress="-0.1361848546213644 -0.23954969585566083 -0.026788268229338566 5.293479709859292e-12 -1.3011174869608876e-12 -5.845820308289291e-12" pbc="T T T"
Si       2.46656380       4.92905093       8.42730153       0.43854007       8.58690436      -1.32666919
Si       2.46656380       3.06110983       2.10534094       0.43854007      -8.58690436       1.32666919
Si       1.68689633       7.05619021       3.16098029      -0.43854007      -8.58690436      -1.32666919
Si       1.68689633       0.93397055       7.37166218      -0.43854007       8.58690436       1.32666919
Si       1.68689633       7.05619021       7.37166218      -0.43854007      -8.58690436       1.32666919
Si       1.68689633       0.93397055       3.16098029      -0.43854007       8.58690436      -1.32666919
Si       2.46656380       4.92905093       2.10534094       0.43854007       8.58690436       1.32666919
Si       2.46656380       3.06110983       8.42730153       0.43854007      -8.58690436      -1.32666919
Si       3.74875246       1.44279882       3.83164683       0.54725076       1.43231111       2.06250109
Si       3.74875246       6.54736194       6.70099564       0.54725076      -1.43231111      -2.06250109
Si       0.40470766       2.55228156       9.09796807      -0.54725076      -1.43231111       2.06250109
Si       0.40470766       5.43787920       1.43467440      -0.54725076       1.43231111      -2.06250109
Si       0.40470766       2.55228156       1.43467440      -0.54725076      -1.43231111      -2.06250109
Si       0.40470766       5.43787920       9.09796807      -0.54725076       1.43231111       2.06250109
Si       3.74875246       1.44279882       6.70099564       0.54725076       1.43231111      -2.06250109
Si       3.74875246       6.54736194       3.83164683       0.54725076      -1.43231111       2.06250109
Si       1.83047156       3.99508038      -0.00000000       0.16440201       0.00000000       0.00000000
Si       2.32298857      -0.00000000       5.26632123      -0.16440201      -0.00000000      -0.00000000
18
Lattice="4.3352434594962075 -2.061030839652337e-16 -2.5194598538813624e-16 6.41282439174623e-16 8.615471557125204 8.444234809100788e-17 6.847975776436085e-16 1.14413479194282e-16 10.621766178163844" Properties=species:S:1:pos:R:3:forces:R:3 unique_starting_index=294 config_type=initial n_minim_iter=3 energy=-2920.020566646071 stress="-0.05549330687238837 -0.09642723453592432 -0.002862133637968078 -1.5484316983109298e-12 -2.020287346976485e-12 9.482447280826029e-14" pbc="T T T"
Si       2.57493351       5.32328876       8.49740357       0.38888917       4.70098480      -1.07538450
Si       2.57493351       3.29218280       2.12436261       0.38888917      -4.70098480       1.07538450
Si       1.76030994       7.59991857       3.18652048      -0.38888917      -4.70098480      -1.07538450
Si       1.76030994       1.01555298       7.43524570      -0.38888917       4.70098480       1.07538450
Si       1.76030994       7.59991857       7.43524570      -0.38888917      -4.70098480       1.07538450
Si       1.76030994       1.01555298       3.18652048      -0.38888917       4.70098480      -1.07538450
Si       2.57493351       5.32328876       2.12436261       0.38888917       4.70098480       1.07538450
Si       2.57493351       3.29218280       8.49740357       0.38888917      -4.70098480      -1.07538450
Si       3.91334257       1.55712852       3.86594537       0.37218775       0.67426411       1.38115398
Si       3.91334257       7.05834304       6.75582081       0.37218775      -0.67426411      -1.38115398
Si       0.42190089       2.75060726       9.17682846      -0.37218775      -0.67426411       1.38115398
Si       0.42190089       5.86486429       1.44493772      -0.37218775       0.67426411      -1.38115398
Si       0.42190089       2.75060726       1.44493772      -0.37218775      -0.67426410      -1.38115398
Si       0.42190089       5.86486429       9.17682846      -0.37218775       0.67426411       1.38115398
Si       3.91334257       1.55712852       6.75582081       0.37218775       0.67426411      -1.38115398
Si       3.91334257       7.05834304       3.86594537       0.37218775      -0.67426411       1.38115398
Si       1.91074136       4.30773578      -0.00000000      -0.27122311       0.00000000      -0.00000000
Si       2.42450210      -0.00000000       5.31088309       0.27122311       0.00000000       0.00000000
18
Lattice="4.497283896965463 -2.0874453588899372e-16 -2.5879889202387623e-16 6.914359818082028e-16 9.182722298351647 3.8276120534219323e-16 6.938826831865727e-16 5.206079485449241e-16 10.64188832095009" Properties=species:S:1:pos:R:3:forces:R:3 unique_starting_index=294 config_type=initial n_minim_iter=4 energy=-2922.8752843082943 stress="-0.012975907146573937 -0.04276933265626504 0.0031106958698790504 4.9946097299395305e-12 -3.746067838670701e-13 3.070071793185136e-12" pbc="T T T"
Si       2.67191844       5.68367317       8.51167025       0.28496830       2.69575474      -0.73969514
Si       2.67191844       3.49904913       2.13021807       0.28496830      -2.69575474       0.73969514
Si       1.82536546       8.09041027       3.19072609      -0.28496830      -2.69575474      -0.73969514
Si       1.82536546       1.09231202       7.45116223      -0.28496830       2.69575474       0.73969514
Si       1.82536546       8.09041027       7.45116223      -0.28496830      -2.69575474       0.73969514
Si       1.82536546       1.09231202       3.19072609      -0.28496830       2.69575474      -0.73969514
Si       2.67191844       5.68367317       2.13021807       0.28496830       2.69575474       0.73969514
Si       2.67191844       3.49904913       8.51167025       0.28496830      -2.69575474      -0.73969514
Si       4.06032205       1.66107043       3.87562075      -0.02270420       0.31633717       0.77081463
Si       4.06032205       7.52165187       6.76626757      -0.02270420      -0.31633718      -0.77081463
Si       0.43696185       2.93029072       9.19656491       0.02270420      -0.31633718       0.77081463
Si       0.43696185       6.25243158       1.44532341       0.02270420       0.31633718      -0.77081463
Si       0.43696185       2.93029072       1.44532341       0.02270420      -0.31633718      -0.77081463
Si       0.43696185       6.25243158       9.19656491       0.02270420       0.31633718       0.77081463
Si       4.06032205       1.66107043       6.76626757      -0.02270420       0.31633718      -0.77081463
Si       4.06032205       7.52165187       3.87562075      -0.02270420      -0.31633718       0.77081463
Si       1.98164365       4.59136115      -0.00000000      -0.85928236       0.00000000       0.00000000
Si       2.51564025       0.00000000       5.32094416       0.85928236       0.00000000      -0.00000000
18
Lattice="4.572309895048721 -3.1510779184736286e-16 -2.673595608652349e-16 5.362395432285919e-16 9.697388351671103 5.889410780983936e-16 6.813158913609458e-16 8.483067641976955e-16 10.599763178230871" Properties=species:S:1:pos:R:3:forces:R:3 unique_starting_index=294 config_type=initial n_minim_iter=5 energy=-2923.447705343853 stress="0.02607066868461001 0.0035501613335300634 0.023435575636264448 -9.756780942028465e-12 -2.8341355808616193e-12 7.481640166730253e-13" pbc="T T T"
Si       2.71748878       6.01334306       8.47578977       0.21603793       1.11813287      -0.29186043
Si       2.71748878       3.68404529       2.12397341       0.21603793      -1.11813287       0.29186043
Si       1.85482111       8.53273947       3.17590818      -0.21603793      -1.11813287      -0.29186043
Si       1.85482111       1.16464888       7.42385500      -0.21603793       1.11813288       0.29186043
Si       1.85482111       8.53273947       7.42385500      -0.21603793      -1.11813287       0.29186043
Si       1.85482111       1.16464888       3.17590818      -0.21603793       1.11813287      -0.29186043
Si       2.71748878       6.01334306       2.12397341       0.21603793       1.11813287       0.29186043
Si       2.71748878       3.68404529       8.47578977       0.21603793      -1.11813287      -0.29186043
Si       4.12797907       1.75547321       3.86255907      -0.28604165       0.14876289       0.50552109
Si       4.12797907       7.94191514       6.73720411      -0.28604165      -0.14876289      -0.50552109
Si       0.44433083       3.09322096       9.16244066       0.28604165      -0.14876288       0.50552109
Si       0.44433083       6.60416739       1.43732252       0.28604165       0.14876288      -0.50552109
Si       0.44433083       3.09322096       1.43732252       0.28604165      -0.14876288      -0.50552109
Si       0.44433083       6.60416739       9.16244066       0.28604165       0.14876288       0.50552109
Si       4.12797907       1.75547321       6.73720411      -0.28604165       0.14876288      -0.50552109
Si       4.12797907       7.94191514       3.86255907      -0.28604165      -0.14876289       0.50552109
Si       2.01169906       4.84869418      -0.00000000      -1.13966708      -0.00000000      -0.00000000
Si       2.56061083       0.00000000       5.29988159       1.13966708       0.00000000       0.00000000
18
Lattice="4.474926601178996 -5.042479999284703e-16 -2.8682674473588835e-16 1.6863409873856698e-16 9.669000694585577 6.17600050850501e-16 6.041009309605318e-16 8.974663555260736e-16 10.396602655186884" Properties=species:S:1:pos:R:3:forces:R:3 unique_starting_index=294 config_type=initial n_minim_iter=6 energy=-2923.7144724079 stress="-0.00513040461632983 -0.009928809436253055 0.010293405755678805 1.9528515582782073e-12 2.4144871491789357e-12 1.1394900319549502e-12" pbc="T T T"
Si       2.66006540       5.99867995       8.31282772       0.22498400       0.87694835      -0.48615902
Si       2.66006540       3.67032075       2.08377494       0.22498400      -0.87694835       0.48615902
Si       1.81486120       8.50482109       3.11452639      -0.22498400      -0.87694835      -0.48615902
Si       1.81486120       1.16417960       7.28207626      -0.22498400       0.87694835       0.48615902
Si       1.81486120       8.50482109       7.28207626      -0.22498400      -0.87694835       0.48615902
Si       1.81486120       1.16417960       3.11452639      -0.22498400       0.87694835      -0.48615902
Si       2.66006540       5.99867995       2.08377494       0.22498400       0.87694835       0.48615902
Si       2.66006540       3.67032075       8.31282772       0.22498400      -0.87694835      -0.48615902
Si       4.03945689       1.75072549       3.78941183      -0.13574085       0.26641103       0.77513284
Si       4.03945689       7.91827521       6.60719082      -0.13574085      -0.26641103      -0.77513284
Si       0.43546972       3.08377486       8.98771316       0.13574085      -0.26641102       0.77513284
Si       0.43546972       6.58522583       1.40888949       0.13574085       0.26641102      -0.77513284
Si       0.43546972       3.08377486       1.40888949       0.13574085      -0.26641102      -0.77513284
Si       0.43546972       6.58522583       8.98771316       0.13574085       0.26641102       0.77513284
Si       4.03945689       1.75072549       6.60719082      -0.13574085       0.26641102      -0.77513284
Si       4.03945689       7.91827521       3.78941183      -0.13574085      -0.26641103       0.77513284
Si       1.96645253       4.83450035      -0.00000000      -0.82094430      -0.00000000       0.00000000
Si       2.50847407       0.00000000       5.19830133       0.82094430       0.00000000       0.00000000
18
Lattice="4.491198168446248 -5.714977507700294e-16 -3.0170537718596347e-16 4.769212745066244e-17 9.73715737362758 5.2686566015522575e-16 5.641160438764786e-16 7.923113191412606e-16 10.321167523741444" Properties=species:S:1:pos:R:3:forces:R:3 unique_starting_index=294 config_type=initial n_minim_iter=7 energy=-2923.8082954024203 stress="-0.0006821871159980325 -0.006107644572643002 0.011735344830787212 8.28303937834445e-12 -8.379644832157334e-14 -1.1877980126142136e-12" pbc="T T T"
Si       2.67015446       6.04303701       8.25177051       0.21586559       0.71121397      -0.39350738
Si       2.67015446       3.69412036       2.06939701       0.21586560      -0.71121397       0.39350738
Si       1.82104371       8.56269905       3.09118675      -0.21586560      -0.71121397      -0.39350738
Si       1.82104371       1.17445833       7.22998078      -0.21586560       0.71121397       0.39350738
Si       1.82104371       8.56269905       7.22998078      -0.21586560      -0.71121396       0.39350738
Si       1.82104371       1.17445833       3.09118675      -0.21586559       0.71121397      -0.39350738
Si       2.67015446       6.04303701       2.06939701       0.21586559       0.71121397       0.39350738
Si       2.67015446       3.69412036       8.25177051       0.21586560      -0.71121397      -0.39350738
Si       4.05389365       1.76369592       3.76309895      -0.12840574       0.20063431       0.76256392
Si       4.05389365       7.97346145       6.55806858      -0.12840574      -0.20063431      -0.76256393
Si       0.43730452       3.10488276       8.92368271       0.12840574      -0.20063431       0.76256393
Si       0.43730452       6.63227461       1.39748481       0.12840574       0.20063431      -0.76256392
Si       0.43730452       3.10488276       1.39748481       0.12840574      -0.20063431      -0.76256392
Si       0.43730452       6.63227461       8.92368271       0.12840574       0.20063431       0.76256392
Si       4.05389365       1.76369592       6.55806858      -0.12840574       0.20063431      -0.76256392
Si       4.05389365       7.97346145       3.76309895      -0.12840574      -0.20063431       0.76256392
Si       1.97208264       4.86857869      -0.00000000      -0.81412879       0.00000000      -0.00000000
Si       2.51911552       0.00000000       5.16058376       0.81412879      -0.00000000       0.00000000
18
Lattice="4.494422443631601 -5.945902743300401e-16 -3.2511076292582784e-16 1.0778151832710273e-17 9.799921635127273 5.148978379332338e-16 4.969468077312674e-16 7.945511141876849e-16 10.19453152270776" Properties=species:S:1:pos:R:3:forces:R:3 unique_starting_index=294 config_type=initial n_minim_iter=8 energy=-2923.9218090890868 stress="0.00021382874506100055 -0.00514115509139827 0.011911657770855727 -3.122489058640161e-12 2.2667752390847527e-12 5.224162903926419e-13" pbc="T T T"
Si       2.67266638       6.08451412       8.14965297       0.21739334       0.53105069      -0.30534827
Si       2.67266638       3.71540752       2.04487855       0.21739334      -0.53105069       0.30534827
Si       1.82175606       8.61536833       3.05238721      -0.21739334      -0.53105069      -0.30534827
Si       1.82175606       1.18455330       7.14214431      -0.21739334       0.53105069       0.30534827
Si       1.82175606       8.61536833       7.14214431      -0.21739334      -0.53105069       0.30534827
Si       1.82175606       1.18455330       3.05238721      -0.21739334       0.53105069      -0.30534827
Si       2.67266638       6.08451412       2.04487855       0.21739334       0.53105069       0.30534827
Si       2.67266638       3.71540752       8.14965297       0.21739334      -0.53105069      -0.30534827
Si       4.05645005       1.77577663       3.71861744      -0.08729754       0.14692181       0.79935069
Si       4.05645005       8.02414500       6.47591409      -0.08729755      -0.14692181      -0.79935069
Si       0.43797239       3.12418418       8.81588320       0.08729754      -0.14692181       0.79935069
Si       0.43797239       6.67573745       1.37864833       0.08729755       0.14692181      -0.79935069
Si       0.43797239       3.12418418       1.37864833       0.08729755      -0.14692181      -0.79935069
Si       0.43797239       6.67573745       8.81588320       0.08729754       0.14692181       0.79935069
Si       4.05645005       1.77577663       6.47591409      -0.08729754       0.14692181      -0.79935069
Si       4.05645005       8.02414500       3.71861744      -0.08729755      -0.14692181       0.79935069
Si       1.97125444       4.89996082      -0.00000000      -0.76351446       0.00000000       0.00000000
Si       2.52316801       0.00000000       5.09726576       0.76351447       0.00000000       0.00000000
18
Lattice="4.490961377875204 -6.104817270377994e-16 -3.8687962208770895e-16 1.810469668164022e-18 9.983131458984474 2.7232642019911903e-16 3.0997103104063276e-16 5.275455495130716e-16 9.766287731743333" Properties=species:S:1:pos:R:3:forces:R:3 unique_starting_index=294 config_type=initial n_minim_iter=9 energy=-2924.2606323618397 stress="7.044407637176604e-05 -0.0061923552718423786 0.007804689976523192 1.8123957612399903e-12 -8.251049835444333e-13 6.342769989719244e-13" pbc="T T T"
Si       2.67267092       6.20491775       7.80510442       0.26428152       0.15251208      -0.29361048
Si       2.67267092       3.77821371       1.96118331       0.26428152      -0.15251208       0.29361048
Si       1.81829046       8.76977944       2.92196055      -0.26428152      -0.15251208      -0.29361048
Si       1.81829046       1.21335202       6.84432718      -0.26428152       0.15251208       0.29361048
Si       1.81829046       8.76977944       6.84432718      -0.26428152      -0.15251208       0.29361048
Si       1.81829046       1.21335202       2.92196055      -0.26428152       0.15251208      -0.29361048
Si       2.67267092       6.20491775       1.96118331       0.26428153       0.15251208       0.29361048
Si       2.67267092       3.77821371       7.80510442       0.26428153      -0.15251208      -0.29361048
Si       4.05249795       1.81081559       3.56817945       0.03634021       0.02299492       0.90475198
Si       4.05249795       8.17231587       6.19810828       0.03634021      -0.02299492      -0.90475198
Si       0.43846343       3.18075014       8.45132332      -0.03634021      -0.02299492       0.90475198
Si       0.43846343       6.80238132       1.31496441      -0.03634021       0.02299492      -0.90475198
Si       0.43846343       3.18075014       1.31496441      -0.03634021      -0.02299492      -0.90475198
Si       0.43846343       6.80238132       8.45132332      -0.03634021       0.02299492       0.90475198
Si       4.05249795       1.81081559       6.19810828       0.03634021       0.02299492      -0.90475198
Si       4.05249795       8.17231587       3.56817945       0.03634021      -0.02299492       0.90475198
Si       1.96249193       4.99156573      -0.00000000      -0.64122135      -0.00000000       0.00000000
Si       2.52846945      -0.00000000       4.88314387       0.64122135      -0.00000000      -0.00000000
18
Lattice="4.488767277607367 -6.383130929278837e-16 -4.549111456829086e-16 -9.183995905265989e-20 10.421321837645399 4.821584835022689e-16 9.250739087141212e-17 8.506079086742461e-16 9.251580574819318" Properties=species:S:1:pos:R:3:forces:R:3 unique_starting_index=294 config_type=initial n_minim_iter=10 energy=-2924.459749175541 stress="0.001327894821079873 -0.006829299417299201 -0.01109985712844595 -1.3847631335023969e-12 -1.3571252890820078e-12 1.412010351074356e-12" pbc="T T T"
Si       2.67631031       6.48128292       7.38995814       0.25632574      -0.21344022      -0.51700496
Si       2.67631031       3.94003891       1.86162244       0.25632574       0.21344022       0.51700496
Si       1.81245697       9.15069983       2.76416785      -0.25632574       0.21344021      -0.51700496
Si       1.81245697       1.27062201       6.48741272      -0.25632574      -0.21344022       0.51700496
Si       1.81245697       9.15069983       6.48741272      -0.25632574       0.21344022       0.51700496
Si       1.81245697       1.27062201       2.76416785      -0.25632574      -0.21344022      -0.51700496
Si       2.67631031       6.48128292       1.86162244       0.25632574      -0.21344022       0.51700496
Si       2.67631031       3.94003891       7.38995814       0.25632574       0.21344021      -0.51700496
Si       4.05119805       1.89090281       3.39183193       0.09213770      -0.06130173       0.50323597
Si       4.05119805       8.53041903       5.85974864       0.09213770       0.06130173      -0.50323597
Si       0.43756922       3.31975811       8.01762222      -0.09213770       0.06130173       0.50323597
Si       0.43756922       7.10156373       1.23395835      -0.09213770      -0.06130173      -0.50323597
Si       0.43756922       3.31975811       1.23395835      -0.09213770       0.06130173      -0.50323597
Si       0.43756922       7.10156373       8.01762222      -0.09213770      -0.06130173       0.50323597
Si       4.05119805       1.89090281       5.85974864       0.09213769      -0.06130173      -0.50323597
Si       4.05119805       8.53041903       3.39183193       0.09213770       0.06130173       0.50323597
Si       1.94953481       5.21066092      -0.00000000      -0.66923764       0.00000000       0.00000000
Si       2.53923247       0.00000000       4.62579029       0.66923764      -0.00000000       0.00000000
18
Lattice="4.471396805201181 -6.510878693181572e-16 -4.817594843978755e-16 6.143546551401848e-20 10.631215216030308 6.664904943273078e-16 5.949558605128891e-17 1.0853535381375441e-15 9.556336822769959" Properties=species:S:1:pos:R:3:forces:R:3 unique_starting_index=294 config_type=initial n_minim_iter=11 energy=-2924.478796898475 stress="0.011791930907270636 0.008920741502245122 0.012508180238405065 -3.096391259387247e-12 1.5269748520091524e-13 1.5461924585594607e-12" pbc="T T T"
Si       2.66798721       6.60927451       7.63060378       0.19205856      -0.35267391      -0.19960873
Si       2.66798721       4.02194071       1.92573304       0.19205856       0.35267391       0.19960873
Si       1.80340960       9.33754832       2.85243537      -0.19205856       0.35267391      -0.19960873
Si       1.80340960       1.29366690       6.70390145      -0.19205856      -0.35267391       0.19960873
Si       1.80340960       9.33754832       6.70390145      -0.19205856       0.35267391       0.19960873
Si       1.80340960       1.29366690       2.85243537      -0.19205856      -0.35267391      -0.19960873
Si       2.66798721       6.60927451       1.92573304       0.19205856      -0.35267391       0.19960873
Si       2.66798721       4.02194071       7.63060378       0.19205856       0.35267391      -0.19960873
Si       4.03625185       1.92825569       3.50627494      -0.09389489       0.06476469       0.64761840
Si       4.03625185       8.70295953       6.05006189      -0.09389489      -0.06476469      -0.64761840
Si       0.43514495       3.38735192       8.28444335       0.09389489      -0.06476469       0.64761840
Si       0.43514495       7.24386329       1.27189348       0.09389489       0.06476469      -0.64761840
Si       0.43514495       3.38735192       1.27189348       0.09389489      -0.06476469      -0.64761840
Si       0.43514495       7.24386329       8.28444335       0.09389489       0.06476469       0.64761840
Si       4.03625185       1.92825569       6.05006189      -0.09389489       0.06476469      -0.64761840
Si       4.03625185       8.70295953       3.50627494      -0.09389489      -0.06476469       0.64761840
Si       1.93668110       5.31560761      -0.00000000      -0.55236124       0.00000000       0.00000000
Si       2.53471571       0.00000000       4.77816841       0.55236124      -0.00000000       0.00000000
18
Lattice="4.411085522303104 -6.444964271470654e-16 -4.869350486035055e-16 -6.026621937202832e-20 10.522554921244156 9.217013771329603e-16 2.800019291086982e-17 1.4272720478025751e-15 9.419665527821076" Properties=species:S:1:pos:R:3:forces:R:3 unique_starting_index=294 config_type=initial n_minim_iter=12 energy=-2924.583181643319 stress="4.683134125064717e-05 -0.0012790938182967403 -0.0021213849004251654 -2.2094022987164921e-13 -1.0511961954672979e-12 3.798797510852057e-13" pbc="T T T"
Si       2.63256338       6.54012562       7.52106198       0.26564923      -0.36789320      -0.47653948
Si       2.63256338       3.98242930       1.89860355       0.26564923       0.36789320       0.47653948
Si       1.77852214       9.24370677       2.81122921      -0.26564923       0.36789320      -0.47653948
Si       1.77852214       1.27884816       6.60843631      -0.26564923      -0.36789320       0.47653948
Si       1.77852214       9.24370677       6.60843631      -0.26564923       0.36789320       0.47653948
Si       1.77852214       1.27884816       2.81122921      -0.26564923      -0.36789320      -0.47653948
Si       2.63256338       6.54012562       1.89860355       0.26564923      -0.36789320       0.47653948
Si       2.63256338       3.98242930       7.52106198       0.26564923       0.36789320      -0.47653948
Si       3.98153485       1.90884038       3.45746503      -0.02160776       0.08967428       0.71598403
Si       3.98153485       8.61371454       5.96220050      -0.02160776      -0.08967428      -0.71598403
Si       0.42955067       3.35243708       8.16729779       0.02160776      -0.08967428       0.71598403
Si       0.42955067       7.17011784       1.25236773       0.02160776       0.08967428      -0.71598403
Si       0.42955067       3.35243708       1.25236773       0.02160776      -0.08967428      -0.71598403
Si       0.42955067       7.17011784       8.16729779       0.02160776       0.08967428       0.71598403
Si       3.98153485       1.90884038       5.96220050      -0.02160776       0.08967428      -0.71598403
Si       3.98153485       8.61371454       3.45746503      -0.02160776      -0.08967428       0.71598403
Si       1.90894055       5.26127746      -0.00000000      -0.61079737      -0.00000000      -0.00000000
Si       2.50214498       0.00000000       4.70983276       0.61079737       0.00000000      -0.00000000
