22
Lattice="5.151192952228874 -0.5878655055637999 1.0917740811465262 -2.3783989946024 9.439898113878254 -0.9596684411968006 0.31223439235982764 -2.750543024050846 8.55832221905588" Properties=species:S:1:pos:R:3:forces:R:3 unique_starting_index=18 config_type=initial n_minim_iter=1 energy=-3580.2608604770844 stress="0.0010398942803670661 0.0008719413617543055 -0.0017482497853171645 0.0008719413617543055 -0.0017000975270453813 -0.0004815156909313046 -0.0017482497853171645 -0.0004815156909313046 0.0013981410340310576" free_energy=-3580.2608604770844 pbc="T T T"
Si       1.42453651       8.34052961       1.62043007      -0.30636299      -0.10432109      -0.15630620
Si       2.09873465       0.36041394       5.84317586      -0.39464513       0.04952411      -0.13497658
Si      -0.47360840      -2.44127173       7.75517162       0.10214139      -0.09008964       0.07278933
Si       5.22103078      -0.74439282       9.38182205      -0.01466482      -0.06631459      -0.33137685
Si      -0.94782728       1.73328369       7.15674431      -0.05410180      -0.53591373      -0.09586001
Si       4.35377188       2.24688937       3.05840714      -0.18430091      -0.01210624       0.28754012
Si       2.32024066       1.07008171       1.70648426       0.03615889       0.04075076       0.68377304
Si       2.17603932       2.34632622       7.39379904       0.02320457      -0.04919918      -0.09643162
Si       1.77048417      -3.08298542       8.41842237      -0.01850986      -0.00797643      -0.14608019
Si       0.39115516       2.18951392       5.10039834       0.00821834       0.08119525       0.50754958
Si       4.11513568       0.38487613       4.61555058      -0.30457184      -0.06226052      -0.37111689
Si      -0.02120478       5.81571935       4.53146915       0.19108736      -0.03921417       0.15443197
Si       0.29653232      -0.65136214       4.60610275       0.56776553      -0.27837556      -0.12024159
Si      -1.14812318       6.46833872       0.05175667      -0.06864834       0.03392543      -0.12336141
Si       3.40150450       3.59644773       5.81558937      -0.04304452       0.17622187      -0.11050489
Si       1.50956663       6.00484704       1.02200346       0.04490502      -0.03521562       0.01169102
Si       1.25533536      -1.03592635       2.44686164       0.37284484       0.39516446       0.17287716
Si       5.03302867      -3.45657381       6.48523168      -0.14069902      -0.24235939       0.20127303
Si       2.23648725       3.09452628       3.74762094       0.20630180      -0.48928260       0.10148882
Si       0.52006662       4.46045622       6.57838520       0.00830022      -0.05743244      -0.15425488
Si       0.74202021       4.48885415       2.68475258       0.01663760       0.66036870      -0.17837899
Si       2.40646696      -0.71580366       8.05352805      -0.04801630       0.63291063      -0.17452397
22
Lattice="5.134957236021366 -0.6159018354477266 1.13207179453516 -2.4203996258909313 9.540073624394852 -0.9500276621005188 0.4076714899058266 -2.7555642981321133 8.48720847770728" Properties=species:S:1:pos:R:3:forces:R:3 unique_starting_index=18 config_type=initial n_minim_iter=2 energy=-3580.2910102136284 stress="-0.0034359093550424945 -0.0010402333918273048 0.004863416956678782 -0.0010402333918273048 0.0018786391406969462 0.001582704804815039 0.004863416956678782 0.001582704804815039 -0.004455413697182265" free_energy=-3580.2910102136284 pbc="T T T"
Si       1.38680946       8.41687633       1.64192777      -0.27904111      -0.26585261      -0.13468617
Si       2.13636089       0.37005533       5.81713278      -0.54383739       0.11627726      -0.05153058
Si      -0.38153419      -2.44291561       7.68451005       0.10285275       0.03450540       0.13889599
Si       5.28601703      -0.75292328       9.35301197      -0.08407119      -0.10905833      -0.48647688
Si      -0.88158278       1.76620799       7.09492501      -0.12633733      -0.55874162       0.05482505
Si       4.34488875       2.25526618       3.08724632      -0.06138632       0.02629835       0.38383796
Si       2.31886082       1.07421536       1.72845364       0.03694035       0.11083793       0.58628979
Si       2.22458039       2.37747246       7.36236594      -0.04541309      -0.22041434      -0.00155100
Si       1.85746536      -3.09887386       8.35969814       0.01656312       0.11728612      -0.15042420
Si       0.42821857       2.22364369       5.07753416      -0.03294772      -0.01810193       0.42546812
Si       4.13021821       0.37991399       4.61553864       0.03492290      -0.14892397      -0.37476679
Si      -0.00257884       5.88356511       4.51379069       0.17814771       0.02303815       0.17476146
Si       0.35114767      -0.65075735       4.56968328       0.28165085      -0.14890518       0.01945019
Si      -1.17374379       6.53701431       0.05578421      -0.12910554       0.00234893      -0.05111813
Si       3.42041438       3.63264006       5.81162374       0.01627615       0.30763806      -0.25557060
Si       1.48197444       6.05760816       1.04514356       0.09157230       0.18177987      -0.01851708
Si       1.28239210      -1.03981756       2.43978398       0.43631485       0.24700142      -0.04329948
Si       5.08238365      -3.50065905       6.47739848      -0.04043825      -0.26124553       0.11967805
Si       2.24798917       3.11642128       3.75005100       0.03911820      -0.21519924      -0.02426554
Si       0.55960675       4.51781847       6.54198330       0.02817191       0.00725500      -0.18359691
Si       0.74210727       4.54526517       2.68065844       0.10962928       0.28138731      -0.00696887
Si       2.47410159      -0.70371563       8.00986530      -0.02958242       0.49078893      -0.12043442
22
Lattice="5.160129748185469 -0.6378026134641742 1.1111091819587746 -2.456493660551552 9.60981870253171 -0.9679491082450679 0.3673707467296562 -2.7967711809197433 8.55321733772028" Properties=species:S:1:pos:R:3:forces:R:3 unique_starting_index=18 config_type=initial n_minim_iter=3 energy=-3580.3594099983857 stress="0.005105062662544072 -0.002183146145141669 0.0011716105442302006 -0.002183146145141669 0.012013548475921414 -0.0001956446391768321 0.0011716105442302006 -0.0001956446391768321 0.00789625803769714" free_energy=-3580.3594099983857 pbc="T T T"
Si       1.35138723       8.45640999       1.61803907      -0.25323248      -0.22324251      -0.18731222
Si       2.09889279       0.35311688       5.84167673      -0.21995464       0.12777399      -0.06745582
Si      -0.41927923      -2.47929106       7.75168086       0.10854939       0.03562455       0.14544067
Si       5.26212566      -0.80069573       9.37843210      -0.10727427      -0.12739675      -0.13366267
Si      -0.93653483       1.74330701       7.14502822      -0.14424770      -0.44927682       0.05682724
Si       4.34097715       2.24863640       3.08754399       0.01489188      -0.00469794       0.05862844
Si       2.32034027       1.07171020       1.74486599      -0.01048561       0.10458843       0.34613689
Si       2.18687271       2.36282892       7.39356259       0.07022501      -0.11372174      -0.08393707
Si       1.82716545      -3.14501994       8.41233156       0.10838706       0.16922073      -0.11733292
Si       0.39392267       2.22442792       5.12081962       0.01079211      -0.00153444       0.40300794
Si       4.11968921       0.35498135       4.61110295      -0.04627366      -0.19228830      -0.13402857
Si      -0.04052725       5.90797809       4.53567946       0.17521234      -0.07305249       0.14146624
Si       0.34292317      -0.67584914       4.59994636       0.08013223      -0.20166495      -0.16503624
Si      -1.20270772       6.58228740       0.04250256      -0.10998622       0.08257065      -0.16139436
Si       3.39446485       3.63723223       5.81814529      -0.06538695       0.24928773      -0.08138836
Si       1.46885397       6.08990619       1.02761254       0.14437922       0.11053853      -0.05202033
Si       1.29084197      -1.04551539       2.45574580       0.40357784       0.17958375      -0.05086537
Si       5.08037347      -3.56292392       6.50845814      -0.00675199      -0.19051534       0.17365535
Si       2.23471433       3.10654402       3.75711387      -0.19278691      -0.08043047      -0.14008695
Si       0.51124752       4.52604232       6.56836044      -0.09016402       0.11191848      -0.07392750
Si       0.71869961       4.58190700       2.67948328       0.23528877       0.12247421       0.10168905
Si       2.44131711      -0.71769440       8.04958435      -0.10489140       0.36424072       0.02159655
22
Lattice="5.1439198891221 -0.6328458139210065 1.0627373669569662 -2.443248484753157 9.499330565871153 -0.969244725265951 0.2908429314638877 -2.787679860640943 8.522878891937797" Properties=species:S:1:pos:R:3:forces:R:3 unique_starting_index=18 config_type=initial n_minim_iter=4 energy=-3580.44377229947 stress="-0.0030612392184586248 -0.0023141365932024855 -0.003775351744899765 -0.0023141365932024855 -0.00032157269934312064 -0.0013230741278064753 -0.003775351744899765 -0.0013230741278064753 0.0019383971763588482" free_energy=-3580.44377229947 pbc="T T T"
Si       1.32503639       8.34596193       1.56955371      -0.17959483      -0.10721538      -0.16650950
Si       2.02743172       0.33633066       5.79407240       0.21502051       0.15977466      -0.12801174
Si      -0.48348583      -2.47347299       7.73475150       0.01801591      -0.10169019       0.10768397
Si       5.17092222      -0.82031876       9.28119683      -0.03047588      -0.07688218       0.18420283
Si      -1.00146570       1.68073753       7.11782833      -0.13159833      -0.24316849       0.01845257
Si       4.30356768       2.21412585       3.04227303       0.15226268      -0.02250949      -0.23073542
Si       2.30351332       1.05728338       1.73954981      -0.08519271       0.30280253       0.26161703
Si       2.11963867       2.31024932       7.33468557       0.10573499       0.06792201      -0.16084540
Si       1.75020671      -3.12930461       8.36474473       0.18579585       0.15739785      -0.10148377
Si       0.34836942       2.18580792       5.10943196       0.01702416       0.05501114       0.37830775
Si       4.06683775       0.33429351       4.54065106      -0.16099754      -0.27024839       0.10234662
Si      -0.07191345       5.82486929       4.50741693       0.27654269       0.09434641       0.12766465
Si       0.31959871      -0.69039875       4.57664044      -0.16001865      -0.28521452      -0.32695943
Si      -1.20417991       6.50594644       0.03020327      -0.04746747       0.07190030      -0.14561589
Si       3.33835228       3.58794472       5.74796535      -0.07044078       0.10228326       0.16761265
Si       1.46184625       6.01750080       0.99319019       0.11273567       0.01810533      -0.16155583
Si       1.28341361      -1.02648851       2.44067812       0.29731856       0.09053456      -0.00381585
Si       5.01214373      -3.54868183       6.45407289      -0.12981098      -0.13106403       0.07171599
Si       2.20425044       3.04465164       3.71493269      -0.45710488      -0.04631584      -0.29581720
Si       0.45359081       4.45376757       6.51797571      -0.05449139       0.01073294       0.00799320
Si       0.69750527       4.54102681       2.64523445       0.24461886      -0.00688516       0.18308471
Si       2.36491725      -0.70805100       7.99141582      -0.11787644       0.16038269       0.11066806
22
Lattice="5.205400792298677 -0.587995961131302 1.0766295138221043 -2.401744764437496 9.43062966426034 -0.9604155124691821 0.30486789436441475 -2.7585100926667625 8.485903368853549" Properties=species:S:1:pos:R:3:forces:R:3 unique_starting_index=18 config_type=initial n_minim_iter=5 energy=-3580.4825568778733 stress="0.0032502378013209337 0.0014270127855938325 -0.0014123170874546327 0.0014270127855938325 -0.0017264079136766089 -0.00016765525508521319 -0.0014123170874546327 -0.00016765525508521319 0.0003519712583267945" free_energy=-3580.4825568778733 pbc="T T T"
Si       1.40467986       8.31145571       1.57581199      -0.26604102       0.00835533      -0.14204363
Si       2.06839701       0.36220605       5.77570976       0.19163747       0.09814268      -0.27172587
Si      -0.47685345      -2.45471658       7.70168059       0.13336698      -0.03724338       0.17362989
Si       5.26119202      -0.76461563       9.25519056       0.11183829      -0.16852274       0.26725533
Si      -0.97629192       1.66078447       7.08774737      -0.22981348      -0.08674534      -0.03895074
Si       4.38320724       2.24082135       3.05446239       0.35760457       0.18315408      -0.21184587
Si       2.34649463       1.07649193       1.75884255      -0.08731959       0.30538094       0.20481455
Si       2.19239856       2.32384362       7.31409418       0.13913535       0.10720264      -0.18266973
Si       1.78020611      -3.08484098       8.32920560       0.08433550       0.25291920      -0.05397633
Si       0.38926534       2.18636733       5.10718211       0.00569016       0.07190481       0.31125916
Si       4.13110821       0.36651417       4.53093850      -0.14898694      -0.32784270       0.23089654
Si      -0.00323890       5.80176311       4.50243328       0.10193477       0.08384097       0.19401416
Si       0.34406785      -0.68498056       4.55440896      -0.09579889      -0.18896228      -0.17736321
Si      -1.16996776       6.46477253       0.03181421      -0.13841521       0.05889573      -0.13010836
Si       3.42787604       3.61042163       5.74040740      -0.04717418       0.08929346       0.09285180
Si       1.53328389       6.00123809       1.00217836       0.25354945       0.00223899      -0.20782387
Si       1.31175249      -0.99951218       2.43591544       0.37618897       0.02541747      -0.11668572
Si       5.06640363      -3.48866189       6.44611085      -0.13081608      -0.09253825       0.02709983
Si       2.26814625       3.04338290       3.71135499      -0.50448148      -0.06037448      -0.28081756
Si       0.51874192       4.44405766       6.49674989      -0.03028914      -0.11986118      -0.00921947
Si       0.75531762       4.53829234       2.64327325       0.09404533      -0.26849065       0.14159139
Si       2.41642778      -0.65993966       7.96500730      -0.17019084       0.06383470       0.17981771
22
Lattice="5.1742056845622075 -0.5932899842518626 1.1195648992335392 -2.3948450659415146 9.476400310040736 -0.9838810400626307 0.37271889487080545 -2.774556010167229 8.498112560316729" Properties=species:S:1:pos:R:3:forces:R:3 unique_starting_index=18 config_type=initial n_minim_iter=6 energy=-3580.5486620542106 stress="-0.006840368890046418 0.002649936082226485 0.0029501726043227876 0.002649936082226485 -3.721228640094248e-05 0.0004750847054445091 0.0029501726043227876 0.0004750847054445091 0.0019449819906143923" free_energy=-3580.5486620542106 pbc="T T T"
Si       1.37735264       8.33850541       1.57139002      -0.07146901       0.00875854      -0.07896673
Si       2.08408533       0.37080521       5.78329467       0.13020331       0.05190129      -0.17037861
Si      -0.39965003      -2.47267509       7.71894234       0.04915812       0.03046400       0.12688422
Si       5.29625056      -0.78445318       9.29716476      -0.04168392      -0.10847595       0.41257866
Si      -0.92521229       1.63181053       7.08478149      -0.23275870       0.03656804       0.09997963
Si       4.38014801       2.25397158       3.09907856       0.51462657       0.09348626      -0.17010395
Si       2.34058252       1.09728563       1.82088659      -0.14803016       0.43252834      -0.04599741
Si       2.23945982       2.32857219       7.32810238       0.10855704       0.10099113      -0.12736985
Si       1.84076176      -3.09009392       8.34256021       0.23617533       0.38726137       0.03128440
Si       0.42716237       2.19926221       5.15332669      -0.00774915       0.05018628       0.12894606
Si       4.12188416       0.34562775       4.55795165       0.17280928      -0.28309596       0.17533570
Si       0.04783444       5.83053116       4.52109912       0.12996756       0.11126443       0.18260192
Si       0.39532489      -0.71096739       4.54955087      -0.36358541      -0.13054446      -0.10172828
Si      -1.17340234       6.49974623       0.00946421      -0.10795855       0.07020267      -0.12705564
Si       3.44315661       3.64092109       5.76842149      -0.05788195      -0.01222296      -0.06675406
Si       1.54009582       6.03267958       1.00493785       0.21091321      -0.01802134      -0.17341286
Si       1.35855465      -0.98689343       2.44938188       0.20165508      -0.19174016      -0.28231388
Si       5.07098583      -3.52718490       6.50478858      -0.12174358       0.06300396       0.01872736
Si       2.26373896       3.03503714       3.72161638      -0.48401615       0.13357526      -0.21460802
Si       0.56460974       4.45823475       6.49748438      -0.06065852      -0.14416593       0.02005230
Si       0.77914787       4.57462012       2.65278772       0.07065476      -0.42785264       0.16610916
Si       2.45369008      -0.63320966       7.99228740      -0.12718516      -0.25407218       0.19618988
22
Lattice="5.240619309903946 -0.6570153172539933 1.1096250776843721 -2.535060904060338 9.534273453246508 -0.9780917066235837 0.41610030082277305 -2.791269921831447 8.386052900391533" Properties=species:S:1:pos:R:3:forces:R:3 unique_starting_index=18 config_type=initial n_minim_iter=7 energy=-3580.6160275305665 stress="-0.002838871555546522 -0.0028344189310127374 0.0039468553198293245 -0.0028344189310127374 0.0005153249481510756 0.0013211877708516765 0.0039468553198293245 0.0013211877708516765 -0.004241140233309499" free_energy=-3580.6160275305665 pbc="T T T"
Si       1.27210275       8.33840475       1.53400405      -0.07377756      -0.09347853      -0.02771535
Si       2.09705609       0.35361430       5.69294627       0.20777803       0.09386569      -0.15860231
Si      -0.36000757      -2.48225262       7.62809132       0.19447208       0.00229597       0.16551033
Si       5.37251079      -0.86444105       9.17482091       0.08673770      -0.00122166       0.25138992
Si      -0.96369671       1.61619889       6.98716931      -0.20791564       0.08666250       0.30802321
Si       4.41700649       2.21327107       3.06358141       0.23047944       0.08585725       0.05225869
Si       2.35200098       1.09150491       1.83205695      -0.16426210       0.65771592      -0.07617456
Si       2.24873076       2.30501141       7.22036965       0.09335005       0.03098034      -0.15266001
Si       1.91124491      -3.11003527       8.22564042       0.16613500       0.39371251      -0.07834728
Si       0.40989107       2.20312273       5.11695790       0.09462532       0.05379709       0.10353184
Si       4.15719636       0.27606561       4.49442635       0.25544476      -0.25068796       0.20472958
Si      -0.00183163       5.84926655       4.47263831       0.08268844       0.17048173       0.12851482
Si       0.42169382      -0.73942189       4.47723726      -0.61498805      -0.06349524      -0.04582154
Si      -1.27369683       6.53800541      -0.00586340      -0.21197126       0.01878298      -0.09017978
Si       3.43923768       3.62266197       5.68885222      -0.01693299       0.14771649      -0.21369727
Si       1.50031701       6.03531348       0.98044890       0.33601725       0.03115621      -0.11371541
Si       1.42095934      -0.99377177       2.41563880       0.22954426      -0.41361539      -0.41335293
Si       5.16502215      -3.61527335       6.43287924      -0.09435104      -0.08639399      -0.05734227
Si       2.23648982       3.00017894       3.66043761      -0.26559817       0.12869332      -0.37174332
Si       0.52112973       4.45704737       6.40171992      -0.12324252      -0.00451039       0.12512258
Si       0.74503238       4.58656186       2.61933217       0.13188551      -0.54994698       0.24058568
Si       2.48503985      -0.64222623       7.88974598      -0.33611850      -0.43836785       0.21968535
22
Lattice="5.3047954799201795 -0.6469707203377089 1.0557927006582255 -2.528127369329997 9.576978497330355 -0.9934488089845509 0.337623022202229 -2.8461474564309737 8.29783508712736" Properties=species:S:1:pos:R:3:forces:R:3 unique_starting_index=18 config_type=initial n_minim_iter=8 energy=-3580.745090620195 stress="0.0005209867008386016 0.0020125566473646194 -0.001015777601499867 0.0020125566473646194 0.005615107514836044 -0.002081073951051313 -0.001015777601499867 -0.002081073951051313 -0.004266483103893712" free_energy=-3580.745090620195 pbc="T T T"
Si       1.26683673       8.36275301       1.44081171       0.22826697      -0.08066163       0.00683670
Si       2.08020845       0.35199121       5.57491572       0.07385626      -0.13440798      -0.12300436
Si      -0.42013524      -2.54116681       7.57843754       0.24379479       0.07534972       0.18469063
Si       5.37214481      -0.91512576       9.04055074       0.12571722       0.08729305       0.00458064
Si      -1.06609457       1.54745777       6.91157535      -0.04510048       0.18008814       0.31509928
Si       4.49732194       2.23897223       2.97577575      -0.13501602      -0.12432974       0.53056547
Si       2.35991631       1.15254144       1.83235877      -0.25183676       0.50024666      -0.10273435
Si       2.24280021       2.29251755       7.08044130       0.12535588       0.09766141      -0.36762102
Si       1.87365475      -3.11986172       8.11325714       0.17583391       0.27504285      -0.13568724
Si       0.38205211       2.19945601       5.09880750       0.14782167       0.08576657       0.12636483
Si       4.16717446       0.22499141       4.41131493       0.27345728      -0.00984069       0.02320551
Si       0.00830541       5.86725107       4.41941101      -0.01838642       0.10242161      -0.00580356
Si       0.37534844      -0.79929247       4.39967887      -0.31695658      -0.06429757      -0.08832007
Si      -1.29166642       6.57500901      -0.04960162      -0.11483588      -0.04510061      -0.11333448
Si       3.44403349       3.64885726       5.56832869       0.05865156       0.08088287      -0.28684623
Si       1.57256856       6.06880255       0.90404346       0.16642455      -0.22195191       0.37794777
Si       1.48052404      -0.99994645       2.36175569      -0.16549376      -0.30267620      -0.29869255
Si       5.14864821      -3.67084918       6.34358197      -0.16797827       0.10781218      -0.17036593
Si       2.19519725       2.98634069       3.54879200       0.28274875      -0.16971173      -0.08161899
Si       0.48044602       4.43796727       6.29473355      -0.30979009      -0.02064793       0.29714603
Si       0.77109925       4.58516937       2.57569946      -0.05263649       0.08014716      -0.22842760
Si       2.41992340      -0.65445462       7.79392197      -0.32389807      -0.49908625       0.13601952
22
Lattice="5.335575247096095 -0.6591329978748991 1.0701846850616077 -2.5852143432224635 9.480886519750884 -0.9607056820971283 0.36440729714891285 -2.777197229705163 8.360849132045995" Properties=species:S:1:pos:R:3:forces:R:3 unique_starting_index=18 config_type=initial n_minim_iter=9 energy=-3580.7911012129907 stress="0.00211038710756252 -1.891890085997913e-05 -0.0015049936284420942 -1.891890085997913e-05 -0.0008150269297904075 0.0013419113635719166 -0.0015049936284420942 0.0013419113635719166 0.0021280074681107415" free_energy=-3580.7911012129907 pbc="T T T"
Si       1.23155285       8.27168591       1.49131487       0.21588133       0.01190632       0.12222532
Si       2.10263260       0.36836809       5.62257903      -0.04158267      -0.22227826      -0.11621268
Si      -0.39295287      -2.47634992       7.64197680       0.25445761      -0.14433144      -0.00255169
Si       5.41922327      -0.88972917       9.13460573       0.11931390       0.28916410       0.12971749
Si      -1.07627162       1.56595825       6.98508042       0.02632031       0.15474772       0.25417677
Si       4.52357314       2.21152024       3.02019063      -0.24786107      -0.20723777       0.44400579
Si       2.36293076       1.15634880       1.86380490      -0.21218149       0.55662699      -0.11068111
Si       2.25936831       2.29479349       7.15127988       0.01961695       0.11300838      -0.16578785
Si       1.91530393      -3.04371733       8.17209669       0.14742892       0.16519356      -0.13497829
Si       0.38370482       2.20154122       5.16782232       0.11208939       0.07547830       0.12758366
Si       4.19434042       0.21408255       4.46408621       0.23351330      -0.02746945      -0.04129910
Si      -0.00608864       5.82965389       4.49402783       0.06072775       0.02980769      -0.10832781
Si       0.37748125      -0.77841420       4.43030068      -0.05245917       0.01703093      -0.25125126
Si      -1.33397862       6.51193953      -0.02615497      -0.13488602      -0.04454685      -0.11913999
Si       3.45140103       3.62553027       5.63950063       0.10691094       0.08258343      -0.51493655
Si       1.56484165       5.99943554       0.94028271       0.22752516      -0.32165318       0.24162679
Si       1.50753248      -0.98884122       2.37292478      -0.31015417      -0.32377124      -0.10199791
Si       5.19407729      -3.62725593       6.39210110      -0.30689121       0.09632008       0.03995318
Si       2.18499608       2.95912762       3.58857771       0.54096149      -0.26704381       0.10075452
Si       0.46764855       4.41577256       6.37655748      -0.28400444       0.03854154       0.29383760
Si       0.76277279       4.53681206       2.62617443      -0.13390158       0.30049392      -0.14765870
Si       2.43677074      -0.62469508       7.87209509      -0.34082522      -0.37257093       0.06094185
22
Lattice="5.340424112825749 -0.6764953946723835 1.0945741734969154 -2.611493644277012 9.469212884337066 -1.025124131777127 0.4037540178629802 -2.820365926386351 8.38827528660178" Properties=species:S:1:pos:R:3:forces:R:3 unique_starting_index=18 config_type=initial n_minim_iter=10 energy=-3580.8404851117757 stress="0.0016387615557854095 -0.0006498813505375291 0.0002648152665343412 -0.0006498813505375291 -0.0022997821563101564 -0.0021230225765149946 0.0002648152665343412 -0.0021230225765149946 0.001759927928690889" free_energy=-3580.8404851117757 pbc="T T T"
Si       1.22209693       8.23984551       1.45242583       0.09710814       0.02331244       0.06627872
Si       2.12895815       0.32614479       5.63152470      -0.13131643      -0.24451427      -0.02812921
Si      -0.35115597      -2.51588261       7.66600644       0.22877012      -0.20700006       0.02517486
Si       5.45943569      -0.95024140       9.17859399       0.03760885       0.39356354       0.02088577
Si      -1.05469379       1.53061622       6.98751821       0.03939518      -0.02182976       0.24494152
Si       4.53046853       2.17527440       3.03247023      -0.29304900      -0.23879678       0.50542882
Si       2.36010085       1.15271431       1.86166572      -0.21036627       0.38022026      -0.09234187
Si       2.28353212       2.24543733       7.15005869       0.02730828       0.11403398      -0.21427073
Si       1.95937747      -3.08140885       8.20451140       0.09389605       0.14717925      -0.15344007
Si       0.40132386       2.16647518       5.16411917       0.12241270       0.03460449       0.11600847
Si       4.21820356       0.17376289       4.48828227       0.22495029       0.01871768      -0.09402518
Si      -0.00176860       5.79146455       4.46567824       0.08323770       0.01850485       0.00918095
Si       0.38580666      -0.80310287       4.43681169       0.00417214       0.01571643      -0.23081261
Si      -1.35347003       6.49881436      -0.07072919      -0.15476754      -0.09229281      -0.10551051
Si       3.46559296       3.57615216       5.63066048       0.08535257       0.10986996      -0.50390884
Si       1.56100815       5.96941715       0.91605367       0.19843206      -0.34194278       0.29939992
Si       1.51405178      -1.01468155       2.38048187      -0.14518743      -0.17241280      -0.06372430
Si       5.22070195      -3.66494769       6.43777334      -0.28905904       0.02361050       0.02125698
Si       2.19451681       2.92464758       3.58109723       0.44853757      -0.17590247       0.08904107
Si       0.47500408       4.36606335       6.36802782      -0.23583264       0.08811551       0.19702352
Si       0.76077230       4.50399009       2.60663230       0.00412976       0.29490403      -0.11393762
Si       2.45986908      -0.68956200       7.89916514      -0.23573305      -0.16766119       0.00548032
22
Lattice="5.333108353695105 -0.6876284339401533 1.0912937079186897 -2.6305212151273327 9.499671002070842 -0.9963881842515236 0.4123083184550927 -2.8048941414705815 8.356485620206039" Properties=species:S:1:pos:R:3:forces:R:3 unique_starting_index=18 config_type=initial n_minim_iter=11 energy=-3580.9272173215763 stress="-0.0015709123921196348 -0.0007041638051673021 0.00044525732623174464 -0.0007041638051673021 -0.00023114468846336455 -0.0002578089162843613 0.00044525732623174464 -0.0002578089162843613 0.00026750395005099755" free_energy=-3580.9272173215763 pbc="T T T"
Si       1.20317057       8.26305550       1.47197523       0.03684667      -0.13110952       0.07686020
Si       2.13005143       0.33273605       5.60689860      -0.21516567      -0.23633526      -0.00367385
Si      -0.32626909      -2.50609104       7.64413298       0.17133130      -0.04577903      -0.02582846
Si       5.46066271      -0.93001952       9.16325329      -0.14418129       0.26950988      -0.01803186
Si      -1.06166696       1.56113626       6.98602822      -0.00364670      -0.14733952       0.19426120
Si       4.51907039       2.17462996       3.04779145      -0.25155127      -0.26452636       0.44923864