16
Lattice="6.30763 1.4005752113632738e-15 2.3112333038076755e-47 -3.153815000000001 5.462567817672837 6.67463732210554e-48 7.774754236873767e-32 -1.3466269354626756e-31 9.33822" Properties=species:S:1:pos:R:3:forces:R:3 unique_starting_index=154 config_type=initial n_minim_iter=1 energy=-2546.476278051808 stress="-0.3377052108099409 -0.33770521081612825 -0.3257554876380084 1.2756893096464426e-12 1.7141600145404466e-13 -8.168927411563951e-14" pbc="T T T"
Si      -0.90822587       3.47280946       7.38380433     -29.26818460      -1.13494057     -17.87952046
Si       0.30783852       4.51270976       7.38380433      13.65120494      25.91446167     -17.87952046
Si       0.60038640       2.93961696       7.38380433      15.61697966     -24.77952110     -17.87952046
Si       0.76146340       1.43623690       0.07829444      -5.12826493     -20.58072945       7.65127149
Si      -2.29072969       4.08500272       0.07829444     -15.25930207      14.73157244       7.65127149
Si       1.52926534       5.40389656       0.07829444      20.38756700       5.84915702       7.65127149
Si       0.08983074       4.91574184       8.91679360     -25.31082568      -4.13567256      10.42520626
Si       1.05842631       2.92690119       8.91679360       9.07381534      23.98765431      10.42520626
Si      -1.14825800       3.08249315       8.91679360      16.23701034     -19.85198175      10.42520626
Si       2.22813529       4.06411604       4.14077499      -0.35252960       1.16954892      -1.26627687
Si      -0.74825555       1.50088803       4.14077499       1.18912388      -0.27947487      -1.26627687
Si      -1.47988070       5.36013211       4.14077499      -0.83659427      -0.89007405      -1.26627687
Si       1.27062381       0.00873956       7.16047519       4.40017376      -0.25302590       0.42040563
Si       2.52607114       4.35780554       7.16047519      -2.41921374      -3.68414931       0.42040563
Si       5.66474909       1.09602327       7.16047519      -1.98096002       3.93717521       0.42040563
Si      -0.00000032       3.64171206       1.29828993      -0.00000000       0.00000000       1.94674183
16
Lattice="6.376541667272731 7.985854110799681e-16 -4.117921860346615e-33 -3.1882708336363663 5.522247072148164 -5.9408826805862364e-33 7.250050861695783e-32 -1.4980957529145313e-31 9.436612271736111" Properties=species:S:1:pos:R:3:forces:R:3 unique_starting_index=154 config_type=initial n_minim_iter=2 energy=-2550.4552667984117 stress="-0.28742113850128453 -0.2874211385058853 -0.29259485108990596 -1.6389282579309105e-12 1.455367785454212e-13 -2.3310938483636325e-12" pbc="T T T"
Si      -0.92110715       3.51063562       7.45979709     -26.12406427      -0.75274257     -16.32821380
Si       0.31258173       4.56463145       7.45979709      12.41013794      23.00047460     -16.32821380
Si       0.60852446       2.96922763       7.45979709      13.71392633     -22.24773202     -16.32821380
Si       0.76926406       1.44984741       0.07989258      -4.65946634     -18.50347716       6.74592471
Si      -2.31729881       4.13112115       0.07989258     -13.69474811      13.28695480       6.74592471
Si       1.54803379       5.46352613       0.07989258      18.35421445       5.21652236       6.74592471
Si       0.08825342       4.96902886       9.01179901     -23.01075300      -3.75839597       9.53972522
Si       1.07090705       2.96130294       9.01179901       8.25051011      21.80709465       9.53972522
Si      -1.15916143       3.11416290       9.01179901      14.76024289     -18.04869868       9.53972522
Si       2.25244232       4.10863526       4.18427636      -0.76002564       0.95766857      -1.05871947
Si      -0.75631012       1.51725717       4.18427636       1.20937813       0.17936723      -1.05871948
Si      -1.49613316       5.41860226       4.18427636      -0.44935249      -1.13703580      -1.05871947
Si       1.28495036       0.00880946       7.23596411       3.92599019      -0.28914790       0.44584867
Si       2.55342423       4.40504268       7.23596411      -2.21340453      -3.25543329       0.44584867
Si       5.72643694       1.10839548       7.23596411      -1.71258567       3.54458119       0.44584867
Si      -0.00000032       3.68149823       1.31216610      -0.00000000       0.00000000       1.96630402
16
Lattice="6.969136511751462 -5.5365212873644485e-16 -4.132073098562367e-32 -3.484568255875731 6.035449261618434 -6.05899308528897e-32 2.4727635385850096e-32 -2.8768143600806674e-31 10.330101446867696" Properties=species:S:1:pos:R:3:forces:R:3 unique_starting_index=154 config_type=initial n_minim_iter=3 energy=-2574.566333421787 stress="-0.12321200438318633 -0.12321200438831814 -0.1344990081080476 -2.213206997894171e-12 1.1056777077431976e-12 -2.8761183071937413e-12" pbc="T T T"
Si      -1.03385891       3.83610925       8.14913142     -12.36948671       0.64924007      -9.74076412
Si       0.35452856       5.01274272       8.14913142       6.74700175      10.38766968      -9.74076412
Si       0.67932930       3.22204716       8.14913142       5.62248496     -11.03690975      -9.74076412
Si       0.83591207       1.56535680       0.09447374      -3.13257022      -9.36101313       3.53598996
Si      -2.54688624       4.52884977       0.09447374      -6.54059006       7.39339196       3.53598996
Si       1.71097311       5.97669256       0.09447374       9.67316029       1.96762117       3.53598996
Si       0.07254072       5.42691251       9.87498808     -12.52061361      -0.71425598       6.19527581
Si       1.17900479       3.25917090       9.87498808       5.64174298      11.20029745       6.19527581
Si      -1.25154656       3.38481571       9.87498808       6.87887063     -10.48604146       6.19527581
Si       2.46097997       4.49146072       4.57935605      -2.20605791      -2.48894027      -0.97135313
Si      -0.82533986       1.65844772       4.57935605      -1.05245654       3.15497232      -0.97135313
Si      -1.63564117       5.92099068       4.57935605       3.25851445      -0.66603206      -0.97135313
Si       1.40844557       0.00932765       7.92155249       0.96281943      -0.52598210       0.63656778
Si       2.78842276       4.81103579       7.92155249      -0.93692357      -0.57083504       0.63656778
Si       6.25683539       1.21508642       7.92155249      -0.02589586       1.09681713       0.63656778
Si      -0.00000035       4.02363304       1.43845148       0.00000000       0.00000000       1.03285108
16
Lattice="7.8191666745760395 9.562517577111293e-16 -1.0389100125450076e-31 -3.909583337288022 6.771596976607541 -1.55817777781791e-31 -5.726355362018047e-32 -5.216753609883121e-31 11.712907378991623" Properties=species:S:1:pos:R:3:forces:R:3 unique_starting_index=154 config_type=initial n_minim_iter=4 energy=-2578.330464943591 stress="-0.0052217873642481935 -0.005221787365908791 -0.0014690449929509063 1.092168246755281e-12 6.019703006173141e-13 -4.1487947728251e-12" pbc="T T T"
Si      -1.19637916       4.30591359       9.21093432      -4.48435175       0.32626691      -4.75462439
Si       0.41763601       5.65473492       9.21093432       2.52473131       3.72042908      -4.75462439
Si       0.77874197       3.58254612       9.21093432       1.95962045      -4.04669599      -4.75462439
Si       0.92864551       1.72872253       0.11766721      -1.16838646      -2.17902314       0.28363310
Si      -2.87678925       5.10300511       0.11766721      -1.30289617       2.10136392       0.28363310
Si       1.94814256       6.71146699       0.11766721       2.47128262       0.07765922       0.28363310
Si       0.04452379       6.08673360      11.21535081      -3.10655959       0.64087165       3.12349138
Si       1.33941990       3.68967144      11.21535081       2.10829093       2.36992370       3.12349138
Si      -1.38394488       3.76678959      11.21535081       0.99826867      -3.01079535       3.12349138
Si       2.75465196       5.03195889       5.18945956      -3.08776691      -2.06405379       0.05512076
Si      -0.92910588       1.87001895       5.18945956      -0.24363956       3.70611147       0.05512076
Si      -1.82554727       6.64121679       5.18945956       3.33140647      -1.64205769       0.05512076
Si       1.58306945       0.00891669       8.98384447      -0.93036225      -0.51693232       1.27918979
Si       3.12576990       5.39616026       8.98384447       0.01750460       1.06418350       1.27918979
Si       7.01990947       1.36652070       8.98384447       0.91285765      -0.54725118       1.27918979
Si      -0.00000039       4.51439821       1.63408594       0.00000000      -0.00000000       0.03956808
16
Lattice="7.87850954171606 -3.3219671610430657e-16 -1.3262225816818715e-31 -3.9392547708580303 6.822989407084203 -2.038457179953777e-31 -9.956475359344639e-32 -6.30896805060897e-31 11.737848031686696" Properties=species:S:1:pos:R:3:forces:R:3 unique_starting_index=154 config_type=initial n_minim_iter=5 energy=-2579.244672857382 stress="-0.002736490220842943 -0.0027364902246839987 0.0033731553857733153 4.309036118770705e-12 2.1047327963793336e-12 8.800546603335768e-13" pbc="T T T"
Si      -1.22166966       4.33977237       9.21304612      -3.70220536       0.35535526      -4.16828013
Si       0.42993239       5.71110018       9.21304612       2.15884936       3.02852626      -4.16828013
Si       0.79173608       3.59510694       9.21304612       1.54335600      -3.38388152      -4.16828013
Si       0.93146973       1.73396546       0.11896179      -1.10582726      -1.74162569       0.04527498
Si      -2.90333229       5.14933023       0.11896179      -0.95537846       1.82848734       0.04527498
Si       1.97186137       6.76268381       0.11896179       2.06120572      -0.08686165       0.04527498
Si       0.03363166       6.13524504      11.25072928      -2.59076424       0.53752130       2.87596750
Si       1.35720667       3.72624101      11.25072928       1.76088922       1.97490700       2.87596750
Si      -1.39083952       3.78449344      11.25072928       0.82987502      -2.51242830       2.87596750
Si       2.76439604       5.06268705       5.20071253      -3.03543016      -2.15077078      -0.04952628
Si      -0.93703799       1.89760868       5.20071253      -0.34490705       3.70414502      -0.04952628
Si      -1.82735924       6.68568376       5.20071253       3.38033721      -1.55337424      -0.04952628
Si       1.59172081       0.00711568       9.00768263      -0.93204087      -0.46058220       1.29951983
Si       3.14955593       5.44096091       9.00768263       0.06714455       1.03746217       1.29951983
Si       7.07648638       1.37491350       9.00768263       0.86489632      -0.57687997       1.29951983
Si      -0.00000040       4.54865983       1.63771110      -0.00000000       0.00000000      -0.00886769
16
Lattice="7.965376542070091 1.4267681726500106e-16 -1.514447126911491e-31 -3.9826882710350455 6.898218436141346 -2.3181364489952587e-31 -1.3027185128101335e-31 -7.068078999338466e-31 11.580258782102403" Properties=species:S:1:pos:R:3:forces:R:3 unique_starting_index=154 config_type=initial n_minim_iter=6 energy=-2581.183354020947 stress="0.011726865965637446 0.011726865969540432 0.019343137719193576 -2.295949326851628e-12 -3.3468974368174725e-12 -1.491890965781154e-12" pbc="T T T"
Si      -1.27222512       4.39118155       9.04809111      -2.25248447       0.58341641      -4.06339069
Si       0.45629827       5.80440693       9.04809111       1.63149566       1.65900057      -4.06339068
Si       0.81592565       3.60084907       9.04809111       0.62098880      -2.24241697      -4.06339069
Si       0.93066270       1.73563772       0.11781283      -1.02906931      -1.20901818      -0.31929350
Si      -2.94491407       5.22442203       0.11781283      -0.53250580       1.49570925      -0.31929350
Si       2.01425016       6.83637781       0.11781283       1.56157511      -0.28669107      -0.31929350
Si       0.00805039       6.20827556      11.12815005      -1.93346485       0.54262665       2.60642007
Si       1.38981008       3.78710881      11.12815005       1.43666089       1.40311636       2.60642007
Si      -1.39786168       3.80105320      11.12815005       0.49680397      -1.94574300       2.60642007
Si       2.76446939       5.09696271       5.13039886      -3.58754052      -1.93565108       0.15112576
Si      -0.95082458       1.95563635       5.13039886       0.11744725       4.07472676       0.15112576
Si      -1.81364602       6.74383850       5.13039886       3.47009327      -2.13907568       0.15112576
Si       1.59993443       0.00258042       8.89961221      -1.01323578      -0.33995199       1.27586390
Si       3.18495496       5.51134436       8.89961221       0.21221083       1.04746392       1.27586390
Si       7.16317422       1.38429435       8.89961221       0.80102494      -0.70751193       1.27586390
Si      -0.00000040       4.59881252       1.61563583       0.00000000       0.00000000       1.04782337
16
Lattice="7.903615086068819 9.838338474262208e-16 -1.6358658997397545e-31 -3.951807543034409 6.84473144626953 -2.515662954539434e-31 -1.5000438205429477e-31 -7.521993174681396e-31 11.43252543102559" Properties=species:S:1:pos:R:3:forces:R:3 unique_starting_index=154 config_type=initial n_minim_iter=7 energy=-2581.8419981857855 stress="0.021545298794049643 0.021545298790771158 0.03185494910372879 2.261525769424768e-12 -9.472529769947e-13 -5.650524497595505e-12" pbc="T T T"
Si      -1.26607870       4.35809649       8.92622606      -2.41096346       0.63816153      -4.86547269
Si       0.45545329       5.76213951       8.92622606       1.75814582       1.76887484      -4.86547269
Si       0.81062421       3.56922757       8.92622606       0.65281764      -2.40703637      -4.86547269
Si       0.92174795       1.72018436       0.11580417      -1.10231066      -1.55079700      -0.28747169
Si      -2.92295896       5.18638212       0.11580417      -0.79187427       1.73002754      -0.28747169
Si       2.00120981       6.78289709       0.11580417       1.89418493      -0.17923053      -0.28747169
Si       0.00479649       6.16103389      10.99031234      -2.29750033       0.70020312       2.68818252
Si       1.38140528       3.76006062      10.99031234       1.75514385       1.63959209       2.68818252
Si      -1.38620297       3.76836907      10.99031234       0.54235647      -2.33979521       2.68818252
Si       2.73711262       5.05424709       5.06518794      -4.91293456      -2.11434617       0.56510993
Si      -0.94325827       1.94719883       5.06518794       0.62538979       5.31189922       0.56510993
Si      -1.79385555       6.68801765       5.06518794       4.28754478      -3.19755305       0.56510992
Si       1.58585646       0.00199926       8.78809745      -1.08241526      -0.35748214       1.20049407
Si       3.16060993       5.47033983       8.78809745       0.23161902       1.11614018       1.20049407
Si       7.10895504       1.37239303       8.78809745       0.85079624      -0.75865805       1.20049407
Si      -0.00000040       4.56315453       1.59668411       0.00000000      -0.00000000       2.09747358
16
Lattice="6.917588956919716 1.3046623196179032e-15 -1.2399856805293023e-31 -3.4587944784598577 5.990807769631171 -1.94231318651244e-31 -1.1562954926314449e-31 -6.301722919225482e-31 9.388133486362621" Properties=species:S:1:pos:R:3:forces:R:3 unique_starting_index=154 config_type=initial n_minim_iter=8 energy=-2581.7453021396354 stress="-0.10659757943097839 -0.10659757943380142 -0.16710842758450775 -3.760445533058217e-12 2.8035884428601502e-12 2.9150722317620784e-12" pbc="T T T"
Si      -1.14125867       3.82316588       7.27013162      -5.93974474       1.36255167      -7.55527592
Si       0.42279294       5.06758382       7.27013162       4.14987673       4.46269400      -7.55527592
Si       0.71846468       3.09086643       7.27013162       1.78986801      -5.82524567      -7.55527592
Si       0.79160615       1.48426948       0.09155754      -2.84757436      -5.58882923       0.48315855
Si      -2.56918317       4.56312199       0.09155754      -3.41628091       5.26048635       0.48315855
Si       1.77757597       5.93422467       0.09155754       6.26385527       0.32834288       0.48315855
Si      -0.02737402       5.40202798       9.05808461      -9.19907716       0.85451536       5.63238403
Si       1.23318529       3.31350038       9.05808461       5.33957058       7.53937683       5.63238403
Si      -1.20581232       3.26608779       9.05808461       3.85950657      -8.39389219       5.63238403
Si       2.32812719       4.39464248       4.16637420      -1.06553362       1.09630811      -0.95262802
Si      -0.81698675       1.77726923       4.16637420       1.48219748       0.37462513      -0.95262802
Si      -1.51114150       5.80970443       4.16637420      -0.41666386      -1.47093324      -0.95262802
Si       1.37313631      -0.00316266       7.23136441       1.08502807       0.51313521       1.02858701
Si       2.76948669       4.80321816       7.23136441      -0.09812591      -1.19622947       1.02858701
Si       6.23375939       1.19075286       7.23136441      -0.98690216       0.68309427       1.02858701
Si      -0.00000035       3.99387205       1.33697723       0.00000000       0.00000000       4.09132305
16
Lattice="7.599267998832028 -4.575677066025658e-16 -1.6105657181289185e-31 -3.799633999416012 6.58115913715467 -2.495751447269772e-31 -1.521675883060999e-31 -7.456582471002685e-31 10.87843244629939" Properties=species:S:1:pos:R:3:forces:R:3 unique_starting_index=154 config_type=initial n_minim_iter=9 energy=-2590.34332471241 stress="0.043979629429804705 0.04397962942125892 0.04306791602830417 2.7524526474941468e-12 1.6612554975276155e-12 3.0265481091983542e-12" pbc="T T T"
Si      -1.27150649       4.20399139       8.40416095      -2.09680595       0.16610204      -3.23688234
Si       0.47688182       5.58032036       8.40416095       1.19225156       1.73283620      -3.23688234
Si       0.79462352       3.37800718       8.40416095       0.90455439      -1.89893824      -3.23688234
Si       0.86108702       1.61379945       0.10737396      -1.24346143      -2.31247140      -0.54054064
Si      -2.83258695       5.02853618       0.10737396      -1.38092826       2.23310489      -0.54054064
Si       1.97149878       6.51998330       0.10737396       2.62438969       0.07936651      -0.54054064
Si      -0.05761563       5.93691790      10.51093924      -2.89979116       1.16998956       1.76747322
Si       1.37069478       3.66259678      10.51093924       2.46313626       1.92629803       1.76747322
Si      -1.31308030       3.56280425      10.51093924       0.43665490      -3.09628759       1.76747322
Si       2.55435708       4.83098573       4.82522796      -4.79359994      -1.22153530       0.66019034
Si      -0.89305693       1.95352815       4.82522796       1.33891937       4.76214698       0.66019034
Si      -1.66130129       6.37780505       4.82522796       3.45468057      -3.54061168       0.66019034
Si       1.51169792      -0.00193787       8.38202163      -0.60173659      -0.49340100       0.54638838
Si       3.04210603       5.27295927       8.38202163      -0.12642951       0.76781967       0.54638838
Si       6.84509690       1.31013840       8.38202163       0.72816609      -0.27441867       0.54638838
Si      -0.00000038       4.38743964       1.56007133      -0.00000000      -0.00000000       2.41011311
16
Lattice="7.317714011025563 -4.363514732753094e-16 -1.571122563689756e-31 -3.65885700551278 6.3373262311774585 -2.460806686011856e-31 -1.4934699906727977e-31 -7.291432267980365e-31 10.483586734436354" Properties=species:S:1:pos:R:3:forces:R:3 unique_starting_index=154 config_type=initial n_minim_iter=10 energy=-2591.713283245561 stress="-0.013385723125949966 -0.013385723129050902 -0.0199977818770563 1.3856674102910237e-12 2.518619668481561e-12 -7.238865250778675e-13" pbc="T T T"
Si      -1.22902126       4.04859922       8.09244236      -3.05928336      -0.06099972      -2.42020076
Si       0.46184266       5.37739025       8.09244236       1.47681437       2.67991696      -2.42020076
Si       0.76717749       3.24866362       8.09244236       1.58246898      -2.61891724      -2.42020076
Si       0.82644130       1.54890805       0.10236126      -1.55053236      -3.29508152       0.17250627
Si      -2.73068468       4.84715304       0.10236126      -2.07835812       2.99034118       0.17250627
Si       1.90424227       6.27859201       0.10236126       3.62889048       0.30474034       0.17250627
Si      -0.06187613       5.71953451      10.13307943      -4.39369959       1.49428360       2.06101577
Si       1.32534251       3.53114527      10.13307943       3.49093735       3.05791366       2.06101577
Si      -1.26346749       3.42397331      10.13307943       0.90276224      -4.55219726       2.06101577
Si       2.44914602       4.64930305       4.65145288      -1.59605723      -1.13880377      -1.09865842
Si      -0.85701620       1.89165203       4.65145288      -0.18820438       1.95162799      -1.09865842
Si      -1.59213093       6.13369802       4.65145288       1.78426161      -0.81282422      -1.09865842
Si       1.45436223      -0.00295421       8.07891365       0.35201478      -0.31319536       1.12558482
Si       2.92911673       5.07928870       8.07891365      -0.44724253      -0.14825606       1.12558482
Si       6.59309095       1.26099238       8.07891365       0.09522775       0.46145143       1.12558482
Si      -0.00000037       4.22488436       1.50842010      -0.00000000      -0.00000000       0.47925694
16
Lattice="7.374539114342049 7.055698788696213e-16 -1.6152787035741607e-31 -3.687269557171024 6.386538214222211 -2.5150997783992886e-31 -1.543449086668377e-31 -7.4129464880873545e-31 10.605442404024645" Properties=species:S:1:pos:R:3:forces:R:3 unique_starting_index=154 config_type=initial n_minim_iter=11 energy=-2592.081007424968 stress="0.004083905566537906 0.00408390557302317 -0.0007068932657512753 2.171681846862911e-12 4.600718431147785e-12 3.954459789369647e-13" pbc="T T T"
Si      -1.24349741       4.07993993       8.18283677      -2.69763834      -0.10129901      -2.26219281
Si       0.46781004       5.42346859       8.18283677       1.26109165       2.38687284      -2.26219281
Si       0.77568626       3.26966854       8.18283677       1.43654669      -2.28557383      -2.26219281
Si       0.83035914       1.55562352       0.10381248      -1.39214614      -2.94476782      -0.06166854
Si      -2.75524039       4.88961434       0.10381248      -1.85417066       2.67801783      -0.06166854
Si       1.92488013       6.32783921       0.10381248       3.24631681       0.26674998      -0.06166854
Si      -0.06944030       5.76635822      10.25398450      -3.81443033       1.43758337       1.81133446
Si       1.34126256       3.56349616      10.25398450       3.15219888       2.58460188       1.81133446
Si      -1.27182337       3.44322268      10.25398450       0.66223144      -4.02218525       1.81133446
Si       2.46559144       4.68357081       4.70385388      -2.01720886      -1.13358044      -0.74349970
Si      -0.86397472       1.90948798       4.70385388       0.02689497       2.31374434      -0.74349970
Si      -1.60161784       6.18001828       4.70385388       1.99031389      -1.18016390      -0.74349970
Si       1.46622349      -0.00348210       8.17452451       0.25141614      -0.41799925       1.02961390
Si       2.95114149       5.11849247       8.17452451      -0.48770604      -0.00873314       1.02961390
Si       6.64444258       1.27152848       8.17452451       0.23628990       0.42673239       1.02961390
Si      -0.00000037       4.25769236       1.52667950      -0.00000000      -0.00000000       0.67923806
16
Lattice="7.357741507939079 4.772320724897271e-16 -1.6394525676855507e-31 -3.6788707539695396 6.3719910603544685 -2.5469153379713317e-31 -1.5747605979869203e-31 -7.467926646190874e-31 10.609629377975457" Properties=species:S:1:pos:R:3:forces:R:3 unique_starting_index=154 config_type=initial n_minim_iter=12 energy=-2592.3129384811464 stress="0.0018953294200692195 0.0018953294172713274 -0.0019095104798256353 -1.3679650460270652e-13 -3.6402551294672165e-12 -1.0901382704849775e-12" pbc="T T T"
Si      -1.24477775       4.07049227       8.18280419      -2.66658064      -0.14854651      -2.12768682
Si       0.46866710       5.41475408       8.18280419       1.20464527       2.38359983      -2.12768682
Si       0.77610954       3.25873641       8.18280419       1.46193537      -2.23505332      -2.12768682
Si       0.82634533       1.54759061       0.10376452      -1.37415229      -2.89713725      -0.07189059
Si      -2.75179137       4.88255971       0.10376452      -1.82191831       2.63861941      -0.07189059
Si       1.92544493       6.31383244       0.10376452       3.19607060       0.25851784      -0.07189059
Si      -0.07509753       5.75541541      10.26064549      -3.72633176       1.44403030       1.73217086
Si       1.34301323       3.55931972      10.26064549       3.11373280       2.50508282       1.73217086
Si      -1.26791681       3.42924763      10.26064549       0.61259896      -3.94911312       1.73217086
Si       2.45689997       4.67117441       4.70463847      -1.91178513      -1.09418112      -0.79497835
Si      -0.86196577       1.90866606       4.70463847       0.00830392       2.20274505      -0.79497835
Si      -1.59493531       6.16414228       4.70463847       1.90348121      -1.10856393      -0.79497835
Si       1.46326705      -0.00411144       8.17923695       0.30329110      -0.40101476       1.04218754
Si       2.94367588       5.10682034       8.17923695      -0.49893452      -0.06215042       1.04218754
Si       6.62966822       1.26928280       8.17923695       0.19564342       0.46316518       1.04218754
Si      -0.00000037       4.24799425       1.52826200       0.00000000       0.00000000       0.66059210
16
Lattice="7.333159930524462 6.047106137258598e-16 -1.6721599698312651e-31 -3.6665799652622315 6.350702789848318 -2.598781424124834e-31 -1.6095583377022647e-31 -7.53755803844119e-31 10.645460597319696" Properties=species:S:1:pos:R:3:forces:R:3 unique_starting_index=154 config_type=initial n_minim_iter=13 energy=-2592.975324731424 stress="0.0013453360199993654 0.0013453360170987284 -0.00036785120270759044 5.951956083398644e-13 -4.2385325700110697e-13 -9.67005020272579e-13" pbc="T T T"
Si      -1.25345551       4.05617804       8.20065737      -2.45368963      -0.26437087      -1.78580676
Si       0.47290027       5.40813809       8.20065737       0.99789292       2.25714299      -1.78580676
Si       0.78055413       3.23709009       8.20065737       1.45579671      -1.99277212      -1.78580676
Si       0.81696965       1.52847393       0.10378443      -1.27923952      -2.67690541      -0.17357254
Si      -2.75136827       4.87894935       0.10378443      -1.67864832       2.44630663      -0.17357254
Si       1.93439751       6.29398293       0.10378443       2.95788785       0.23059878      -0.17357254
Si      -0.09278455       5.74313838      10.30326180      -3.33319799       1.42709976       1.49691195
Si       1.35351530       3.55948737      10.30326180       2.90250364       2.17308426       1.49691195
Si      -1.26073187       3.39878046      10.30326180       0.43069435      -3.60018402       1.49691195
Si       2.43948868       4.65030122       4.71687221      -1.77943231      -0.96861392      -0.81105333
Si      -0.85904605       1.91289301       4.71687221       0.05087190       2.02534054      -0.81105333
Si      -1.58044374       6.13821198       4.71687221       1.72856041      -1.05672663      -0.81105333
Si       1.45983839      -0.00602812       8.21165164       0.38846364      -0.37898750       1.03846446
Si       2.93143953       5.08945971       8.21165164      -0.52244462      -0.14692564       1.03846446
Si       6.60846087       1.26727183       8.21165164       0.13398098       0.52591313       1.03846446
Si      -0.00000037       4.23380207       1.53646038       0.00000000       0.00000000       0.70516867
16
Lattice="7.216113454782338 -7.857381213700676e-16 -1.7264571303799897e-31 -3.6080567273911686 6.2493375684322 -2.71792271466809e-31 -1.6524023269202679e-31 -7.632799771739931e-31 10.692397880378044" Properties=species:S:1:pos:R:3:forces:R:3 unique_starting_index=154 config_type=initial n_minim_iter=14 energy=-2595.92878424839 stress="-0.00022469167615471212 -0.00022469168568142134 0.0030919023032741307 -1.940605162529863e-12 3.186024088701536e-12 -3.288713558743312e-12" pbc="T T T"
Si      -1.31217692       3.98295382       8.18058182      -1.13633740      -0.74463794      -0.60112099
Si       0.49737019       5.39423920       8.18058182      -0.07670667       1.35641603      -0.60112099
Si       0.81480563       3.12148274       8.18058182       1.21304408      -0.61177809      -0.60112099
Si       0.76288460       1.41818742       0.09877640      -0.75955485      -1.67151436      -0.47556399
Si      -2.76131342       4.87956641       0.09877640      -1.06779647       1.49355098      -0.47556399
Si       1.99842773       6.20092193       0.09877640       1.82735132       0.17796338      -0.47556399
Si      -0.19825128       5.69726002      10.39582662      -1.56489779       1.05071900       0.68717873
Si       1.42504010       3.57239820      10.39582662       1.69239824       0.82988174       0.68717873
Si      -1.22678991       3.22901754      10.39582662      -0.12750045      -1.88060074       0.68717873
Si       2.34345719       4.54499799       4.71213024      -1.69809222      -0.32094032      -0.76326108
Si      -0.84370233       1.94734511       4.71213024       0.57110364       1.63106117      -0.76326108
Si      -1.49975595       6.00633266       4.71213024       1.12698858      -1.31012084      -0.76326109
Si       1.44900162      -0.01809195       8.28055819       0.58608164      -0.13843425       0.87986926