18
Lattice="5.51512149156851 0.0 0.0 0.0 7.647641241272997 -9.169620347108096e-18 0.0 1.2361133748843604e-17 10.268768050840649" Properties=species:S:1:pos:R:3:forces:R:3 unique_starting_index=36 config_type=initial n_minim_iter=1 energy=-2925.5792951718645 stress="0.001127699895621376 1.3758404908056353e-12 1.15678787140528e-11 1.3758404908056353e-12 -0.00032874359082475565 5.9859866524503595e-12 1.15678787140528e-11 5.9859866524503595e-12 0.0021003475719626073" free_energy=-2925.5792951718645 pbc="T T T"
Si       3.92538751       7.43149882       9.61237882      -0.02585574      -0.03626351       0.02386560
Si       1.58973398       7.43149882       0.65638923       0.02585574      -0.03626351      -0.02386560
Si       4.34729472       7.43149882       4.47799480       0.02585574      -0.03626351       0.02386560
Si       1.16782677       7.43149882       5.79077325      -0.02585574      -0.03626351      -0.02386560
Si       0.04028839       1.58198420       1.28911213      -0.02821256       0.08069103      -0.12198617
Si       5.47483310       1.58198420       8.97965592       0.02821256       0.08069104       0.12198617
Si       2.71727235       1.58198420       6.42349616       0.02821256       0.08069104      -0.12198617
Si       2.79784914       1.58198420       3.84527189      -0.02821256       0.08069103       0.12198617
Si       1.58825200       5.73832259       2.59857706       0.01819291       0.01225772      -0.07741587
Si       3.92686949       5.73832259       7.67019099      -0.01819291       0.01225772       0.07741587
Si       1.16930875       5.73832259       7.73296108      -0.01819291       0.01225772      -0.07741587
Si       4.34581274       5.73832259       2.53580697       0.01819291       0.01225772       0.07741587
Si       3.61032962       0.33374270       1.84402141      -0.00001812       0.00117726       0.03594113
Si       1.90479187       0.33374270       8.42474664       0.00001813       0.00117726      -0.03594113
Si      -0.85276887       0.33374270       6.97840544       0.00001812       0.00117726       0.03594113
Si       6.36789037       0.33374270       3.29036261      -0.00001813       0.00117726      -0.03594113
Si      -0.00000000       5.54310039       0.00000000      -0.00000000      -0.11572501       0.00000000
Si       2.75756075       5.54310039       5.13438403       0.00000000      -0.11572501      -0.00000000
18
Lattice="5.50566244052406 0.0 0.0 0.0 7.651469181188079 -9.21613060931468e-18 0.0 1.2265829345167813e-17 10.235989700745025" Properties=species:S:1:pos:R:3:forces:R:3 unique_starting_index=36 config_type=initial n_minim_iter=2 energy=-2925.5815808986144 stress="-0.000898561835003922 -3.3405504304465657e-12 -1.6567133595370726e-12 -3.3405504304465657e-12 -0.0008601479267542686 5.441960730955105e-12 -1.6567133595370726e-12 5.441960730955105e-12 4.2598663096148866e-05" free_energy=-2925.5815808986144 pbc="T T T"
Si       3.91856432       7.43509106       9.58177930      -0.00639653      -0.04009550       0.02667159
Si       1.58709812       7.43509106       0.65421040       0.00639653      -0.04009550      -0.02667159
Si       4.33992934       7.43509106       4.46378445       0.00639653      -0.04009550       0.02667159
Si       1.16573310       7.43509106       5.77220525      -0.00639653      -0.04009550      -0.02667159
Si       0.04012031       1.58305978       1.28456987      -0.02393417       0.09720862      -0.12696896
Si       5.46554213       1.58305978       8.95141983       0.02393417       0.09720862       0.12696896
Si       2.71271091       1.58305978       6.40256472       0.02393417       0.09720862      -0.12696896
Si       2.79295153       1.58305978       3.83342498      -0.02393417       0.09720862       0.12696896
Si       1.58559180       5.74123794       2.59001107       0.01221127       0.00655624      -0.05721392
Si       3.92007064       5.74123794       7.64597863      -0.01221127       0.00655624       0.05721392
Si       1.16723942       5.74123794       7.70800592      -0.01221127       0.00655624      -0.05721392
Si       4.33842302       5.74123794       2.52798378       0.01221127       0.00655624       0.05721392
Si       3.60413744       0.33391389       1.83826113       0.01527630       0.00165766       0.05519565
Si       1.90152500       0.33391389       8.39772857      -0.01527630       0.00165766      -0.05519566
Si      -0.85130622       0.33391389       6.95625598      -0.01527630       0.00165766       0.05519566
Si       6.35696866       0.33391389       3.27973372       0.01527630       0.00165766      -0.05519566
Si      -0.00000000       5.54546800       0.00000000      -0.00000000      -0.13065404      -0.00000000
Si       2.75283122       5.54546800       5.11799485      -0.00000000      -0.13065404       0.00000000
18
Lattice="5.510780758901826 0.0 0.0 0.0 7.665606935385584 -9.257305559512102e-18 0.0 1.2214934130660882e-17 10.220575725325066" Properties=species:S:1:pos:R:3:forces:R:3 unique_starting_index=36 config_type=initial n_minim_iter=3 energy=-2925.582631060867 stress="-0.00018895521233517986 -2.7111357799724954e-12 1.7701698835804572e-12 -2.7111357799724954e-12 0.0010671038342268996 -1.3601820603712706e-12 1.7701698835804572e-12 -1.3601820603712706e-12 -1.6663186185024107e-05" free_energy=-2925.582631060867 pbc="T T T"
Si       3.92213876       7.44859608       9.56750350      -0.00113112      -0.03432872       0.01465260
Si       1.58864199       7.44859608       0.65307222       0.00113112      -0.03432872      -0.01465260
Si       4.34403237       7.44859608       4.45721564       0.00113112      -0.03432872       0.01465261
Si       1.16674839       7.44859608       5.76336008      -0.00113112      -0.03432872      -0.01465261
Si       0.04000894       1.58653818       1.28189395      -0.02991518       0.06771646      -0.09949509
Si       5.47077181       1.58653818       8.93868177       0.02991518       0.06771646       0.09949509
Si       2.71538143       1.58653818       6.39218182       0.02991518       0.06771646      -0.09949509
Si       2.79539932       1.58653818       3.82839391      -0.02991518       0.06771646       0.09949509
Si       1.58714764       5.75189416       2.58574169       0.00614660       0.01312956      -0.05540295
Si       3.92363312       5.75189416       7.63483403      -0.00614660       0.01312956       0.05540295
Si       1.16824274       5.75189416       7.69602956      -0.00614660       0.01312956      -0.05540295
Si       4.34253802       5.75189416       2.52454617       0.00614660       0.01312956       0.05540295
Si       3.60755465       0.33453999       1.83578865       0.02129934      -0.00205170       0.05216333
Si       1.90322611       0.33453999       8.38478707      -0.02129934      -0.00205170      -0.05216333
Si      -0.85216427       0.33453999       6.94607651      -0.02129934      -0.00205170       0.05216333
Si       6.36294503       0.33453999       3.27449921       0.02129934      -0.00205170      -0.05216333
Si      -0.00000000       5.55495929       0.00000000      -0.00000000      -0.08893118      -0.00000000
Si       2.75539038       5.55495929       5.11028786      -0.00000000      -0.08893118       0.00000000
18
Lattice="5.529406971900953 0.0 0.0 0.0 7.647113620703019 -9.265213002167963e-18 0.0 1.2135526841254681e-17 10.188162311443282" Properties=species:S:1:pos:R:3:forces:R:3 unique_starting_index=36 config_type=initial n_minim_iter=4 energy=-2925.5847664090584 stress="0.0010440085517124163 2.9007048470760134e-12 1.8752728416255907e-12 2.9007048470760134e-12 -0.0005030472155953703 -3.4643384724973607e-12 1.8752728416255907e-12 -3.4643384724973607e-12 -0.0012325747267363286" free_energy=-2925.5847664090584 pbc="T T T"
Si       3.93522706       7.42960944       9.53771247      -0.01895859      -0.02961162      -0.00733077
Si       1.59417991       7.42960944       0.65044984       0.01895859      -0.02961162       0.00733077
Si       4.35888340       7.42960944       4.44363131       0.01895859      -0.02961162      -0.00733077
Si       1.17052358       7.42960944       5.74453100      -0.01895859      -0.02961162       0.00733077
Si       0.03937933       1.58492859       1.27475530      -0.05845979       0.08609849      -0.07826303
Si       5.49002764       1.58492859       8.91340702       0.05845979       0.08609849       0.07826303
Si       2.72532416       1.58492859       6.36883645       0.05845979       0.08609849      -0.07826303
Si       2.80408282       1.58492859       3.81932586      -0.05845979       0.08609849       0.07826303
Si       1.59278445       5.73831345       2.57593108       0.01671647      -0.02185631      -0.04574973
Si       3.93662252       5.73831345       7.61223123      -0.01671647      -0.02185631       0.04574973
Si       1.17191904       5.73831345       7.67001223      -0.01671647      -0.02185631      -0.04574973
Si       4.35748793       5.73831345       2.51815008       0.01671647      -0.02185631       0.04574973
Si       3.62020636       0.33372401       1.83137105       0.01535479       0.03250616       0.02330393
Si       1.90920061       0.33372401       8.35679126      -0.01535479       0.03250616      -0.02330393
Si      -0.85550288       0.33372401       6.92545221      -0.01535479       0.03250616       0.02330393
Si       6.38490985       0.33372401       3.26271010       0.01535479       0.03250616      -0.02330393
Si      -0.00000000       5.53858207       0.00000000      -0.00000000      -0.13427343       0.00000000
Si       2.76470349       5.53858207       5.09408116       0.00000000      -0.13427343      -0.00000000
18
Lattice="5.4530749473199664 0.0 0.0 0.0 7.5189735695131 -9.0305231482534e-18 0.0 1.2405564019235793e-17 10.3218310686257" Properties=species:S:1:pos:R:3:forces:R:3 unique_starting_index=36 config_type=initial n_minim_iter=5 energy=-2925.635713793044 stress="0.0014719419999348925 1.3688022143933708e-12 1.7564287355792825e-12 1.3688022143933708e-12 0.001964259742522693 3.923460861908083e-12 1.7564287355792825e-12 3.923460861908083e-12 0.0006444425602015018" free_energy=-2925.635713793044 pbc="T T T"
Si       3.87563530       7.28527302       9.67074282      -0.09205359       0.01627811       0.14128031
Si       1.57743965       7.28527302       0.65108825       0.09205359       0.01627811      -0.14128031
Si       4.30397712       7.28527302       4.50982728       0.09205359       0.01627811       0.14128031
Si       1.14909782       7.28527302       5.81200379      -0.09205359       0.01627810      -0.14128031
Si       0.01897740       1.60428841       1.23137528       0.09143048       0.08438151       0.18518986
Si       5.43409755       1.60428841       9.09045579      -0.09143048       0.08438151      -0.18518986
Si       2.70756007       1.60428841       6.39229082      -0.09143048       0.08438151       0.18518986
Si       2.74551487       1.60428841       3.92954025       0.09143048       0.08438151      -0.18518986
Si       1.57731012       5.64405657       2.57736015       0.07234443      -0.10514583       0.07879236
Si       3.87576482       5.64405657       7.74447092      -0.07234443      -0.10514583      -0.07879236
Si       1.14922735       5.64405657       7.73827568      -0.07234443      -0.10514584       0.07879236
Si       4.30384760       5.64405657       2.58355539       0.07234443      -0.10514584      -0.07879236
Si       3.57942756       0.33220387       1.88115002      -0.13269986       0.15015378      -0.00295735
Si       1.87364739       0.33220387       8.44068105       0.13269986       0.15015378       0.00295735
Si      -0.85289009       0.33220387       7.04206555       0.13269985       0.15015378      -0.00295735
Si       6.30596503       0.33220387       3.27976551      -0.13269985       0.15015378       0.00295735
Si      -0.00000000       5.38168009       0.00000000      -0.00000000      -0.29133513       0.00000000
Si       2.72653747       5.38168009       5.16091553      -0.00000000      -0.29133513      -0.00000000
18
Lattice="5.3786168262398535 0.0 0.0 0.0 7.3746970351775945 -8.88352967219497e-18 0.0 1.249763109583185e-17 10.426203511167374" Properties=species:S:1:pos:R:3:forces:R:3 unique_starting_index=36 config_type=initial n_minim_iter=6 energy=-2925.654473043819 stress="0.001021150985317893 2.3921412183381776e-12 -1.5285609283515412e-12 2.3921412183381776e-12 0.0008093014538095906 1.407697658570778e-13 -1.5285609283515412e-12 1.407697658570778e-13 -0.0012799667655077483" free_energy=-2925.654473043819 pbc="T T T"
Si       3.81571812       7.12980201       9.78005743      -0.03173801       0.01673973       0.28485426
Si       1.56289871       7.12980201       0.64614608       0.03173801       0.01673973      -0.28485426
Si       4.25220712       7.12980201       4.56695567       0.03173801       0.01673973       0.28485426
Si       1.12640971       7.12980201       5.85924784      -0.03173801       0.01673974      -0.28485426
Si       0.00567368       1.61389513       1.19922346       0.19468447       0.11768251       0.40136797
Si       5.37294315       1.61389513       9.22698005      -0.19468447       0.11768252      -0.40136797
Si       2.68363474       1.61389513       6.41232522      -0.19468447       0.11768251       0.40136797
Si       2.69498209       1.61389513       4.01387829       0.19468447       0.11768251      -0.40136797
Si       1.56334514       5.53394403       2.57928433       0.13038206      -0.29376242       0.12055536
Si       3.81527169       5.53394403       7.84691919      -0.13038206      -0.29376242      -0.12055537
Si       1.12596327       5.53394403       7.79238608      -0.13038206      -0.29376242       0.12055537
Si       4.25265355       5.53394403       2.63381743       0.13038206      -0.29376242      -0.12055537
Si       3.53394404       0.33370000       1.92178645      -0.17922528       0.24494817      -0.01150004
Si       1.84467279       0.33370000       8.50441706       0.17922528       0.24494817       0.01150004
Si      -0.84463562       0.33370000       7.13488821       0.17922527       0.24494817      -0.01150004
Si       6.22325245       0.33370000       3.29131530      -0.17922528       0.24494817       0.01150004
Si      -0.00000000       5.21687549       0.00000000      -0.00000000      -0.17121600      -0.00000000
Si       2.68930841       5.21687549       5.21310176       0.00000000      -0.17121600       0.00000000
18
Lattice="5.2532484914317505 0.0 0.0 0.0 7.225134163536818 -9.01475496478671e-18 0.0 1.2368628192985316e-17 10.655376414558235" Properties=species:S:1:pos:R:3:forces:R:3 unique_starting_index=36 config_type=initial n_minim_iter=7 energy=-2925.7329320531812 stress="-0.007203084895342307 4.28222353735881e-12 5.3515132900274136e-12 4.28222353735881e-12 -0.0023263118862404016 2.8201049184884363e-12 5.3515132900274136e-12 2.8201049184884363e-12 0.0041383125505055" free_energy=-2925.7329320531812 pbc="T T T"
Si       3.71825819       6.98084854      10.01980380       0.16981178      -0.11113578       0.30447756
Si       1.53499030       6.98084854       0.63557261      -0.16981177      -0.11113578      -0.30447756
Si       4.16161455       6.98084854       4.69211559      -0.16981177      -0.11113578       0.30447756
Si       1.09163394       6.98084854       5.96326082       0.16981177      -0.11113578      -0.30447756
Si       0.01324496       1.60556347       1.23485586       0.35216309       0.30621114      -0.06306765
Si       5.24000353       1.60556347       9.42052055      -0.35216310       0.30621113       0.06306765
Si       2.61337928       1.60556347       6.56254407      -0.35216310       0.30621114      -0.06306765
Si       2.63986921       1.60556347       4.09283235       0.35216309       0.30621114       0.06306765
Si       1.53823252       5.40499397       2.63706552       0.17317867      -0.35734907      -0.01395546
Si       3.71501598       5.40499397       8.01831090      -0.17317867      -0.35734907       0.01395546
Si       1.08839173       5.40499397       7.96475372      -0.17317867      -0.35734907      -0.01395546
Si       4.16485676       5.40499397       2.69062269       0.17317867      -0.35734907       0.01395546
Si       3.43916938       0.34632722       1.97182557      -0.12062560       0.16948588       0.12876029
Si       1.81407911       0.34632722       8.68355085       0.12062560       0.16948588      -0.12876029
Si      -0.81254514       0.34632722       7.29951378       0.12062560       0.16948588       0.12876029
Si       6.06579363       0.34632722       3.35586264      -0.12062560       0.16948588      -0.12876029
Si      -0.00000000       5.06563846       0.00000000      -0.00000000      -0.01442432       0.00000000
Si       2.62662425       5.06563846       5.32768821       0.00000000      -0.01442432       0.00000000
18
Lattice="5.2304444819444065 0.0 0.0 0.0 6.826930274872764 -1.0129573673628698e-17 0.0 1.0250445708353903e-17 10.610346471076868" Properties=species:S:1:pos:R:3:forces:R:3 unique_starting_index=36 config_type=initial n_minim_iter=8 energy=-2925.991360570246 stress="-0.004847276864933611 -6.199813743659424e-12 -5.352171958029347e-12 -6.199813743659424e-12 -0.0004881766598654243 1.6954242538788991e-13 -5.352171958029347e-12 1.6954242538788991e-13 -0.002272408360302742" free_energy=-2925.991360570246 pbc="T T T"
Si       3.68480904       6.57093249      10.06101217       0.53090162      -0.19318330      -0.25370041
Si       1.54563544       6.57093249       0.54933430      -0.53090162      -0.19318330       0.25370041
Si       4.16085768       6.57093249       4.75583893      -0.53090162      -0.19318330      -0.25370041
Si       1.06958680       6.57093249       5.85450754       0.53090161      -0.19318330       0.25370041
Si       0.03680917       1.61263673       1.21984917       0.22736798       0.29859066       0.03157941
Si       5.19363531       1.61263673       9.39049730      -0.22736798       0.29859066      -0.03157941
Si       2.57841307       1.61263673       6.52502241      -0.22736798       0.29859066       0.03157941
Si       2.65203141       1.61263673       4.08532406       0.22736798       0.29859066      -0.03157941
Si       1.57316202       5.04886324       2.60918290       0.22024005      -0.64728029       0.02688078
Si       3.65728246       5.04886324       8.00116357      -0.22024005      -0.64728029      -0.02688078
Si       1.04206022       5.04886324       7.91435613      -0.22024005      -0.64728029       0.02688078
Si       4.18838426       5.04886324       2.69599034       0.22024005      -0.64728029      -0.02688078
Si       3.39137580       0.38650994       2.00326750       0.06401229       0.23296556      -0.09431354
Si       1.83906868       0.38650994       8.60707897      -0.06401229       0.23296556       0.09431354
Si      -0.77615356       0.38650994       7.30844073      -0.06401229       0.23296556      -0.09431354
Si       6.00659804       0.38650994       3.30190574       0.06401229       0.23296556       0.09431354
Si      -0.00000000       4.64362286       0.00000000      -0.00000000       0.61781474      -0.00000000
Si       2.61522224       4.64362286       5.30517324       0.00000000       0.61781474       0.00000000
18
Lattice="5.317578413488741 0.0 0.0 0.0 6.816344495075311 -1.0479364798911556e-17 0.0 9.56069801958062e-18 10.467856856707824" Properties=species:S:1:pos:R:3:forces:R:3 unique_starting_index=36 config_type=initial n_minim_iter=9 energy=-2926.043726605348 stress="0.003717484525380662 7.884286009204302e-12 -2.130183542746211e-12 7.884286009204302e-12 0.0003906250881972074 -2.4252486759770013e-12 -2.130183542746211e-12 -2.4252486759770013e-12 -0.004270605418134819" free_energy=-2926.043726605348 pbc="T T T"
Si       3.75057286       6.56446752       9.93710508       0.44229313      -0.16503733      -0.37016611
Si       1.56700556       6.56446752       0.53075178      -0.44229313      -0.16503733       0.37016611
Si       4.22579476       6.56446752       4.70317665      -0.44229313      -0.16503733      -0.37016611
Si       1.09178365       6.56446752       5.76468021       0.44229313      -0.16503733       0.37016611
Si       0.05710140       1.60840142       1.23847923       0.02242426       0.34377611      -0.16187957
Si       5.26047701       1.60840142       9.22937763      -0.02242426       0.34377611       0.16187957
Si       2.60168781       1.60840142       6.47240766      -0.02242426       0.34377611      -0.16187957
Si       2.71589061       1.60840142       3.99544920       0.02242426       0.34377611       0.16187957
Si       1.60723140       5.02121250       2.59026677       0.23754262      -0.53519049       0.06508321
Si       3.71034702       5.02121250       7.87759008      -0.23754262      -0.53519049      -0.06508321
Si       1.05155781       5.02121250       7.82419520      -0.23754262      -0.53519049       0.06508321
Si       4.26602060       5.02121250       2.64366165       0.23754263      -0.53519049      -0.06508321
Si       3.43538068       0.39885577       1.96813263       0.22231731       0.08020739      -0.20525419
Si       1.88219773       0.39885577       8.49972423      -0.22231731       0.08020739       0.20525419
Si      -0.77659148       0.39885577       7.20206106      -0.22231731       0.08020739      -0.20525419
Si       6.09416989       0.39885577       3.26579580       0.22231731       0.08020739       0.20525419
Si      -0.00000000       4.64619804       0.00000000      -0.00000000       0.55248864       0.00000000
Si       2.65878921       4.64619804       5.23392843       0.00000000       0.55248864      -0.00000000
18
Lattice="5.231491974323995 0.0 0.0 0.0 6.586889455913972 -1.119077906873819e-17 0.0 8.685439175349578e-18 10.699909151444313" Properties=species:S:1:pos:R:3:forces:R:3 unique_starting_index=36 config_type=initial n_minim_iter=10 energy=-2926.1343439692155 stress="-0.0007032764327140245 1.6199341943791886e-11 -4.113311308871059e-13 1.6199341943791886e-11 -0.002923647180124197 4.832927359351564e-12 -4.113311308871059e-13 4.832927359351564e-12 0.0021449827053587806" free_energy=-2926.1343439692155 pbc="T T T"
Si       3.69841370       6.32381026      10.18492912       0.22571239      -0.05523409      -0.52866230
Si       1.53307827       6.32381026       0.51498003      -0.22571238      -0.05523409       0.52866230
Si       4.14882426       6.32381026       4.83497454      -0.22571239      -0.05523409      -0.52866230
Si       1.08266771       6.32381026       5.86493461       0.22571238      -0.05523409       0.52866230
Si       0.06956493       1.61473629       1.24794134       0.15029942       0.19495833      -0.09706453
Si       5.16192704       1.61473629       9.45196781      -0.15029942       0.19495833       0.09706453
Si       2.54618105       1.61473629       6.59789591      -0.15029942       0.19495833      -0.09706453
Si       2.68531092       1.61473629       4.10201324       0.15029942       0.19495833       0.09706453
Si       1.61118585       4.80733677       2.63727395       0.15664292      -0.27441388       0.04448998
Si       3.62030612       4.80733677       8.06263520      -0.15664292      -0.27441387      -0.04448998
Si       1.00456014       4.80733677       7.98722853      -0.15664292      -0.27441388       0.04448998
Si       4.22693184       4.80733677       2.71268062       0.15664292      -0.27441387      -0.04448998
Si       3.37072812       0.41753815       2.02724571       0.20499845       0.00904854      -0.26235444
Si       1.86076385       0.41753815       8.67266345      -0.20499845       0.00904855       0.26235444
Si      -0.75498214       0.41753815       7.37720028      -0.20499845       0.00904855      -0.26235444
Si       5.98647411       0.41753815       3.32270887       0.20499845       0.00904855       0.26235444
Si      -0.00000000       4.43368313       0.00000000      -0.00000000       0.25128217      -0.00000000
Si       2.61574599       4.43368313       5.34995458       0.00000000       0.25128217       0.00000000
18
Lattice="5.251435776434264 0.0 0.0 0.0 6.744421629656917 -1.2355957444522629e-17 0.0 7.260610405685315e-18 10.690871960174011" Properties=species:S:1:pos:R:3:forces:R:3 unique_starting_index=36 config_type=initial n_minim_iter=11 energy=-2926.254170260889 stress="0.006459111542159858 -6.1993582180248445e-12 -1.0341013643108116e-11 -6.1993582180248445e-12 0.004986664976733558 -2.6819076555392365e-12 -1.0341013643108116e-11 -2.6819076555392365e-12 0.010224828531616756" free_energy=-2926.254170260889 pbc="T T T"
Si       3.73574973       6.48011581      10.13222838      -0.13906829       0.02806829      -0.22177133
Si       1.51568605       6.48011581       0.55864358       0.13906828       0.02806829       0.22177133
Si       4.14140394       6.48011581       4.78679240       0.13906829       0.02806829      -0.22177133
Si       1.11003184       6.48011581       5.90407956      -0.13906829       0.02806829       0.22177133
Si       0.07167073       1.62910792       1.25157548       0.11338813       0.08720991      -0.01510955
Si       5.17976505       1.62910792       9.43929648      -0.11338813       0.08720991       0.01510955
Si       2.55404716       1.62910792       6.59701146      -0.11338813       0.08720991      -0.01510955
Si       2.69738862       1.62910792       4.09386050       0.11338813       0.08720991       0.01510955
Si       1.61280082       4.92249998       2.64708557       0.17508809      -0.20728313       0.04506478
Si       3.63863496       4.92249998       8.04378639      -0.17508809      -0.20728313      -0.04506478
Si       1.01291707       4.92249998       7.99252155      -0.17508809      -0.20728313       0.04506478
Si       4.23851870       4.92249998       2.69835041       0.17508809      -0.20728313      -0.04506478
Si       3.40026288       0.41123857       2.00051701       0.09617447      -0.06604095      -0.05803770
Si       1.85117290       0.41123857       8.69035495      -0.09617447      -0.06604095       0.05803770
Si      -0.77454499       0.41123857       7.34595299      -0.09617447      -0.06604095      -0.05803770
Si       6.02598077       0.41123857       3.34491897       0.09617447      -0.06604095       0.05803770
Si      -0.00000000       4.61027083       0.00000000       0.00000000       0.31609175      -0.00000000
Si       2.62571789       4.61027083       5.34543598      -0.00000000       0.31609175      -0.00000000
18
Lattice="5.2425535474255724 0.0 0.0 0.0 6.776052353674479 -1.2657929234579379e-17 0.0 6.612516714696141e-18 10.531441321904417" Properties=species:S:1:pos:R:3:forces:R:3 unique_starting_index=36 config_type=initial n_minim_iter=12 energy=-2926.3343573843613 stress="0.0016944174763718512 3.0387221912703323e-12 -3.3349253135184346e-12 3.0387221912703323e-12 0.004337007485325372 5.79928007362511e-12 -3.3349253135184346e-12 5.79928007362511e-12 0.0035340961689469515" free_energy=-2926.3343573843613 pbc="T T T"
Si       3.74646133       6.51027657       9.96176781      -0.29982742       0.13245574      -0.09715847
Si       1.49609221       6.51027657       0.56967351       0.29982742       0.13245574       0.09715847
Si       4.11736899       6.51027657       4.69604715       0.29982742       0.13245574      -0.09715847
Si       1.12518456       6.51027657       5.83539418      -0.29982742       0.13245574       0.09715847
Si       0.08648587       1.64000923       1.24586366       0.04334957       0.11367846      -0.00676548
Si       5.15606768       1.64000923       9.28557766      -0.04334958       0.11367846       0.00676548
Si       2.53479090       1.64000923       6.51158432      -0.04334958       0.11367846      -0.00676548
Si       2.70776265       1.64000923       4.01985700       0.04334957       0.11367846       0.00676548
Si       1.62152579       4.92141346       2.62188283       0.15099668      -0.13569260       0.08385259
Si       3.62102776       4.92141346       7.90955849      -0.15099668      -0.13569260      -0.08385259
Si       0.99975098       4.92141346       7.88760349      -0.15099668      -0.13569260       0.08385259
Si       4.24280256       4.92141346       2.64383783       0.15099668      -0.13569260      -0.08385259
Si       3.39963316       0.41658866       1.95455321       0.14623475      -0.14578449       0.00775600
Si       1.84292039       0.41658866       8.57688812      -0.14623475      -0.14578449      -0.00775600
Si      -0.77835639       0.41658866       7.22027387      -0.14623475      -0.14578449       0.00775600
Si       6.02090993       0.41658866       3.31116746       0.14623475      -0.14578449      -0.00775600
Si      -0.00000000       4.66733385       0.00000000      -0.00000000       0.07068579      -0.00000000
Si       2.62127677       4.66733385       5.26572066       0.00000000       0.07068579       0.00000000
18
Lattice="5.237521175578698 0.0 0.0 0.0 6.691741975422125 -1.278312122365726e-17 0.0 6.262369462148591e-18 10.465388448369147" Properties=species:S:1:pos:R:3:forces:R:3 unique_starting_index=36 config_type=initial n_minim_iter=13 energy=-2926.3570277959743 stress="-0.0014161773378053755 -5.8626972079414404e-12 -9.06136765754985e-12 -5.8626972079414404e-12 -0.0025426005582875827 -1.0963139798939204e-11 -9.06136765754985e-12 -1.0963139798939204e-11 -0.0015616451030568527" free_energy=-2926.3570277959743 pbc="T T T"
Si       3.74636204       6.42506633       9.89992551      -0.39124073       0.18009627      -0.13511011
Si       1.49115913       6.42506633       0.56546294       0.39124073       0.18009627       0.13511011
Si       4.10991972       6.42506633       4.66723129       0.39124073       0.18009627      -0.13511011
Si       1.12760145       6.42506633       5.79815716      -0.39124073       0.18009627       0.13511011
Si       0.09868487       1.64322362       1.24002203       0.00828218       0.08955628       0.02763585