20
Lattice="6.9788764599124 0.876880079382908 0.7594563653430859 2.0389020638620448 5.226577527828334 1.2012918816269833 5.015014616477749 4.656296450027269 13.25984649119686" Properties=species:S:1:pos:R:3:forces:R:3 unique_starting_index=222 config_type=initial n_minim_iter=4 energy=-3258.4789874073695 stress="-6.478484303717517e-05 -3.6869144413825125e-05 -8.700700166068811e-05 -3.6869144413825125e-05 -5.607264675960614e-05 -0.00015176465421572137 -8.700700166068811e-05 -0.00015176465421572137 -0.0001894555661414528" free_energy=-3258.4789874073695 pbc="T T T"
Si       9.08101348       7.60303956       7.63895513       0.00131848      -0.00796067       0.00488507
Si       4.95177967       3.15671449       7.58163961      -0.00131848       0.00796067      -0.00488507
Si      10.84159449       6.66977004      10.67765265      -0.00229701       0.00005843      -0.00853536
Si       3.19119865       4.08998402       4.54294208       0.00229701      -0.00005843       0.00853536
Si       4.81831070       2.26435044       1.79527426      -0.00189514       0.00242925       0.00169690
Si       9.21448244       8.49540362      13.42532048       0.00189513      -0.00242925      -0.00169690
Si      12.66882266       9.77854391      12.98223328       0.00139289       0.00577485      -0.00433798
Si       1.36397048       0.98121015       2.23836146      -0.00139289      -0.00577485       0.00433798
Si       8.52576557       6.97159040      10.04500211      -0.00342288       0.00496986      -0.00336369
Si       5.50702757       3.78816366       5.17559263       0.00342288      -0.00496986       0.00336369
Si       6.51286820       3.33555864       3.03024478       0.00580606       0.00031627       0.00419902
Si       7.51992494       7.42419541      12.19034996      -0.00580606      -0.00031627      -0.00419902
Si       7.82548139       4.96308893       9.10686814      -0.00495161      -0.00136602       0.00383866
Si       6.20731175       5.79666513       6.11372660       0.00495161       0.00136602      -0.00383867
Si       3.13313501       2.04779858       3.40346715       0.00497103      -0.00463831      -0.00053208
Si      10.89965813       8.71195547      11.81712759      -0.00497103       0.00463831       0.00053208
Si       5.56290771       5.31053438       8.36423972      -0.00151734       0.00834778       0.00105994
Si       8.46988543       5.44921968       6.85635502       0.00151734      -0.00834778      -0.00105994
Si       6.67615960       5.41616827       1.86900613       0.00066070      -0.00167168       0.00290711
Si       7.35663354       5.34358579      13.35158861      -0.00066070       0.00167168      -0.00290711
