12
Lattice="2.535055602849574 0.060481387950258474 -0.4063435431593991 0.08009672712002922 7.190765799230746 -0.1727292737894581 -0.10744633023818739 -0.0580224522491844 16.596954314490343" Properties=species:S:1:pos:R:3:forces:R:3 unique_starting_index=344 config_type=initial n_minim_iter=1 energy=-1952.1942953586733 stress="-0.00014594600681259407 -0.0001164607156444363 -6.446574858929395e-05 -0.0001164607156444363 -4.021822674177695e-05 -0.0001656793116217611 -6.446574858929395e-05 -0.0001656793116217611 -0.00023656139167517384" free_energy=-1952.1942953586733 pbc="T T T"
Si       2.24879196       0.99325268       0.54847194      -0.00890463       0.03915551       0.05363485
Si       2.24833128      -1.46816494      16.42930274      -0.00258633      -0.03192082       0.05664625
Si       1.19654197       4.71663158      14.01970712       0.03360239       0.00017148      -0.00559444
Si       0.48765904       4.21881731       9.61875089       0.00458637       0.01903766       0.00031426
Si       2.01499243       3.24910707      -0.67245662      -0.00785943      -0.06082591       0.04643626
Si       0.07794492       2.16443030       5.84404381       0.01824744      -0.00175094      -0.02330280
Si       0.96978974       3.76328550       7.39312901       0.01931385      -0.01849469      -0.06985844
Si       0.12697521       5.92384563       2.61357033      -0.02707962       0.00421573      -0.02289780
Si       2.69399429       1.22900944       3.12156868      -0.00537206      -0.00568742      -0.02454306
Si       2.20046546       3.47489891       1.87862706       0.01918582      -0.02967189      -0.03732037
Si       1.67015365       4.12855580       4.35555657      -0.01619974       0.05869574       0.01053847
Si       1.66843617       4.61258396      11.65125343      -0.02693405       0.02707555       0.01594683
12
Lattice="2.535760709940812 0.06094435686818831 -0.4061880214390579 0.08178101560854915 7.191308748944205 -0.1704063904554709 -0.10534008313802457 -0.052525255520374216 16.604813104245704" Properties=species:S:1:pos:R:3:forces:R:3 unique_starting_index=344 config_type=initial n_minim_iter=2 energy=-1952.1944556617764 stress="0.0006564089988911388 3.939085221874277e-06 4.932455407263364e-05 3.939085221874277e-06 0.0002078788256952287 7.217598071164039e-05 4.932455407263364e-05 7.217598071164039e-05 0.000820164258847432" free_energy=-1952.1944556617764 pbc="T T T"
Si       2.24969607       0.99430261       0.54971196      -0.00828407       0.03271149       0.05650447
Si       2.25075954      -1.46249841      16.43729441      -0.00231409      -0.03247125       0.05279938
Si       1.20003783       4.72196319      14.02806226       0.02818632       0.00242737      -0.01258423
Si       0.49006697       4.22260257       9.62479499       0.00015674       0.01586279      -0.00253992
Si       2.01620453       3.24921317      -0.67112436      -0.00669482      -0.05450897       0.04174870
Si       0.07935332       2.16655813       5.84739857       0.02180136       0.00514883      -0.01630004
Si       0.97204182       3.76615584       7.39755862       0.02371075      -0.02109504      -0.05549748
Si       0.12855770       5.92525289       2.61664993      -0.02815038       0.00563128      -0.02320883
Si       2.69544107       1.23074110       3.12364818      -0.00662071      -0.00516206      -0.02217719
Si       2.20229539       3.47612331       1.88071442       0.01888461      -0.02749651      -0.03617178
Si       1.67206687       4.13112160       4.35928928      -0.01834248       0.05739909       0.00736378
Si       1.67133642       4.61740777      11.65865220      -0.02233324       0.02155299       0.01006314
12
Lattice="2.532881889540129 0.06374376683607189 -0.4043752181506678 0.09154587420457505 7.188174328230963 -0.15815396933030965 -0.09595168759069121 -0.024751758130440955 16.593113597533964" Properties=species:S:1:pos:R:3:forces:R:3 unique_starting_index=344 config_type=initial n_minim_iter=3 energy=-1952.1951113913892 stress="-0.001014815772448818 0.0003507996631912608 0.0004589736861021927 0.0003507996631912608 -0.0004857622803592946 0.0007187405841419586 0.0004589736861021927 0.0007187405841419586 -5.603409139902906e-05" free_energy=-1952.1951113913892 pbc="T T T"
Si       2.24848813       0.99995896       0.55521366      -0.00662849      -0.00768826       0.04694325
Si       2.25542559      -1.43289536      16.42767343      -0.00369665      -0.01738260       0.03124150
Si       1.21491231       4.74529034      14.02651466       0.00384195       0.00505734       0.00570062
Si       0.50098481       4.23869652       9.62545114      -0.00095465       0.00895633      -0.02111472
Si       2.01773589       3.24634124      -0.66162280      -0.00279101      -0.02920872       0.01708837
Si       0.08659321       2.17560307       5.84585736       0.03021161      -0.01963084       0.01769365
Si       0.98147087       3.77733497       7.39571504       0.01431596      -0.02485831      -0.03327088
Si       0.13660984       5.92763010       2.62361806      -0.02718956       0.01446337      -0.01755724
Si       2.69568584       1.23890678       3.12376687      -0.00473363      -0.00062124       0.00038191
Si       2.20681712       3.47932137       1.88448416       0.01473519      -0.01454728      -0.02962858
Si       1.67753241       4.14221227       4.36467264      -0.01291454       0.06249371      -0.00579550
Si       1.68109780       4.63879011      11.66002416      -0.00419619       0.02296651      -0.01168238
12
Lattice="2.5374435155963657 0.0644934411380574 -0.4065047008615251 0.09281173607419509 7.195425123782809 -0.1642482195991631 -0.11324619946639679 -0.03922529142491102 16.571355226880723" Properties=species:S:1:pos:R:3:forces:R:3 unique_starting_index=344 config_type=initial n_minim_iter=4 energy=-1952.1959108535834 stress="0.001192993067147009 0.0002498518771736118 -0.0003263302929435228 0.0002498518771736118 -0.00023032291071452125 0.00021675549445652166 -0.0003263302929435228 0.00021675549445652166 -0.0009574245304584969" free_energy=-1952.1959108535834 pbc="T T T"
Si       2.25118205       1.00267459       0.55473219      -0.01144736      -0.03597254       0.01360709
Si       2.24177564      -1.45021068      16.40823207      -0.00114935      -0.00308464       0.00923089
Si       1.20479541       4.73803999      14.00231626      -0.01022383      -0.00386970       0.03098721
Si       0.49258896       4.23564048       9.60832515      -0.00563985       0.01169761      -0.03264889
Si       2.02170408       3.24691952      -0.66304398      -0.01055131      -0.01117054      -0.00887517
Si       0.08235209       2.17248854       5.83524114       0.01700964      -0.00563363      -0.02000814
Si       0.97720026       3.77345395       7.37782824       0.01267381      -0.00254422       0.00567590
Si       0.13314536       5.93162213       2.61347861      -0.01833173      -0.01069186       0.01182205
Si       2.69666524       1.23746399       3.11453228       0.00080750      -0.00278312       0.00330264
Si       2.21011688       3.47969669       1.87442053       0.01610783       0.00275355       0.01042483
Si       1.67527636       4.14653135       4.35406771      -0.01156195       0.03863757      -0.00562742
Si       1.67100648       4.63505742      11.63954477       0.02230660       0.02266151      -0.01789100
12
Lattice="2.5347347469931525 0.06354666449313957 -0.40696809508984466 0.0888187747359435 7.201395953618199 -0.17117901526540308 -0.11297912713451155 -0.05479514815111815 16.588779665078363" Properties=species:S:1:pos:R:3:forces:R:3 unique_starting_index=344 config_type=initial n_minim_iter=5 energy=-1952.1964416991573 stress="0.00020420124012822836 -1.4922559312972918e-06 -0.00024635304373453346 -1.4922559312972918e-06 0.0004908590275029892 -3.649424535142523e-05 -0.00024635304373453346 -3.649424535142523e-05 -5.433336151674838e-05" free_energy=-1952.1964416991573 pbc="T T T"
Si       2.24806799       1.00202720       0.55540978      -0.00942845      -0.03469428       0.01720362
Si       2.24026937      -1.46858829      16.42776754      -0.00865302      -0.00922343       0.00873136
Si       1.20146525       4.72808140      14.01264537      -0.00452573      -0.00748200       0.04068641
Si       0.48986074       4.23012412       9.61416409      -0.00204318       0.00992240      -0.03845082
Si       2.01764432       3.24810657      -0.66613395      -0.01694958      -0.00643209      -0.02097831
Si       0.08161810       2.16861635       5.83901425       0.00555777       0.01229523      -0.04802306
Si       0.97459611       3.76866790       7.38103634       0.00893507       0.00693742       0.02755533
Si       0.12922929       5.93399634       2.61032224      -0.01575513      -0.01352874       0.01485337
Si       2.69308569       1.23398008       3.11635960      -0.00090916      -0.00218411       0.00486419
Si       2.20632780       3.47912317       1.87256196       0.01853625       0.00191068       0.00954292
Si       1.67095869       4.14616555       4.35483224      -0.00534416       0.02590613      -0.00266714
Si       1.66658177       4.62752923      11.64746644       0.03057932       0.01657280      -0.01331786
12
Lattice="2.534063323769455 0.06281046349098117 -0.40538444358218023 0.08628446835456599 7.190045095201186 -0.1748457463424704 -0.10069631650286981 -0.06301490627587164 16.59921865378684" Properties=species:S:1:pos:R:3:forces:R:3 unique_starting_index=344 config_type=initial n_minim_iter=6 energy=-1952.1966994683173 stress="-1.1634105595482978e-05 -3.2105908916852276e-05 9.886158773696358e-05 -3.2105908916852276e-05 -0.0002011484512684963 -7.522818165852415e-05 9.886158773696358e-05 -7.522818165852415e-05 0.0001496158329483972" free_energy=-1952.1966994683173 pbc="T T T"
Si       2.24765152       0.99893496       0.55742574      -0.00984386      -0.02383879       0.01883228
Si       2.25243703      -1.47551752      16.44089242      -0.00594032      -0.01901517       0.00721027
Si       1.21007409       4.71305131      14.02063483      -0.00850786      -0.00835680       0.03035232
Si       0.49545641       4.21864063       9.61783464       0.00401887       0.01101854      -0.02276336
Si       2.01551809       3.24231995      -0.66686673      -0.01599651      -0.00536741      -0.02688897
Si       0.08542139       2.16232412       5.84098666       0.00147200       0.01019833      -0.04627627
Si       0.97887819       3.75864613       7.38469435       0.01166567       0.01172396       0.02732595
Si       0.12878647       5.92309102       2.60920674      -0.01755303      -0.01556570       0.00742258
Si       2.69456698       1.22951896       3.11972863      -0.00213507       0.01106149       0.00942962
Si       2.20660989       3.47186767       1.87360759       0.01482948      -0.00514729       0.00140220
Si       1.67240827       4.13756532       4.35669370       0.00228372       0.02160715       0.00588940
Si       1.67380704       4.61416841      11.65352422       0.02570690       0.01168169      -0.01193602
12
Lattice="2.532628337596482 0.06327900097537106 -0.4053062909449688 0.08820653868675772 7.198506372515234 -0.16957041067541714 -0.10149099826557792 -0.05108771695756702 16.592531495616836" Properties=species:S:1:pos:R:3:forces:R:3 unique_starting_index=344 config_type=initial n_minim_iter=7 energy=-1952.1973704507645 stress="-0.0006570977256120234 9.506949039857848e-05 0.0002933034064962719 9.506949039857848e-05 0.00018966819385293792 0.00023809177678893115 0.0002933034064962719 0.00023809177678893115 -0.00017777010187104323" free_energy=-1952.1973704507645 pbc="T T T"
Si       2.24516982       0.99960550       0.56221243      -0.00853732      -0.03676664       0.00245023
Si       2.24908282      -1.46772564      16.43636115      -0.01492392      -0.00613288      -0.00257353
Si       1.21045310       4.72840959      14.02165644       0.00082242       0.00074693       0.00651000
Si       0.49614654       4.23267512       9.61388054       0.01085167       0.00878396      -0.00069950
Si       2.01327923       3.24306573      -0.66497889      -0.01095091      -0.01183538      -0.01691394
Si       0.08704976       2.16998736       5.83482635       0.01458396       0.02755283      -0.00564360
Si       0.98100207       3.76876915       7.38427288      -0.00249110      -0.00324576      -0.00073462
Si       0.12711763       5.93084919       2.61242966      -0.01356735      -0.00116759       0.02166634
Si       2.69275352       1.23441855       3.11913009      -0.00695800      -0.00291901       0.00433164
Si       2.20871465       3.47643678       1.87400823       0.01024046       0.00331715      -0.00072307
Si       1.67152415       4.15142562       4.35846533       0.01261191       0.01177189      -0.00268695
Si       1.67529276       4.63121619      11.65124459       0.00831817       0.00989451      -0.00498299
12
Lattice="2.5327962641595807 0.06265249540918358 -0.407721175493755 0.0861494100430675 7.195381492188399 -0.17284214819848387 -0.11581471995217409 -0.058227535056881996 16.60069740170021" Properties=species:S:1:pos:R:3:forces:R:3 unique_starting_index=344 config_type=initial n_minim_iter=8 energy=-1952.1977521083709 stress="-0.00037499455777615694 1.3759106639399547e-05 -0.0001571937950542035 1.3759106639399547e-05 -9.661023453975346e-05 0.0002013713767605585 -0.0001571937950542035 0.0002013713767605585 2.4773962520374037e-05" free_energy=-1952.1977521083709 pbc="T T T"
Si       2.24312377       0.99653194       0.56303740      -0.01109448      -0.03156361      -0.00902151
Si       2.23440020      -1.47696241      16.44510966      -0.02026859      -0.00506294      -0.01059312
Si       1.19710807       4.71937010      14.02772390       0.01540125       0.00266744      -0.01864266
Si       0.48686800       4.22791763       9.61413708       0.01363458       0.00702666       0.00576272
Si       2.01120668       3.23903366      -0.66920417      -0.01451280      -0.02045610      -0.01347440
Si       0.08248235       2.16753259       5.83284838       0.01641165       0.03064627       0.00228590
Si       0.97475145       3.76362380       7.38539896      -0.00762311       0.00416251       0.00569381
Si       0.12076659       5.92615696       2.61143359      -0.00768167       0.00031818       0.02731050
Si       2.68911955       1.23194661       3.11778831      -0.00231145       0.00240640       0.00204599
Si       2.20776440       3.47249317       1.87075636       0.00623383       0.00284651       0.00116565
Si       1.66601926       4.15090567       4.35769872       0.01189647       0.00032392      -0.00127269
Si       1.66510574       4.62554342      11.65275232      -0.00008568       0.00668476       0.00873978
12
Lattice="2.5337775621517755 0.062421968703479186 -0.40667375149485707 0.08411884466660509 7.197183930118127 -0.18091068198393084 -0.10858224574011943 -0.0769204155768027 16.600481244213256" Properties=species:S:1:pos:R:3:forces:R:3 unique_starting_index=344 config_type=initial n_minim_iter=9 energy=-1952.1979366881103 stress="0.00028082215919349483 -1.2291918255258186e-05 7.57138828716649e-05 -1.2291918255258186e-05 0.00013335242378144106 -0.0001475402641517752 7.57138828716649e-05 -0.0001475402641517752 -3.984586717630621e-05" free_energy=-1952.1979366881103 pbc="T T T"
Si       2.24300979       0.99343134       0.56514412      -0.01138350      -0.01612019      -0.02425777
Si       2.24207423      -1.49826790      16.44901575      -0.01812657      -0.00920122      -0.00999952
Si       1.20291679       4.70387446      14.02451941       0.01697383      -0.00093032      -0.02655579
Si       0.49063549       4.21921488       9.60764140       0.01844489       0.01101510       0.03754604
Si       2.00939293       3.23782500      -0.67297817      -0.01227593      -0.02603276      -0.00806507
Si       0.08565016       2.16283594       5.82705971       0.01377134       0.05039166       0.00493418
Si       0.97841614       3.75606127       7.38184980      -0.00546958       0.00694341      -0.01469191
Si       0.11830235       5.92368331       2.60562656      -0.00640003      -0.00441975       0.03242203
Si       2.69105155       1.22825873       3.11763999      -0.00705721      -0.00223930      -0.00983578
Si       2.21033039       3.46987210       1.86728902       0.00208042       0.00077768       0.00013045
Si       1.66744814       4.14953078       4.35397240       0.01945857      -0.01136817       0.00360147
Si       1.67102632       4.61470721      11.64760585      -0.01001623       0.00118387       0.01477168
12
Lattice="2.5331336669460445 0.06188311591948761 -0.40868505118854764 0.08341495730497658 7.191779819636265 -0.17729874805431584 -0.1206880354245875 -0.06821039294879085 16.608156876657056" Properties=species:S:1:pos:R:3:forces:R:3 unique_starting_index=344 config_type=initial n_minim_iter=10 energy=-1952.1983658950562 stress="-0.00013471554526749542 7.965243649083613e-06 -0.0003402045484396437 7.965243649083613e-06 -0.0004892020101870593 0.00016013632759344045 -0.0003402045484396437 0.00016013632759344045 0.00022725338949016998" free_energy=-1952.1983658950562 pbc="T T T"
Si       2.24049783       0.99019463       0.56307406      -0.01106609      -0.00991574      -0.01055232
Si       2.22764198      -1.48983608      16.45340283      -0.01778247      -0.01097091      -0.00229970
Si       1.19277855       4.70743102      14.03136232       0.01497632      -0.00189103      -0.02365607
Si       0.48441395       4.22208948       9.61550007       0.00069773       0.00313303       0.00321261
Si       2.00733978       3.23281451      -0.67457567      -0.01059721      -0.02932258      -0.00405404
Si       0.08242127       2.16813446       5.83017490       0.01562829       0.00675178       0.01426650
Si       0.97193519       3.75774723       7.38652440       0.00535626       0.01982885       0.01710370
Si       0.11471883       5.92010149       2.61264432      -0.00717771       0.00700071       0.01490524
Si       2.68713262       1.22880766       3.11752509      -0.00169671       0.00988723      -0.00252437
Si       2.20839984       3.46814008       1.86848217      -0.00107318      -0.00366233      -0.00935435
Si       1.66464364       4.14845912       4.35712905       0.00541099       0.00458146      -0.00549019
Si       1.66148672       4.61773267      11.65484623       0.00732379       0.00457953       0.00844299
12
Lattice="2.533419686755442 0.06026441257916983 -0.4067892105494818 0.07717823549153756 7.205548176334042 -0.18476394040164495 -0.10902684981267001 -0.08576757719616479 16.60070382656239" Properties=species:S:1:pos:R:3:forces:R:3 unique_starting_index=344 config_type=initial n_minim_iter=11 energy=-1952.199340436951 stress="-2.4674822515504028e-05 3.486406042201959e-05 7.908009127906704e-05 3.486406042201959e-05 0.00011730692417060443 -4.157942476016024e-05 7.908009127906704e-05 -4.157942476016024e-05 -4.511488452677743e-05" free_energy=-1952.199340436951 pbc="T T T"
Si       2.23439630       0.97950406       0.56681002      -0.00626256       0.01210958      -0.02482487
Si       2.23370557      -1.52021593      16.45273912      -0.01296605      -0.01194014       0.01720173
Si       1.20402806       4.69898760      14.02126852      -0.00712433      -0.01806460       0.00880878
Si       0.49247196       4.22593708       9.60728056      -0.02275484      -0.00218475       0.00548523
Si       1.99686672       3.22462656      -0.68090498       0.00768766      -0.02937926       0.00568641
Si       0.09193708       2.17924517       5.81614751       0.01033941      -0.02230412       0.03518881
Si       0.97693139       3.75872153       7.37904204       0.02852012       0.04431320       0.02483544
Si       0.10314215       5.92560759       2.61406730      -0.00974229       0.02127159       0.00182192
Si       2.68643910       1.22659814       3.11527776      -0.01706597       0.00275471      -0.01348265
Si       2.21330866       3.46835071       1.86295586      -0.01567562      -0.00178505      -0.02525807
Si       1.66769747       4.15941503       4.35312080       0.01158545       0.00616346      -0.02444629
Si       1.66908919       4.61912855      11.64709983       0.03345903      -0.00095462      -0.01101645
12
Lattice="2.534237167931072 0.05182559098479745 -0.4087554343678308 0.05366019268788849 7.202688642110715 -0.18357284739715202 -0.12032282254432729 -0.08229313741453151 16.610069648060215" Properties=species:S:1:pos:R:3:forces:R:3 unique_starting_index=344 config_type=initial n_minim_iter=12 energy=-1952.2007153781826 stress="0.00038993263532486304 -0.00023702657604871805 -0.00040630207172682363 -0.00023702657604871805 -0.0005585559520332257 0.00025823772446574805 -0.00040630207172682363 0.00025823772446574805 0.00014562598920319465" free_energy=-1952.2007153781826 pbc="T T T"
Si       2.22062755       0.95825514       0.56536947      -0.00691193      -0.00052710      -0.00773579
Si       2.21399220      -1.53876847      16.46820804      -0.01928404      -0.00612286       0.02311002
Si       1.18556933       4.68993510      14.03112615       0.02241116      -0.02689211       0.00994686
Si       0.47494373       4.23380204       9.61445963       0.04429170       0.00507909      -0.01471203
Si       1.97690698       3.19092115      -0.68876387       0.01765518      -0.00879778      -0.01097914
Si       0.09381954       2.19515345       5.81280773       0.01366501      -0.05091976       0.02193237
Si       0.96935538       3.76863669       7.38802002      -0.01291953       0.04603430       0.02064526
Si       0.06734666       5.92339737       2.63093396      -0.01294138       0.03209207      -0.02483350
Si       2.67395723       1.22042116       3.11088009      -0.02660249       0.03615051       0.02393121
Si       2.20720790       3.45627163       1.85463592      -0.03204563       0.00713657      -0.03106859
Si       1.65878140       4.16769018       4.35203720       0.03789541      -0.02078044      -0.01134563
Si       1.65784075       4.62341840      11.65299853      -0.02521348      -0.01245249       0.00110898
12
Lattice="2.532901923120787 0.05359898960560459 -0.4064072994556925 0.057264386914432516 7.212093476603999 -0.18980871260245832 -0.10495105225706663 -0.097042403526273 16.607765632682053" Properties=species:S:1:pos:R:3:forces:R:3 unique_starting_index=344 config_type=initial n_minim_iter=13 energy=-1952.2017657719132 stress="-0.0001994793644099706 5.967251084377108e-05 0.00017985634022205872 5.967251084377108e-05 0.00024920964879337484 -7.730796157581058e-05 0.00017985634022205872 -7.730796157581058e-05 -8.605146552450159e-05" free_energy=-1952.2017657719132 pbc="T T T"
Si       2.21689938       0.95707275       0.56209843       0.00006346      -0.01560976       0.01123784
Si       2.22131071      -1.55900848      16.47251079      -0.01184366      -0.00632588       0.02738256
Si       1.20335908       4.68053600      14.02540716       0.02296654      -0.03468227       0.05178527
Si       0.48699266       4.23355256       9.61270588       0.07963337       0.02009942      -0.00820041
Si       1.97536415       3.18614403      -0.69137907       0.01618331       0.01990592      -0.03298034
Si       0.10564531       2.19592322       5.81365572       0.00948964      -0.01969292      -0.01622593
Si       0.98153423       3.77635274       7.38775940      -0.03308175       0.02103039      -0.03159394
Si       0.06810109       5.93167160       2.63021500      -0.01742611       0.01485464      -0.03013793
Si       2.67208840       1.22253648       3.10979528      -0.02644651       0.02993411       0.03299288
Si       2.20875563       3.45957972       1.84812414      -0.03087198       0.01177870      -0.01678359
Si       1.66954048       4.17226047       4.34609530       0.04144220      -0.02448000       0.00728907
Si       1.67448679       4.62155940      11.64898497      -0.05010854      -0.01681236       0.00523452
12
Lattice="2.531875239721252 0.045291339517413993 -0.408750451813033 0.0312764632642776 7.20954446655978 -0.2060982049080523 -0.11553307553574721 -0.13356579083017356 16.63055877565168" Properties=species:S:1:pos:R:3:forces:R:3 unique_starting_index=344 config_type=initial n_minim_iter=14 energy=-1952.2046611557664 stress="0.0008970177531448647 0.00046525380926045525 -0.00046925240896491404 0.00046525380926045525 -0.00012025835752849669 -6.812057460941427e-05 -0.00046925240896491404 -6.812057460941427e-05 0.0005504949402147259" free_energy=-1952.2046611557664 pbc="T T T"
Si       2.18881581       0.91642864       0.55817145       0.00401657       0.00135258       0.03578294
Si       2.18192921      -1.63583659      16.52038367      -0.02005446      -0.00811135      -0.00383320
Si       1.19555863       4.62182993      14.04657125       0.00277614      -0.03527882      -0.00495439
Si       0.48725712       4.23146479       9.61682307      -0.03604631       0.02384913       0.01617653
Si       1.94622640       3.12689566      -0.72096913       0.01609024       0.03667620      -0.01354228
Si       0.12414757       2.20709728       5.80284859       0.02211675       0.00630139       0.01478440
Si       0.97669507       3.79143469       7.39641793       0.01106087       0.00294646      -0.13179503
Si       0.01035454       5.92885429       2.64406306      -0.01569931      -0.00298330      -0.03108623
Si       2.64234572       1.21897156       3.10704197      -0.01186511       0.01209830       0.02361249
Si       2.19800878       3.44081430       1.81764767      -0.05072037       0.02710395      -0.00775251
Si       1.67682936       4.17876893       4.33430033       0.03852098      -0.02742947       0.04464095
Si       1.66415939       4.60312840      11.65337728       0.03980401      -0.03652507       0.05796633
12
Lattice="2.52877373538663 0.03079893828888321 -0.40196401469880466 -0.009364753337296125 7.208030892156919 -0.19991424330015675 -0.07334651376659751 -0.11949847056699528 16.615762857445965" Properties=species:S:1:pos:R:3:forces:R:3 unique_starting_index=344 config_type=initial n_minim_iter=15 energy=-1952.2071709820782 stress="-0.0005079356291571593 -0.00022571344679684223 0.00016976833883599715 -0.00022571344679684223 -0.0001412437243917588 0.00010315117111664999 0.00016976833883599715 0.00010315117111664999 -0.0001812856625282854" free_energy=-1952.2071709820782 pbc="T T T"
Si       2.17608365       0.89644523       0.56055521       0.00086129      -0.01373262       0.06700697
Si       2.21668291      -1.64554086      16.52035938      -0.03714949      -0.00608261      -0.02966893
Si       1.21317506       4.61325063      14.04626890      -0.05161611      -0.02740341      -0.01083630
Si       0.49877020       4.24447681       9.61715977      -0.11664616       0.01932811      -0.00143770
Si       1.92417706       3.09816988      -0.72052957       0.02055731       0.04281697      -0.01857669
Si       0.13863305       2.21447002       5.80300186       0.00123582       0.00971841      -0.00966308
Si       0.97621846       3.80958564       7.39142283       0.04628770       0.00440839      -0.11660675
Si      -0.02862838       5.93687521       2.65041227      -0.02660969      -0.01610639       0.00283917
Si       2.62964796       1.21449610       3.11328015      -0.02545136      -0.01865653       0.03528717
Si       2.17504291       3.43016070       1.81194599      -0.03611943       0.04249958       0.00460099
Si       1.67888980       4.17373852       4.33554156       0.08361613      -0.00463850       0.03794658
Si       1.66828967       4.60294566      11.65459723       0.14103399      -0.03215143       0.03910858
12
Lattice="2.5272620771579963 0.017821244252264796 -0.3985475540828887 -0.0488929046891498 7.219397875179239 -0.21341959035883368 -0.05021911786379311 -0.15047976192844087 16.613639488009227" Properties=species:S:1:pos:R:3:forces:R:3 unique_starting_index=344 config_type=initial n_minim_iter=16 energy=-1952.2114318559125 stress="0.0002626957870992892 -0.0003949817080911815 0.00020366807985428868 -0.0003949817080911815 0.0007346866876976357 9.8801048750917e-06 0.00020366807985428868 9.8801048750917e-06 0.00051109676934603" free_energy=-1952.2114318559125 pbc="T T T"
Si       2.14936660       0.85600732       0.56605631       0.00630576       0.00649541       0.06595277
Si       2.21281241      -1.72351161      16.54651719      -0.08057755      -0.01112889      -0.04959052
Si       1.22312685       4.56313290      14.04951210      -0.02587207      -0.02869710      -0.03570999
Si       0.50155327       4.25423001       9.61036868      -0.04093168       0.02809191      -0.01234043
Si       1.89178676       3.04581702      -0.74344509       0.01578639       0.07187544       0.03636104
Si       0.16469376       2.23006919       5.78622197      -0.01554487      -0.00014662      -0.01145900
Si       0.98192264       3.83209948       7.37875739       0.02270191       0.02076688      -0.07742639
Si      -0.09311695       5.94673752       2.65932691      -0.01916180      -0.04859444       0.01535372
Si       2.60258585       1.20888683       3.11381998      -0.01806674      -0.05475516       0.01695091
Si       2.15733364       3.41807442       1.78374737      -0.03579363       0.05421352       0.01204180
Si       1.69242849       4.18464870       4.32600864       0.10773356       0.01883201       0.01266297
Si       1.68148695       4.59015242      11.65145743       0.08342072      -0.05695296       0.02720313
12