24
Lattice="8.9068453491356 -2.740018097287012e-16 -1.9055134200932007e-31 2.391794695396758e-16 7.774892246104141 -1.819688634217563e-15 2.2028168227041182e-31 1.803055751920482e-15 7.703825765185254" Properties=species:S:1:pos:R:3:forces:R:3 unique_starting_index=382 config_type=initial n_minim_iter=1 energy=-3899.799686870921 stress="-0.0003854263888482681 3.4480936338904207e-12 3.3250003596982786e-12 3.4480936338904207e-12 1.6031874945356142e-05 -7.809210323775453e-12 3.3250003596982786e-12 -7.809210323775453e-12 -0.0001716792646225251" free_energy=-3899.799686870921 pbc="T T T"
Si       4.03211062       5.73701129       7.50819355      -0.02160552       0.07732678      -0.21480067
Si       4.87473473       2.03788096       3.65628067       0.02160552      -0.07732678      -0.21480067
Si       4.87473473       1.84956517       7.50819355       0.02160552       0.07732678      -0.21480067
Si       4.03211062       5.92532708       3.65628067      -0.02160552      -0.07732678      -0.21480067
Si       2.03569915       7.67235755       1.66534223       0.13436974      -0.25760695       0.20740549
Si       6.87114620       0.10253470       5.51725512      -0.13436974       0.25760695       0.20740549
Si       6.87114620       3.78491143       1.66534223      -0.13436974      -0.25760695       0.20740549
Si       2.03569915       3.98998082       5.51725512       0.13436974       0.25760695       0.20740549
Si       8.64832130       2.67766404       2.77945002       0.20067808       0.29944357       0.61444280
Si       0.25852405       5.09722821       6.63136290      -0.20067808      -0.29944357       0.61444280
Si       0.25852405       6.56511016       2.77945002      -0.20067808       0.29944357       0.61444280
Si       8.64832130       1.20978208       6.63136290       0.20067808      -0.29944357       0.61444280
Si       4.23766878       3.95204696       4.75714335       0.28987068       0.00925380       0.29430172
Si       4.66917657       3.82284528       0.90523047      -0.28987068      -0.00925380       0.29430172
Si       4.66917657       7.83949308       4.75714335      -0.28987068       0.00925380       0.29430172
Si       4.23766878      -0.06460084       0.90523047       0.28987068      -0.00925380       0.29430172
Si       2.78913119       6.77988049       5.79950321      -0.23929778      -0.84009933      -0.47620865
Si       6.11771416       0.99501176       1.94759032       0.23929778       0.84009933      -0.47620865
Si       6.11771416       2.89243436       5.79950321       0.23929778      -0.84009933      -0.47620865
Si       2.78913119       4.88245788       1.94759032      -0.23929778       0.84009933      -0.47620865
Si       0.07528757       4.66881992       4.21009581       0.09515363      -0.90903591      -0.42514070
Si       8.83155778       3.10607232       0.35818293      -0.09515363       0.90903591      -0.42514070
Si       8.83155778       0.78137380       4.21009581      -0.09515363      -0.90903590      -0.42514070
Si       0.07528757       6.99351845       0.35818293       0.09515363       0.90903591      -0.42514070
24
Lattice="9.080016259937972 -2.792945820792224e-16 -1.945536920738344e-31 2.390180483644343e-16 7.76866743324848 -1.8227538277247674e-15 2.2179130535983343e-31 1.814110133780328e-15 7.770186262635281" Properties=species:S:1:pos:R:3:forces:R:3 unique_starting_index=382 config_type=initial n_minim_iter=2 energy=-3900.370289109321 stress="0.015251430128300188 3.674751770728318e-12 -5.28522844029722e-12 3.674751770728318e-12 0.0075585763267691985 -4.137324335514169e-12 -5.28522844029722e-12 -4.137324335514169e-12 0.008811466495668809" free_energy=-3900.370289109321 pbc="T T T"
Si       4.10844210       5.73965374       7.55258003       0.03545701       0.06655374      -0.05821930
Si       4.97157416       2.02901369       3.66748690      -0.03545701      -0.06655374      -0.05821930
Si       4.97157416       1.85532002       7.55258003      -0.03545701       0.06655374      -0.05821931
Si       4.10844210       5.91334741       3.66748690       0.03545701      -0.06655374      -0.05821930
Si       2.08810619       7.64210987       1.69927778      -0.06481406      -0.39567921       0.05304032
Si       6.99191007       0.12655757       5.58437091       0.06481406       0.39567921       0.05304032
Si       6.99191007       3.75777615       1.69927778       0.06481406      -0.39567920       0.05304032
Si       2.08810619       4.01089128       5.58437091      -0.06481406       0.39567920       0.05304032
Si       8.83562428       2.70353995       2.86142888       0.04446825      -0.41132960      -0.10418687
Si       0.24439198       5.06512748       6.74652201      -0.04446825       0.41132960      -0.10418687
Si       0.24439198       6.58787367       2.86142888      -0.04446825      -0.41132960      -0.10418687
Si       8.83562428       1.18079377       6.74652201       0.04446825       0.41132960      -0.10418687
Si       4.34773293       3.94974874       4.82591929       0.25072056      -0.17298926       0.16635317
Si       4.73228333       3.81891870       0.94082616      -0.25072056       0.17298926       0.16635317
Si       4.73228333       7.83408245       4.82591929      -0.25072056      -0.17298926       0.16635317
Si       4.34773293      -0.06541502       0.94082616       0.25072056       0.17298926       0.16635317
Si       2.82051337       6.69584199       5.80447998      -0.07055220      -0.76170799      -0.40698680
Si       6.25950289       1.07282544       1.91938685       0.07055220       0.76170799      -0.40698680
Si       6.25950289       2.81150827       5.80447998       0.07055220      -0.76170799      -0.40698680
Si       2.82051337       4.95715916       1.91938685      -0.07055220       0.76170799      -0.40698680
Si       0.08583551       4.58002103       4.20620507       0.44823292       0.25478769       0.34999949
Si       8.99418075       3.18864641       0.32111194      -0.44823292      -0.25478769       0.34999949
Si       8.99418075       0.69568731       4.20620507      -0.44823292       0.25478769       0.34999949
Si       0.08583551       7.07298012       0.32111194       0.44823292      -0.25478769       0.34999949
24
Lattice="8.986855274711532 -2.762227699416841e-16 -1.9217610373991774e-31 2.3752565000992577e-16 7.714325697172675 -1.809294232197842e-15 2.2076307775985823e-31 1.803195063449622e-15 7.720396664762387" Properties=species:S:1:pos:R:3:forces:R:3 unique_starting_index=382 config_type=initial n_minim_iter=3 energy=-3900.470161102916 stress="0.004553747450895894 -2.7532958941093634e-12 3.1402036453919056e-12 -2.7532958941093634e-12 -0.006367268757670118 3.0149311376575167e-12 3.1402036453919056e-12 3.0149311376575167e-12 -0.0024086142826983026" free_energy=-3900.470161102916 pbc="T T T"
Si       4.06597332       5.70094000       7.50036793       0.15321004       0.05551988      -0.11866963
Si       4.92088196       2.01338570       3.64016960      -0.15321004      -0.05551988      -0.11866963
Si       4.92088196       1.84377715       7.50036793      -0.15321004       0.05551988      -0.11866963
Si       4.06597332       5.87054854       3.64016960       0.15321004      -0.05551988      -0.11866963
Si       2.06891410       7.58358652       1.69206933      -0.03873700      -0.33723081       0.08518787
Si       6.91794117       0.13073918       5.55226766       0.03873700       0.33723081       0.08518787
Si       6.91794117       3.72642367       1.69206933       0.03873700      -0.33723081       0.08518787
Si       2.06891410       3.98790203       5.55226766      -0.03873700       0.33723081       0.08518787
Si       8.74854504       2.68908573       2.85355786       0.05650943      -0.64735404      -0.28712948
Si       0.23831023       5.02523997       6.71375619      -0.05650943       0.64735404      -0.28712948
Si       0.23831023       6.54624858       2.85355786      -0.05650943      -0.64735404      -0.28712948
Si       8.74854504       1.16807712       6.71375619       0.05650943       0.64735404      -0.28712948
Si       4.30860626       3.92199446       4.80037061       0.21613652      -0.14672051       0.18348450
Si       4.67824902       3.79233124       0.94017228      -0.21613652       0.14672051       0.18348450
Si       4.67824902       7.77915731       4.80037061      -0.21613652      -0.14672051       0.18348450
Si       4.30860626      -0.06483161       0.94017228       0.21613652       0.14672051       0.18348450
Si       2.78728285       6.63335008       5.75835830      -0.17705162      -0.66102290      -0.37538041
Si       6.19957242       1.08097562       1.89815997       0.17705162       0.66102290      -0.37538041
Si       6.19957242       2.77618723       5.75835830       0.17705162      -0.66102290      -0.37538041
Si       2.78728285       4.93813847       1.89815997      -0.17705161       0.66102290      -0.37538041
Si       0.08737839       4.53281904       4.17247816       0.45013158       0.58859286       0.51250715
Si       8.89947688       3.18150666       0.31227983      -0.45013158      -0.58859286       0.51250715
Si       8.89947688       0.67565619       4.17247816      -0.45013158       0.58859286       0.51250715
Si       0.08737839       7.03866950       0.31227983       0.45013158      -0.58859286       0.51250715
24
Lattice="8.84951630262028 -2.738767670326131e-16 -1.8943545911363918e-31 2.386901317552243e-16 7.806508425473307 -1.8270446715478853e-15 2.209438176775289e-31 1.8120647796758965e-15 7.742526997522435" Properties=species:S:1:pos:R:3:forces:R:3 unique_starting_index=382 config_type=initial n_minim_iter=4 energy=-3900.5332002449404 stress="-0.0027308067522763737 4.639313180587516e-12 -4.430719854283716e-14 4.639313180587516e-12 0.0025489283378597144 -2.024185847779783e-12 -4.430719854283716e-14 -2.024185847779783e-12 -0.0008276212811331622" free_energy=-3900.5332002449404 pbc="T T T"
Si       4.00434268       5.77010751       7.51921657       0.23850266       0.12186895       0.03152718
Si       4.84517362       2.03640091       3.64795307      -0.23850266      -0.12186895       0.03152718
Si       4.84517362       1.86685330       7.51921657      -0.23850266       0.12186895       0.03152718
Si       4.00434268       5.93965513       3.64795307       0.23850266      -0.12186895       0.03152718
Si       2.03835392       7.66991750       1.69934487      -0.10169015      -0.28466869       0.14290521
Si       6.81116239       0.13659092       5.57060837       0.10169015       0.28466869       0.14290521
Si       6.81116239       3.76666329       1.69934487       0.10169015      -0.28466869       0.14290521
Si       2.03835392       4.03984514       5.57060837      -0.10169015       0.28466869       0.14290521
Si       8.61704955       2.72090968       2.86629445       0.11025404      -0.68674550      -0.22407425
Si       0.23246675       5.08559874       6.73755795      -0.11025404       0.68674550      -0.22407425
Si       0.23246675       6.62416390       2.86629445      -0.11025405      -0.68674550      -0.22407426
Si       8.61704955       1.18234453       6.73755795       0.11025404       0.68674550      -0.22407425
Si       4.24668943       3.96816311       4.81792508       0.29247360      -0.02417244      -0.01787836
Si       4.60282687       3.83834532       0.94666158      -0.29247360       0.02417244      -0.01787836
Si       4.60282687       7.87141732       4.81792508      -0.29247360      -0.02417244      -0.01787836
Si       4.24668943      -0.06490890       0.94666158       0.29247360       0.02417244      -0.01787836
Si       2.74155797       6.70098809       5.76826382      -0.20233700      -0.64392819      -0.37411493
Si       6.10795833       1.10552034       1.89700032       0.20233700       0.64392819      -0.37411493
Si       6.10795833       2.79773388       5.76826382       0.20233700      -0.64392819      -0.37411493
Si       2.74155797       5.00877455       1.89700032      -0.20233700       0.64392819      -0.37411493
Si       0.08931533       4.58103475       4.18291363       0.36752401       0.62299832       0.44163516
Si       8.76020098       3.22547368       0.31165013      -0.36752401      -0.62299832       0.44163516
Si       8.76020098       0.67778053       4.18291363      -0.36752401       0.62299832       0.44163516
Si       0.08931533       7.12872789       0.31165013       0.36752401      -0.62299832       0.44163516
24
Lattice="8.757749932382943 -2.698853437873384e-16 -1.8944938802122141e-31 2.358295552654517e-16 7.680578791279103 -1.880748148814308e-15 2.241472629244641e-31 1.78914213511839e-15 7.994379620740632" Properties=species:S:1:pos:R:3:forces:R:3 unique_starting_index=382 config_type=initial n_minim_iter=5 energy=-3900.9495178870507 stress="-0.004727138308020276 -1.2341602773439197e-12 3.289955902129075e-12 -1.2341602773439197e-12 -0.003485239279902691 6.194228734871002e-12 3.289955902129075e-12 6.194228734871002e-12 0.01037644499123543" free_energy=-3900.9495178870507 pbc="T T T"
Si       3.97751842       5.68859624       7.75161633       0.24574139       0.18509599      -0.18887304
Si       4.78023152       1.99198255       3.75442652      -0.24574139      -0.18509599      -0.18887304
Si       4.78023152       1.84830685       7.75161633      -0.24574139       0.18509600      -0.18887303
Si       3.97751842       5.83227194       3.75442652       0.24574139      -0.18509599      -0.18887304
Si       2.01727193       7.50972871       1.77512313       0.03871026      -0.31890920      -0.01173487
Si       6.74047801       0.17085008       5.77231294      -0.03871026       0.31890920      -0.01173487
Si       6.74047801       3.66943931       1.77512313      -0.03871026      -0.31890920      -0.01173487
Si       2.01727193       4.01113948       5.77231294       0.03871026       0.31890920      -0.01173487
Si       8.54438571       2.63963504       2.97111943       0.26347753      -0.25299452      -0.04757060
Si       0.21336422       5.04094375       6.96830924      -0.26347753       0.25299452      -0.04757060
Si       0.21336422       6.47992444       2.97111943      -0.26347753      -0.25299452      -0.04757060
Si       8.54438571       1.20065435       6.96830924       0.26347753       0.25299452      -0.04757060
Si       4.23747842       3.89926959       4.99366521       0.25331978      -0.12059754      -0.11907455
Si       4.52027151       3.78130920       0.99647540      -0.25331978       0.12059754      -0.11907455
Si       4.52027151       7.73955898       4.99366521      -0.25331978      -0.12059754      -0.11907455
Si       4.23747842      -0.05898019       0.99647540       0.25331978       0.12059754      -0.11907455
Si       2.68709260       6.50094284       5.90063848      -0.01694313      -0.49989258       0.06539860
Si       6.07065733       1.17963596       1.90344867       0.01694313       0.49989258       0.06539860
Si       6.07065733       2.66065344       5.90063848       0.01694313      -0.49989258       0.06539860
Si       2.68709260       5.01992535       1.90344867      -0.01694313       0.49989257       0.06539860
Si       0.12391708       4.50987157       4.33531425       0.10976630       0.17424711       0.30185446
Si       8.63383285       3.17070722       0.33812444      -0.10976630      -0.17424711       0.30185446
Si       8.63383285       0.66958217       4.33531425      -0.10976630       0.17424711       0.30185446
Si       0.12391708       7.01099662       0.33812444       0.10976630      -0.17424711       0.30185446
24
Lattice="8.8285780541581 -2.724675266630148e-16 -1.8939840742026696e-31 2.3725194430955896e-16 7.738288881433358 -1.960827462767511e-15 2.1961800113362686e-31 1.6903017880048133e-15 7.8652686319450975" Properties=species:S:1:pos:R:3:forces:R:3 unique_starting_index=382 config_type=initial n_minim_iter=6 energy=-3901.2075525419414 stress="-0.0015852724364393497 -8.414587953869214e-12 -2.5432712245914716e-12 -8.414587953869214e-12 -0.0020928743993245025 -5.4114722427616985e-12 -2.5432712245914716e-12 -5.4114722427616985e-12 0.003149000166292907" free_energy=-3901.2075525419414 pbc="T T T"
Si       4.02103678       5.74058603       7.61603769       0.31326777       0.15052709      -0.22345622
Si       4.80754128       1.99770285       3.68340337      -0.31326777      -0.15052709      -0.22345622
Si       4.80754128       1.87144159       7.61603769      -0.31326777       0.15052709      -0.22345622
Si       4.02103678       5.86684729       3.68340337       0.31326777      -0.15052709      -0.22345622
Si       2.03447914       7.53851418       1.76053660       0.28171548      -0.16611990      -0.02492998
Si       6.79409892       0.19977470       5.69317092      -0.28171548       0.16611990      -0.02492998
Si       6.79409892       3.66936974       1.76053660      -0.28171548      -0.16611990      -0.02492998
Si       2.03447914       4.06891914       5.69317092       0.28171548       0.16611990      -0.02492998
Si       8.62719130       2.63394726       2.93276477       0.29506497       0.13331313      -0.08184024
Si       0.20138676       5.10434162       6.86539909      -0.29506496      -0.13331313      -0.08184024
Si       0.20138676       6.50309170       2.93276477      -0.29506496       0.13331313      -0.08184024
Si       8.62719130       1.23519718       6.86539909       0.29506496      -0.13331313      -0.08184024
Si       4.29784420       3.92438950       4.92595466       0.13058919      -0.19460812      -0.08385043
Si       4.53073385       3.81389938       0.99332035      -0.13058919       0.19460812      -0.08385043
Si       4.53073385       7.79353394       4.92595466      -0.13058919      -0.19460812      -0.08385043
Si       4.29784420      -0.05524506       0.99332035       0.13058919       0.19460812      -0.08385043
Si       2.69036404       6.48154013       5.76781550       0.05986082      -0.12808650       0.18065617
Si       6.13821401       1.25674875       1.83518119      -0.05986082       0.12808650       0.18065617
Si       6.13821401       2.61239569       5.76781550      -0.05986082      -0.12808650       0.18065617
Si       2.69036404       5.12589319       1.83518119       0.05986082       0.12808650       0.18065617
Si       0.14990277       4.54317157       4.27656275      -0.03017479      -0.01476845       0.23342070
Si       8.67867529       3.19511732       0.34392843       0.03017479       0.01476845       0.23342070
Si       8.67867529       0.67402712       4.27656275       0.03017479      -0.01476845       0.23342070
Si       0.14990277       7.06426176       0.34392843      -0.03017479       0.01476845       0.23342070
24
Lattice="8.865514789691872 -2.7392643643624863e-16 -1.8952828378094373e-31 2.381636795132673e-16 7.777058741168016 -1.977897705805829e-15 2.1787101430018983e-31 1.6643097143886697e-15 7.796870197478052" Properties=species:S:1:pos:R:3:forces:R:3 unique_starting_index=382 config_type=initial n_minim_iter=7 energy=-3901.266720382468 stress="-0.00012375751104107843 -2.3890270699331725e-12 -9.477293291591968e-12 -2.3890270699331725e-12 -1.4189999066610829e-05 -8.818283797739615e-14 -9.477293291591968e-12 -8.818283797739615e-14 -0.0002825683940495834" free_energy=-3901.266720382468 pbc="T T T"
Si       4.04728587       5.77518649       7.54219244       0.34155954       0.14286858      -0.19968911
Si       4.81822892       2.00187226       3.64375734      -0.34155954      -0.14286858      -0.19968911
Si       4.81822892       1.88665712       7.54219244      -0.34155954       0.14286858      -0.19968911
Si       4.04728587       5.89040163       3.64375734       0.34155954      -0.14286858      -0.19968911
Si       2.04866800       7.56316440       1.75082715       0.33515495      -0.10342712      -0.01184477
Si       6.81684679       0.21389434       5.64926225      -0.33515495       0.10342712      -0.01184477
Si       6.81684679       3.67463503       1.75082715      -0.33515495      -0.10342712      -0.01184477
Si       2.04866800       4.10242371       5.64926225       0.33515495       0.10342712      -0.01184477
Si       8.67338055       2.64080557       2.91039279       0.27710671       0.24386481      -0.09289489
Si       0.19213424       5.13625317       6.80882789      -0.27710671      -0.24386481      -0.09289489
Si       0.19213424       6.52933494       2.91039279      -0.27710671       0.24386481      -0.09289489
Si       8.67338055       1.24772380       6.80882789       0.27710671      -0.24386481      -0.09289489
Si       4.32809265       3.93927656       4.88757127       0.10360343      -0.20461758      -0.08452629
Si       4.53742214       3.83778218       0.98913617      -0.10360343       0.20461758      -0.08452629
Si       4.53742214       7.82780593       4.88757127      -0.10360343      -0.20461758      -0.08452629
Si       4.32809265      -0.05074719       0.98913617       0.10360343       0.20461758      -0.08452629
Si       2.69499685       6.48521741       5.70496522       0.09205341       0.03872306       0.19715114
Si       6.17051794       1.29184133       1.80653012      -0.09205340      -0.03872306       0.19715114
Si       6.17051794       2.59668804       5.70496522      -0.09205340       0.03872306       0.19715114
Si       2.69499685       5.18037070       1.80653012       0.09205340      -0.03872306       0.19715114
Si       0.15981171       4.56368562       4.24649194      -0.05821755      -0.03281667       0.19180392
Si       8.70570308       3.21337312       0.34805684       0.05821755       0.03281667       0.19180392
Si       8.70570308       0.67515625       4.24649194       0.05821755      -0.03281667       0.19180392
Si       0.15981171       7.10190249       0.34805684      -0.05821755       0.03281667       0.19180392
24
Lattice="8.951304953255732 -2.770090534774163e-16 -1.9040511832233537e-31 2.393408217995711e-16 7.828022990746874 -1.9860257381587154e-15 2.1534664303557403e-31 1.6377487752049447e-15 7.681594068929878" Properties=species:S:1:pos:R:3:forces:R:3 unique_starting_index=382 config_type=initial n_minim_iter=8 energy=-3901.365439466463 stress="0.003303322311938923 6.549419669397417e-13 4.058132600182838e-12 6.549419669397417e-13 0.0018013641644854985 1.6941483370170324e-12 4.058132600182838e-12 1.6941483370170324e-12 -0.004885944706778198" free_energy=-3901.365439466463 pbc="T T T"
Si       4.12819784       5.83446977       7.40297337       0.32492062       0.14732490      -0.06325093
Si       4.82310712       1.99355322       3.56217634      -0.32492062      -0.14732490      -0.06325093
Si       4.82310712       1.92045827       7.40297337      -0.32492062       0.14732490      -0.06325093
Si       4.12819784       5.90756472       3.56217634       0.32492062      -0.14732490      -0.06325093
Si       2.10056263       7.57823612       1.73555796       0.27385648       0.06789919       0.00913968
Si       6.85074233       0.24978687       5.57635499      -0.27385648      -0.06789919       0.00913968
Si       6.85074233       3.66422462       1.73555796      -0.27385648       0.06789919       0.00913968
Si       2.10056263       4.16379837       5.57635499       0.27385648      -0.06789919       0.00913968
Si       8.79559563       2.65737741       2.86599570       0.14304369       0.32111095      -0.01605487
Si       0.15570932       5.17064558       6.70679273      -0.14304369      -0.32111095      -0.01605487
Si       0.15570932       6.57138890       2.86599570      -0.14304369       0.32111095      -0.01605487
Si       8.79559563       1.25663409       6.70679273       0.14304369      -0.32111095      -0.01605487
Si       4.40254777       3.94201745       4.81846877       0.05546772      -0.18322817      -0.09606342
Si       4.54875719       3.88600554       0.97767174      -0.05546772       0.18322817      -0.09606342
Si       4.54875719       7.85602895       4.81846877      -0.05546772      -0.18322817      -0.09606342
Si       4.40254777      -0.02800596       0.97767174       0.05546772       0.18322817      -0.09606342
Si       2.71299948       6.46961511       5.60697796       0.18551477       0.42102254       0.14327146
Si       6.23830547       1.35840788       1.76618092      -0.18551477      -0.42102254       0.14327146
Si       6.23830547       2.55560361       5.60697796      -0.18551477       0.42102254       0.14327146
Si       2.71299948       5.27241938       1.76618092       0.18551477      -0.42102254       0.14327146
Si       0.17830823       4.59071256       4.21264665      -0.05629534       0.01704492       0.02295808
Si       8.77299672       3.23731044       0.37184961       0.05629534      -0.01704492       0.02295808
Si       8.77299672       0.67670106       4.21264665       0.05629534       0.01704492       0.02295808
Si       0.17830823       7.15132193       0.37184961      -0.05629534      -0.01704492       0.02295808
24
Lattice="8.930859850015475 -2.7636138449909217e-16 -1.8987931887652803e-31 2.391891560899889e-16 7.822504851430051 -1.9871942535832893e-15 2.1520895829042926e-31 1.6341642352173968e-15 7.676631277350361" Properties=species:S:1:pos:R:3:forces:R:3 unique_starting_index=382 config_type=initial n_minim_iter=9 energy=-3901.493760062294 stress="0.002646215350737662 -5.635157656152089e-12 3.589466669268624e-12 -5.635157656152089e-12 0.005534438045187343 -6.115095495070367e-12 3.589466669268624e-12 -6.115095495070367e-12 -0.006120504830626902" free_energy=-3901.493760062294 pbc="T T T"
Si       4.14142772       5.83777574       7.39302024       0.25743708       0.19003126       0.09589542
Si       4.78943213       1.98472911       3.55470460      -0.25743708      -0.19003126       0.09589542
Si       4.78943213       1.92652332       7.39302024      -0.25743708       0.19003126       0.09589542
Si       4.14142772       5.89598153       3.55470460       0.25743708      -0.19003126       0.09589542
Si       2.11666054       7.58381949       1.72367214       0.18367011      -0.24308143       0.06002980
Si       6.81419931       0.23868536       5.56198778      -0.18367011       0.24308143       0.06002980
Si       6.81419931       3.67256706       1.72367214      -0.18367011      -0.24308143       0.06002980
Si       2.11666054       4.14993779       5.56198778       0.18367011       0.24308143       0.06002980
Si       8.78604732       2.68004273       2.84429707       0.03048920       0.13069689       0.20920585
Si       0.14481253       5.14246213       6.68261271      -0.03048920      -0.13069689       0.20920585
Si       0.14481253       6.59129515       2.84429707      -0.03048919       0.13069689       0.20920585
Si       8.78604732       1.23120970       6.68261271       0.03048920      -0.13069689       0.20920585
Si       4.38429068       3.92519241       4.79575118       0.01579214      -0.04090959      -0.13277527
Si       4.54656917       3.89731244       0.95743554      -0.01579214       0.04090959      -0.13277527
Si       4.54656917       7.83644484       4.79575118      -0.01579214      -0.04090959      -0.13277527
Si       4.38429068      -0.01393998       0.95743554       0.01579214       0.04090959      -0.13277527
Si       2.72888027       6.51912473       5.64344890      -0.06226786      -0.04390200      -0.08230994
Si       6.20197958       1.30338012       1.80513326       0.06226786       0.04390200      -0.08230994
Si       6.20197958       2.60787231       5.64344890       0.06226786      -0.04390200      -0.08230994
Si       2.72888027       5.21463254       1.80513326      -0.06226786       0.04390200      -0.08230994
Si       0.16056926       4.60356914       4.22521807       0.04057361       0.04722375      -0.15004586
Si       8.77029059       3.21893571       0.38690243      -0.04057361      -0.04722375      -0.15004586
Si       8.77029059       0.69231671       4.22521807      -0.04057361       0.04722375      -0.15004586
Si       0.16056926       7.13018814       0.38690243       0.04057361      -0.04722375      -0.15004586
24
Lattice="8.834003478639172 -2.7261910673592406e-16 -1.8906154015368427e-31 2.3713040353149972e-16 7.7339430827927655 -1.9932294895252386e-15 2.184760474519108e-31 1.6529902064108734e-15 7.847400704289971" Properties=species:S:1:pos:R:3:forces:R:3 unique_starting_index=382 config_type=initial n_minim_iter=10 energy=-3901.585323195771 stress="0.003579426373639597 1.625432177796854e-12 1.0828432726953529e-14 1.625432177796854e-12 -0.0030069580891689436 2.3088634270633276e-12 1.0828432726953529e-14 2.3088634270633276e-12 0.0047652670464032815" free_energy=-3901.585323195771 pbc="T T T"
Si       4.12884903       5.78891426       7.54189416       0.24007736       0.22683131       0.11543608
Si       4.70515444       1.94502882       3.61819381      -0.24007736      -0.22683131       0.11543608
Si       4.70515444       1.92194272       7.54189416      -0.24007736       0.22683131       0.11543608
Si       4.12884903       5.81200036       3.61819381       0.24007736      -0.22683131       0.11543608
Si       2.11980012       7.48170385       1.76460694      -0.13907192      -0.12295491       0.02996924
Si       6.71420336       0.25223923       5.68830730       0.13907192       0.12295491       0.02996924
Si       6.71420336       3.61473231       1.76460694       0.13907192      -0.12295491       0.02996924
Si       2.11980012       4.11921077       5.68830730      -0.13907192       0.12295491       0.02996924
Si       8.71429879       2.66420762       2.90829359       0.02612940      -0.08000042       0.26022992
Si       0.11970468       5.06973546       6.83199395      -0.02612940       0.08000042       0.26022992
Si       0.11970468       6.53117916       2.90829359      -0.02612940      -0.08000042       0.26022992
Si       8.71429879       1.20276392       6.83199395       0.02612940       0.08000042       0.26022992
Si       4.35109303       3.86365883       4.89505973       0.05780823       0.01747215      -0.28404727