18
Lattice="5.8162250922064045 0.0 0.0 0.0 4.838867070111021 -1.6076342946981627e-22 0.0 3.894161957756256e-22 11.721155815852818" Properties=species:S:1:pos:R:3:forces:R:3 unique_starting_index=36 config_type=initial n_minim_iter=1 energy=-2929.5805557422614 stress="-0.00012396507754618936 9.365923891404542e-14 3.448952883514218e-12 9.365923891404542e-14 -0.00017055969198796842 -1.8812305876900665e-12 3.448952883514218e-12 -1.8812305876900665e-12 -0.0005645946118412149" free_energy=-2929.5805557422614 pbc="T T T"
Si       4.33119049       4.75262382      10.79825874       0.00078799       0.00125178      -0.01173291
Si       1.48503461       4.75262382       0.92289707      -0.00078799       0.00125178       0.01173291
Si       4.39314715       4.75262382       4.93768084      -0.00078799       0.00125178      -0.01173291
Si       1.42307794       4.75262382       6.78347498       0.00078799       0.00125178       0.01173291
Si      -0.07810800       1.61548554       1.83217367       0.00156064       0.00075597       0.00953971
Si       5.89433309       1.61548554       9.88898215      -0.00156064       0.00075597      -0.00953971
Si       2.98622054       1.61548554       7.69275157      -0.00156064       0.00075597       0.00953971
Si       2.83000455       1.61548554       4.02840424       0.00156064       0.00075597      -0.00953971
Si       1.41041668       3.25035280       2.85366735      -0.00583879      -0.01037265       0.00223923
Si       4.40580842       3.25035280       8.86748847       0.00583879      -0.01037265      -0.00223924
Si       1.49769587       3.25035280       8.71424525       0.00583879      -0.01037265       0.00223923
Si       4.31852922       3.25035280       3.00691056      -0.00583879      -0.01037265      -0.00223924
Si       3.80983894       0.13299572       1.45074153      -0.00839652       0.00326790       0.00546946
Si       2.00638616       0.13299572      10.27041429       0.00839652       0.00326790      -0.00546946
Si      -0.90172639       0.13299572       7.31131943       0.00839652       0.00326790       0.00546946
Si       6.71795148       0.13299572       4.40983638      -0.00839652       0.00326790      -0.00546946
Si      -0.00000000       3.09441148       0.00000000      -0.00000000       0.01019400       0.00000000
Si       2.90811255       3.09441148       5.86057791       0.00000000       0.01019400       0.00000000
18
Lattice="5.8166850412031 0.0 0.0 0.0 4.839393566822301 -1.6058456245616725e-22 0.0 3.900317838674705e-22 11.725378001446613" Properties=species:S:1:pos:R:3:forces:R:3 unique_starting_index=36 config_type=initial n_minim_iter=2 energy=-2929.5805959374684 stress="0.00010632863649533227 -2.1372619546847273e-12 -2.19403347000865e-12 -2.1372619546847273e-12 0.00014275138549179616 -1.2568410271510594e-11 -2.19403347000865e-12 -1.2568410271510594e-11 -3.744464289145977e-05" free_energy=-2929.5805959374684 pbc="T T T"
Si       4.33153452       4.75314335      10.80212579       0.00120123       0.00023725      -0.01100517
Si       1.48515052       4.75314335       0.92325221      -0.00120123       0.00023725       0.01100517
Si       4.39349304       4.75314335       4.93943679      -0.00120123       0.00023725      -0.01100517
Si       1.42319200       4.75314335       6.78594121       0.00120123       0.00023725       0.01100517
Si      -0.07811116       1.61566278       1.83285210       0.00136515       0.00309638       0.00694030
Si       5.89479620       1.61566278       9.89252590      -0.00136515       0.00309638      -0.00694030
Si       2.98645368       1.61566278       7.69554110      -0.00136515       0.00309638       0.00694030
Si       2.83023136       1.61566278       4.02983690       0.00136515       0.00309638      -0.00694030
Si       1.41051692       3.25068640       2.85469962      -0.00677655      -0.00784245       0.00244537
Si       4.40616812       3.25068640       8.87067838       0.00677655      -0.00784245      -0.00244537
Si       1.49782560       3.25068640       8.71738862       0.00677655      -0.00784245       0.00244537
Si       4.31885944       3.25068640       3.00798938      -0.00677655      -0.00784245      -0.00244537
Si       3.81012398       0.13301651       1.45127469      -0.00678924       0.00086790       0.00416092
Si       2.00656106       0.13301651      10.27410331       0.00678924       0.00086790      -0.00416092
Si      -0.90178146       0.13301651       7.31396369       0.00678924       0.00086790       0.00416092
Si       6.71846650       0.13301651       4.41141431      -0.00678924       0.00086790      -0.00416092
Si      -0.00000000       3.09476789       0.00000000      -0.00000000       0.00728184      -0.00000000
Si       2.90834252       3.09476789       5.86268900      -0.00000000       0.00728184      -0.00000000
18
Lattice="5.815871145932571 0.0 0.0 0.0 4.838488273139054 -1.6044149867939944e-22 0.0 3.903696547917285e-22 11.727308267263155" Properties=species:S:1:pos:R:3:forces:R:3 unique_starting_index=36 config_type=initial n_minim_iter=3 energy=-2929.5806080034554 stress="-5.1907188722840215e-05 -1.918556096988901e-12 -3.032433090981657e-12 -1.918556096988901e-12 -3.43890372069395e-05 -1.2211406726596096e-12 -3.032433090981657e-12 -1.2211406726596096e-12 4.573339665291557e-05" free_energy=-2929.5806080034554 pbc="T T T"
Si       4.33093448       4.75225602      10.80384602       0.00119555       0.00009383      -0.00977364
Si       1.48493666       4.75225602       0.92346225      -0.00119555       0.00009383       0.00977364
Si       4.39287224       4.75225602       4.94019189      -0.00119555       0.00009383      -0.00977364
Si       1.42299891       4.75225602       6.78711638       0.00119555       0.00009383       0.00977364
Si      -0.07809297       1.61537539       1.83319167       0.00123305       0.00340212       0.00554875
Si       5.89396412       1.61537539       9.89411660      -0.00123305       0.00340212      -0.00554875
Si       2.98602855       1.61537539       7.69684580      -0.00123305       0.00340212       0.00554875
Si       2.82984260       1.61537539       4.03046246       0.00123305       0.00340212      -0.00554875
Si       1.41028464       3.25003582       2.85518226      -0.00685001      -0.00630667       0.00280244
Si       4.40558651       3.25003582       8.87212601       0.00685001      -0.00630667      -0.00280244
Si       1.49765093       3.25003582       8.71883639       0.00685001      -0.00630667       0.00280244
Si       4.31822021       3.25003582       3.00847188      -0.00685001      -0.00630667      -0.00280244
Si       3.80955441       0.13299755       1.45153614      -0.00516338       0.00023853       0.00269752
Si       2.00631674       0.13299755      10.27577212       0.00516338       0.00023853      -0.00269752
Si      -0.90161884       0.13299755       7.31519028       0.00516338       0.00023853       0.00269752
Si       6.71748998       0.13299755       4.41211799      -0.00516338       0.00023853      -0.00269752
Si      -0.00000000       3.09422873       0.00000000       0.00000000       0.00514439      -0.00000000
Si       2.90793557       3.09422873       5.86365413       0.00000000       0.00514438       0.00000000
