22
Lattice="6.0878311020126255 -1.0341004321590168 1.587632288836923 -3.465385537871027 9.479515767262178 -2.0228088381690097 1.3018354092780002 -3.4992586771157566 8.643190768584459" Properties=species:S:1:pos:R:3:forces:R:3 unique_starting_index=18 config_type=initial n_minim_iter=1 energy=-3583.3016668982655 stress="0.0009481717588965243 0.0014930508725640131 -0.00010740604328857824 0.0014930508725640131 0.0006025126190588201 -0.0015711961024861604 -0.00010740604328857824 -0.0015711961024861604 0.00030427621566052614" free_energy=-3583.3016668982655 pbc="T T T"
Si       1.23230995       7.77475403       0.90493327      -0.06841839       0.02998514       0.12475222
Si       3.05549355      -0.13765630       6.02468467      -0.01309290      -0.00566718      -0.09438555
Si       0.26652672      -2.79580828       8.11832680       0.01834061       0.21062421       0.05774448
Si       6.96453908      -1.60897443      10.16401316       0.02190440      -0.00698025      -0.05998442
Si      -0.51077805       0.54252800       7.00403665      -0.03410611       0.03465657      -0.03418443
Si       4.71105788       2.07791953       3.65157851      -0.11776615      -0.17738723       0.16399218
Si       2.49759844       0.14122214       1.55865082       0.01457317      -0.09630151      -0.10113371
Si       2.83348539       2.12974069       6.78104082       0.10866961      -0.03997641      -0.04885831
Si       2.75332883      -3.30920409       8.11560513       0.19845038       0.05374754      -0.01096608
Si       0.50158743       0.97322619       4.60688858       0.14356394       0.11965136       0.04955298
Si       4.89665579      -0.09572846       4.63373130      -0.19515954       0.09593860      -0.20839873
Si       0.65183023       4.99626966       4.46011016       0.11538538      -0.13469989       0.22931694
Si       1.36051712      -1.23736934       4.78072581       0.00131579       0.15502280       0.05705998
Si      -1.96309582       6.28882772      -0.94096713       0.02833849      -0.16687668      -0.09037121
Si       4.28644952       3.52019633       5.45351267      -0.04301973       0.00556030       0.12108277
Si       1.84735563       5.56576438       0.55310284      -0.07413769       0.10939946       0.01381723
Si       2.38609557      -1.87710662       2.77436010      -0.03447813       0.04262720       0.10893302
Si       6.34135538      -4.07489438       7.37288693       0.08332183       0.07356110      -0.10794383
Si       2.25619914       1.98465604       3.01199578       0.04695298      -0.00297392       0.04253692
Si       0.80402837       3.05636248       5.88802068      -0.07027766      -0.28169737      -0.09792598
Si       1.09985126       4.00770180       2.31133704      -0.16249051       0.05278482      -0.08330086
Si       3.26696794      -1.03439654       8.13629659       0.03213024      -0.07099868      -0.03133562
22
Lattice="6.080521229993117 -1.044876624148049 1.5849903971892343 -3.4853814958255005 9.472872678520313 -1.995482058032669 1.310678276448733 -3.47447472692301 8.628800327700892" Properties=species:S:1:pos:R:3:forces:R:3 unique_starting_index=18 config_type=initial n_minim_iter=2 energy=-3583.3073638669753 stress="-0.0008349934953370186 1.444204739648614e-05 9.767462623813061e-05 1.444204739648614e-05 -0.0008705982466400722 0.0006612529290660424 9.767462623813061e-05 0.0006612529290660424 -0.0006975648636158707" free_energy=-3583.3073638669753 pbc="T T T"
Si       1.20914978       7.76573222       0.92724887      -0.03842860      -0.01631789       0.18761004
Si       3.05173558      -0.12867676       6.02118941      -0.02827159       0.03436929      -0.09267941
Si       0.27521852      -2.76959399       8.10626743       0.01608503       0.20034730       0.00596454
Si       6.95900214      -1.59720054      10.15497576       0.03863447       0.00767794      -0.05306482
Si      -0.51018064       0.56332582       7.00151344      -0.02879943       0.04907666      -0.02492285
Si       4.69761511       2.07259637       3.65706521      -0.10793222      -0.10904909       0.16688897
Si       2.49331152       0.13835495       1.55824693       0.01585825      -0.02153421      -0.09844444
Si       2.82465838       2.13886798       6.78371277       0.06949977      -0.08342606      -0.02939720
Si       2.75991814      -3.28980593       8.10227164       0.18989829      -0.00259957      -0.01886028
Si       0.49958990       0.98439265       4.60744179       0.14626444       0.10662347       0.04437935
Si       4.88860641      -0.09526716       4.63098258      -0.17878554       0.05479816      -0.20882578
Si       0.63859769       5.00119749       4.47293725       0.09326391      -0.10019679       0.17800315
Si       1.36243821      -1.22548413       4.77511068       0.02290869       0.20416367      -0.00807141
Si      -1.97673733       6.28394669      -0.92337712       0.02665931      -0.17718924      -0.04341269
Si       4.27050345       3.52034022       5.46184662      -0.01321191       0.03172154       0.05232912
Si       1.82900225       5.55680883       0.56899501      -0.08527206       0.14785876      -0.01113215
Si       2.38745715      -1.87345583       2.76843800      -0.08044841      -0.01602943       0.14484506
Si       6.34325183      -4.06635451       7.35805912       0.07172992       0.00924066      -0.05338794
Si       2.24777172       1.98496474       3.01658930       0.04488062      -0.01406018       0.00425155
Si       0.79524912       3.06640223       5.89321142      -0.05199111      -0.30331991      -0.09075688
Si       1.08693207       4.00718899       2.32129852      -0.16330990       0.04270225      -0.04264095
Si       3.26585679      -1.01930561       8.12941249       0.04076808      -0.04485732      -0.00867500
22
Lattice="6.090850315144255 -1.059916746877144 1.5867938256913 -3.510231513750464 9.498932730210303 -1.9978654255605088 1.3185563728103065 -3.483528888703578 8.644131328995778" Properties=species:S:1:pos:R:3:forces:R:3 unique_starting_index=18 config_type=initial n_minim_iter=3 energy=-3583.311796907401 stress="0.0013920976310747514 -0.0011673534679060378 -8.699650942792673e-05 -0.0011673534679060378 0.0017571353030621296 0.0008440357101705405 -8.699650942792673e-05 0.0008440357101705405 0.002163309928203231" free_energy=-3583.311796907401 pbc="T T T"
Si       1.19342109       7.77851387       0.93114361      -0.04274408      -0.01772321       0.13315394
Si       3.05496034      -0.13482482       6.03067783      -0.01222400       0.04317722      -0.05023080
Si       0.28041181      -2.77284695       8.12111359       0.00222845       0.17083324       0.00467866
Si       6.97069991      -1.61457002      10.17168476       0.02528584       0.02643575      -0.04267873
Si      -0.51356286       0.56653341       7.01416240      -0.01412743       0.04912282       0.00657739
Si       4.69780224       2.06544096       3.66492636      -0.08819649      -0.09638736       0.14934809
Si       2.49635031       0.13288469       1.55960589       0.02450535      -0.02984444      -0.07354190
Si       2.82371692       2.13672734       6.79542630       0.03563187      -0.08874355      -0.02705252
Si       2.77156561      -3.30151167       8.11622865       0.18522482      -0.00068221      -0.03235157
Si       0.49898356       0.98679233       4.61637420       0.11559762       0.07043151       0.00333304
Si       4.89275764      -0.10490940       4.63635936      -0.14495261       0.06038656      -0.14461329
Si       0.62907656       5.00881663       4.48348896       0.08437149      -0.12386824       0.18144942
Si       1.36633420      -1.22842713       4.78367524       0.01003035       0.20657208      -0.03120849
Si      -1.99251858       6.29863820      -0.92491950       0.00527829      -0.15870131      -0.04388649
Si       4.26764939       3.51875570       5.47218405      -0.02649614       0.05804149       0.03748527
Si       1.81855196       5.56537264       0.57009876      -0.05189369       0.15964393      -0.01908993
Si       2.39359122      -1.88206240       2.77443235      -0.07504985       0.00778781       0.12088699
Si       6.36032735      -4.08720135       7.36941130       0.10411016      -0.02545124      -0.01316053
Si       2.24658685       1.98414304       3.02205097       0.02275359      -0.00512853      -0.02771036
Si       0.78817719       3.06793457       5.90306168      -0.02901584      -0.28333504      -0.06710611
Si       1.07763990       4.01343599       2.32505871      -0.15493248       0.01822452      -0.01248232
Si       3.27162949      -1.02833816       8.14350500       0.02461478      -0.04079178      -0.05179976
22
Lattice="6.0862412552748575 -1.0768417605845004 1.5847325619165011 -3.5262322313107632 9.506295413209994 -2.020084552030875 1.3231328771329836 -3.509645426111196 8.631874561225102" Properties=species:S:1:pos:R:3:forces:R:3 unique_starting_index=18 config_type=initial n_minim_iter=4 energy=-3583.32548384055 stress="-0.00026517043366970687 -0.0021019594007340744 0.00016170332138891341 -0.0021019594007340744 -0.0009194741097900425 -0.0018627348190084578 0.00016170332138891341 -0.0018627348190084578 -0.0005207083319586117" free_energy=-3583.32548384055 pbc="T T T"
Si       1.17356538       7.76814646       0.91232164      -0.03888090       0.00312813      -0.02696778
Si       3.05007774      -0.15789853       6.01146786       0.02789931       0.03613814       0.05830794
Si       0.28518582      -2.78745724       8.10906774      -0.05256330       0.00604833       0.04202715
Si       6.96627051      -1.65802654      10.14677341       0.02039352       0.14140405       0.00380836
Si      -0.51646449       0.54847941       6.99364733       0.02359599      -0.05597848       0.03150112
Si       4.68337378       2.03829800       3.65531622      -0.06265711      -0.05761104       0.03156394
Si       2.49385375       0.12117319       1.55082585       0.06613545      -0.09175431       0.00599755
Si       2.81807071       2.10621536       6.76969061      -0.00747416      -0.03332297      -0.00416432
Si       2.78222279      -3.32887034       8.10370820       0.10368913      -0.02590363      -0.07182818
Si       0.50138058       0.97570467       4.60302403       0.01047938       0.00333035      -0.14218287
Si       4.87959507      -0.12609575       4.61569370       0.00751433       0.09315006       0.05438718
Si       0.62114533       4.98634064       4.46501051       0.08770246      -0.15733864       0.17528071
Si       1.36724448      -1.23661577       4.77484387      -0.09828018       0.14054809      -0.02097119
Si      -2.00254701       6.29448003      -0.94304312      -0.07720735      -0.06624839       0.01132373
Si       4.25372133       3.49265640       5.44967708      -0.04822106       0.09285460       0.07345130
Si       1.80149185       5.56226211       0.55162415       0.00207886       0.09630460       0.00435768
Si       2.39169423      -1.89397462       2.77787189      -0.03941192       0.01943259       0.02098310
Si       6.36430533      -4.11917387       7.35889639       0.14054870      -0.00727169      -0.02127318
Si       2.24116939       1.96880055       3.00828354      -0.01927626       0.05401810      -0.04942106
Si       0.77785350       3.03464287       5.87497785       0.02559932      -0.17773393      -0.03625144
Si       1.06085874       4.00349649       2.30512255      -0.08655199      -0.02971006      -0.03836273
Si       3.27045829      -1.06077521       8.12398037       0.01488778       0.01651609      -0.10156701
22
Lattice="6.0781541428164285 -1.043654864973784 1.5752890234680286 -3.4765255081655564 9.50537755623568 -1.9834464433362082 1.298988938787065 -3.482344793307856 8.611048510133081" Properties=species:S:1:pos:R:3:forces:R:3 unique_starting_index=18 config_type=initial n_minim_iter=5 energy=-3583.339382798216 stress="0.00014056596135258146 0.00015121383172591655 -0.0002416791900776718 0.00015121383172591655 -0.00022676891595046486 0.00017020772223440975 -0.0002416791900776718 0.00017020772223440975 -8.490955977581988e-05" free_energy=-3583.339382798216 pbc="T T T"
Si       1.20892273       7.79625894       0.94379111      -0.03051345       0.06842104      -0.06648918
Si       3.04339193      -0.12111440       6.00003382      -0.00002919       0.05767423       0.02949922
Si       0.26542013      -2.75670268       8.09308706      -0.02842055      -0.01844042       0.04841475
Si       6.95031572      -1.59124120      10.12457590       0.02937399       0.06111040       0.09694099
Si      -0.51972076       0.57260940       6.98878850      -0.01924056      -0.04428935      -0.00693102
Si       4.68453920       2.07348843       3.66281944      -0.04628149       0.10272554      -0.05722215
Si       2.49398105       0.13666305       1.54399148       0.08512831      -0.01865809       0.11555705
Si       2.82593963       2.14508268       6.76706928       0.01550669      -0.03458770      -0.00101206
Si       2.76812257      -3.29538174       8.08150144       0.05499620       0.04871181      -0.10063289
Si       0.50883939       1.00077541       4.60220875      -0.11634962       0.02897322      -0.23993618
Si       4.86674792      -0.08264818       4.59951490       0.11402962      -0.00174048       0.17109331
Si       0.64746086       5.01083704       4.48704746       0.08671466      -0.16006042       0.08617575
Si       1.35704440      -1.20702413       4.76526517      -0.10360388       0.00530738       0.05234229
Si      -1.96961156       6.28887637      -0.92171689      -0.05771322       0.03706217       0.12552862
Si       4.26460185       3.54331021       5.45693490       0.00670695      -0.04544831       0.05248710
Si       1.82500971       5.59392461       0.56849334       0.02785908       0.02035933       0.00698585
Si       2.37632658      -1.87690512       2.77304859      -0.04725177      -0.06631622      -0.11270609
Si       6.34143213      -4.07182706       7.33090068       0.11113406       0.12491305      -0.01969855
Si       2.24979715       1.99516924       3.01048691      -0.01717801      -0.01087520      -0.10884234
Si       0.78648806       3.05179699       5.87513058       0.01571983      -0.13672651      -0.01476446
Si       1.07111468       4.02813113       2.31353229      -0.09707084       0.01691266      -0.00886690
Si       3.26003817      -1.02145103       8.10871365       0.01648321      -0.03502812      -0.04792311
22
Lattice="6.064308252285129 -1.0450479189357091 1.5963462181463692 -3.466999656300315 9.543356075299531 -2.000161259582596 1.3220705533295667 -3.500585231359122 8.617014325109217" Properties=species:S:1:pos:R:3:forces:R:3 unique_starting_index=18 config_type=initial n_minim_iter=6 energy=-3583.347115179022 stress="-0.002003410095091685 0.00011621620810667332 0.0016907450911736017 0.00011621620810667332 0.002479266125854044 -0.0002214833172095719 0.0016907450911736017 -0.0002214833172095719 -0.00015241873105546953" free_energy=-3583.347115179022 pbc="T T T"
Si       1.21058946       7.83090942       0.94518410       0.02570309       0.06274178      -0.06984068
Si       3.05390709      -0.12009624       6.00947904      -0.10843971       0.04290747       0.12503301
Si       0.28939385      -2.76802355       8.09761013      -0.01856798       0.01551832       0.01954670
Si       6.96429561      -1.59594698      10.15083808      -0.00623475       0.01878727       0.02803475
Si      -0.49542047       0.57005492       6.98590388       0.01249258      -0.03646264       0.04884444
Si       4.67927795       2.08330835       3.67956599      -0.04758970       0.07259158      -0.01424123
Si       2.49547736       0.13575222       1.55417484       0.02983891      -0.03682195       0.05888366
Si       2.84376034       2.14863022       6.77437687      -0.01834544      -0.04548013       0.03893570
Si       2.79221528      -3.30974672       8.08792565       0.06123990       0.11529773      -0.00441534
Si       0.52270109       1.00623714       4.59487721      -0.08348601      -0.01022768      -0.20976488
Si       4.86717544      -0.08045925       4.61747380       0.18661433       0.01951845       0.03074481
Si       0.66958709       5.01991608       4.49509108       0.11172139      -0.20531206       0.07289328
Si       1.36445632      -1.20806633       4.77222817      -0.08922872       0.03512837       0.06783343
Si      -1.96485987       6.31079676      -0.92848367      -0.02168701       0.00468430       0.15064947
Si       4.27156110       3.55707023       5.47318328       0.01690116      -0.01575495       0.02613357
Si       1.82380491       5.62244684       0.57181797      -0.04052305       0.03815834       0.00676939
Si       2.37378702      -1.88689444       2.78124192      -0.07716262      -0.03561321      -0.15325117
Si       6.35110442      -4.08373363       7.35206922       0.10300978       0.07369803       0.03665008
Si       2.25457013       2.00269145       3.01295503      -0.03507065       0.01364596      -0.13871357
Si       0.80520510       3.04838443       5.87306161       0.04402028      -0.07997710      -0.03689240
Si       1.07015190       4.04555978       2.31331275      -0.05054984       0.00380486       0.00585057
Si       3.27841810      -1.03058773       8.11721818       0.00534406      -0.05083273      -0.08968357
22
Lattice="6.082045612133945 -1.0386583746864537 1.5982010548894785 -3.4694023705958137 9.523100843153012 -2.007069414938889 1.3222189004755205 -3.497061010610335 8.629300198068577" Properties=species:S:1:pos:R:3:forces:R:3 unique_starting_index=18 config_type=initial n_minim_iter=7 energy=-3583.3673326199864 stress="0.000432504581639985 0.0001640056029929022 0.0009244459065966125 0.0001640056029929022 -0.0011329656675639085 -0.0001805755306986384 0.0009244459065966125 -0.0001805755306986384 0.0017320706276835493" free_energy=-3583.3673326199864 pbc="T T T"
Si       1.21478431       7.82358163       0.94521145      -0.03839192       0.12160841      -0.08926725
Si       3.06019288      -0.11197030       6.01630309      -0.06892267      -0.09239742       0.08495939
Si       0.28430880      -2.75509508       8.11561369      -0.01051606      -0.04264903      -0.06293051
Si       6.98839174      -1.58360543      10.16973852      -0.00563692       0.04221190       0.03970390
Si      -0.50040135       0.56262500       6.99331017       0.00965782      -0.09964464       0.07149201
Si       4.68249574       2.08357944       3.68791082      -0.02409610       0.11077354      -0.08644658
Si       2.51361315       0.13073049       1.56148894      -0.03148595      -0.05152935      -0.14108338
Si       2.85949936       2.13435264       6.77948099      -0.08704229       0.09762796       0.10833028
Si       2.81683055      -3.29856804       8.08755384       0.00858825      -0.01439560       0.12619745
Si       0.52161750       1.01170669       4.57519462       0.02076002      -0.06280665      -0.17050707
Si       4.88351947      -0.07285929       4.62740976       0.01534959      -0.02349304      -0.05306264
Si       0.69259124       4.98122807       4.52171055       0.14426877      -0.17190886       0.00390425
Si       1.35585936      -1.19159819       4.78441546       0.08144394       0.06344626      -0.08734236
Si      -1.97067931       6.28919908      -0.92224178      -0.05426065       0.03489939      -0.02292952
Si       4.28596943       3.54980531       5.48822186       0.02346355       0.00159074       0.04573992
Si       1.83142879       5.62583645       0.56990944       0.03705189      -0.10222767       0.00371881
Si       2.36886875      -1.88900372       2.78143116       0.01345591       0.04975424       0.03944594
Si       6.38537605      -4.06020369       7.35721057      -0.01918810      -0.06198376       0.21200840
Si       2.26323036       1.99836370       3.00313631      -0.06973870       0.08020625      -0.11984586
Si       0.80872972       3.00460612       5.87053648       0.01454864      -0.00109399       0.18571479
Si       1.05518048       4.04153741       2.30977289       0.02912888       0.01827843       0.00440258
Si       3.29089049      -1.03706807       8.11892306       0.01156207       0.10373289      -0.09220256
22
Lattice="6.080600515226475 -1.042948708864336 1.5830206076158544 -3.469449834449421 9.545164093671133 -1.9956377759518475 1.3078132559773161 -3.5052802472220863 8.604813308536574" Properties=species:S:1:pos:R:3:forces:R:3 unique_starting_index=18 config_type=initial n_minim_iter=8 energy=-3583.3706336630357 stress="5.1372978504217494e-05 -0.00011409307997718672 -0.00045215345227243647 -0.00011409307997718672 0.0006011816531034523 -0.00011128744223757488 -0.00045215345227243647 -0.00011128744223757488 -2.474298080550907e-05" free_energy=-3583.3706336630357 pbc="T T T"
Si       1.20974862       7.84195982       0.94042911      -0.01784717       0.07012649      -0.09617882
Si       3.04914447      -0.11248171       5.99572990      -0.03271686      -0.04172906       0.04332546
Si       0.26994737      -2.76004895       8.09500931       0.00029349      -0.00802417      -0.03718280
Si       6.97230910      -1.58808075      10.13215115       0.01521502      -0.00172480       0.04516847
Si      -0.51386765       0.56308133       6.97649597       0.01078994      -0.05340237       0.06572338
Si       4.67408446       2.08756989       3.67014536      -0.02358091       0.08659281      -0.06943636
Si       2.51258808       0.12910884       1.55326259      -0.01456688      -0.05569889      -0.09678652
Si       2.84736617       2.13715225       6.75714334      -0.07910182       0.08934641       0.08473486
Si       2.80638259      -3.30592695       8.06054782      -0.00619761       0.00580514       0.07720502
Si       0.51248439       1.01468969       4.55802984       0.08158135      -0.08857661      -0.10500852
Si       4.87657070      -0.07405129       4.60735200      -0.07641301       0.01440467      -0.09868253
Si       0.68592870       4.98715059       4.51213713       0.12379932      -0.16478599       0.01263057
Si       1.34640855      -1.19237991       4.77019624       0.06203746       0.05095001      -0.11657596
Si      -1.97242166       6.30278960      -0.91475993      -0.04839016      -0.01461559      -0.06613273
Si       4.27556067       3.55586220       5.46801727      -0.00349673       0.01304730       0.05909428
Si       1.82874793       5.63887737       0.56517133       0.02361874      -0.07552697       0.03596790
Si       2.36341136      -1.89473294       2.76941324       0.03345766       0.08843705       0.08427480
Si       6.37705839      -4.06948047       7.32694581      -0.00648829      -0.07770313       0.18371846
Si       2.25721851       2.00218431       2.98893352      -0.08924719       0.07915915      -0.12557495
Si       0.79717185       3.00586594       5.85372031      -0.00591999       0.01605727       0.18718163
Si       1.04696102       4.05067660       2.30137529       0.05309237       0.00546045      -0.02066387
Si       3.27762499      -1.04109110       8.09052422       0.00008127       0.06240083      -0.04680177
22
Lattice="6.109001817921102 -1.0431218678102565 1.597548285440057 -3.4918209732540486 9.533190115587153 -1.9991903762752141 1.340271158029068 -3.4990742462244975 8.587154712664198" Properties=species:S:1:pos:R:3:forces:R:3 unique_starting_index=18 config_type=initial n_minim_iter=9 energy=-3583.3809863435786 stress="0.0018689436276231501 0.0002548832939528874 0.0013247874447991936 0.0002548832939528874 -0.0002921987219385068 0.0008893531557191997 0.0013247874447991936 0.0008893531557191997 -0.003046177774683875" free_energy=-3583.3809863435786 pbc="T T T"
Si       1.21184543       7.83907480       0.93743132      -0.06140531      -0.07029798      -0.04950932
Si       3.07596713      -0.11213235       5.99436127      -0.05017000       0.00183048      -0.10147712
Si       0.29540590      -2.75380470       8.07522140       0.02498083       0.08304284      -0.00085136
Si       7.03268951      -1.58249266      10.13435113       0.02524302      -0.01899050      -0.07283281
Si      -0.49495017       0.55887613       6.96177166      -0.02871869      -0.05902835       0.06169181
Si       4.69765821       2.09252627       3.67157485      -0.06965767       0.03784644       0.00051118
Si       2.52954957       0.12381428       1.55454081      -0.01383353       0.00251530      -0.12649575
Si       2.87487919       2.13785376       6.75502175      -0.11301782       0.04014518       0.05454118
Si       2.84753083      -3.29808432       8.04980295       0.00095253      -0.05136878       0.01911420
Si       0.52887595       1.01157588       4.53188717       0.09207205      -0.01118971      -0.04094166
Si       4.90928170      -0.07315876       4.61025412      -0.11891091       0.05941949      -0.09209954
Si       0.71360822       4.96273114       4.51116256       0.11200698      -0.05738113       0.07881667
Si       1.36600172      -1.18389540       4.75838234       0.06498634       0.03800565       0.00017354
Si      -1.98982021       6.29391956      -0.91537160      -0.07940751      -0.01323692       0.00623982
Si       4.30776861       3.55044863       5.47489363       0.01833050       0.04703393       0.06228867
Si       1.83709537       5.62904222       0.57259182       0.04238225       0.01482340       0.05333486
Si       2.38002140      -1.89045602       2.77045218       0.09797586       0.01641506       0.02244476
Si       6.43054705      -4.06343603       7.33754522      -0.02837110      -0.09470669       0.05719773
Si       2.26897784       2.00379980       2.97698504      -0.02027847       0.06307495      -0.10376437
Si       0.81745498       2.99414880       5.85159174       0.02696643      -0.05944237       0.13257049
Si       1.05346481       4.04715447       2.29813718       0.04334278      -0.01881719      -0.03367053
Si       3.31655583      -1.03678323       8.07482993       0.03453145       0.05030690       0.07271755
22
Lattice="6.0799029535282685 -1.0460482142315137 1.6038492208633655 -3.478318821661283 9.514944795442853 -2.024834515167689 1.3289393110450787 -3.5061103720394944 8.642916118087522" Properties=species:S:1:pos:R:3:forces:R:3 unique_starting_index=18 config_type=initial n_minim_iter=10 energy=-3583.3937330148797 stress="-0.002551150139447008 0.000809786844723774 -0.0003615245491551789 0.000809786844723774 -0.001468809197820381 0.000906897721432177 -0.0003615245491551789 0.000906897721432177 -0.0009286654651944077" free_energy=-3583.3937330148797 pbc="T T T"
Si       1.19633634       7.82892755       0.91932094       0.09573969      -0.15937964       0.00480577
Si       3.05160275      -0.12351334       6.03189901       0.07336853       0.02573163      -0.11102548
Si       0.28724778      -2.75750544       8.12742946       0.02065046       0.06810118       0.00523396
Si       6.99686535      -1.59395331      10.19924119       0.01567780      -0.00773621      -0.06614896
Si      -0.49931833       0.53721742       7.00832386       0.02742537      -0.01901469       0.04468976
Si       4.66283056       2.09099054       3.68031983      -0.05409018      -0.02167523       0.08637978
Si       2.52102439       0.11188741       1.55575022      -0.06946612       0.06963087      -0.13207935
Si       2.84985788       2.12341766       6.79669836      -0.00093234      -0.01625535       0.08198307
Si       2.83884359      -3.30176140       8.10177239       0.02875932      -0.17370329      -0.03153234
Si       0.52535859       0.99791150       4.52942722       0.21217207       0.18924111       0.06656390
Si       4.88061975      -0.07984553       4.63046860      -0.26982891       0.12584708      -0.17806506
Si       0.72641989       4.91159001       4.54206632      -0.05421423       0.02274716       0.07794572
Si       1.35582674      -1.17803932       4.78144531      -0.00622581      -0.17213973       0.05820370
Si      -1.99127304       6.27791045      -0.92751515       0.11524241      -0.00436743       0.03746099
Si       4.28218197       3.53013773       5.50858501       0.07369931      -0.01555993       0.06474902
Si       1.82761177       5.61228100       0.56798676      -0.14968926       0.09801410       0.01416252
Si       2.36551162      -1.88881662       2.79060590      -0.03854291      -0.02584109      -0.06264166
Si       6.40622343      -4.06797316       7.39757146       0.02187713       0.03631270      -0.01125644
Si       2.24719985       1.99982339       2.96937593      -0.00621265      -0.01873336      -0.08580745
Si       0.80810183       2.95871012       5.89417338      -0.09714050      -0.10762908       0.06238851
Si       1.03843931       4.03544608       2.30017316       0.04779254       0.03289817       0.02765625
Si       3.29805619      -1.04672984       8.11266440       0.01393827       0.07351100       0.04633379
22
Lattice="6.095142745798203 -1.0591901387200386 1.6088385553537867 -3.501669046901275 9.536279124615483 -2.039491082515683 1.3423764021342859 -3.5245591503280815 8.647999054305648" Properties=species:S:1:pos:R:3:forces:R:3 unique_starting_index=18 config_type=initial n_minim_iter=11 energy=-3583.404471717039 stress="-0.0005988941961465649 0.00018008133291227082 1.7233840852345623e-05 0.00018008133291227082 -0.00038762179181298377 0.00019995247017761926 1.7233840852345623e-05 0.00019995247017761926 -0.0002989557701826466" free_energy=-3583.404471717039 pbc="T T T"
Si       1.18467427       7.83845678       0.91020462       0.06490008      -0.15127382      -0.06460729
Si       3.06057001      -0.13481778       6.03194735       0.07424744       0.02526175      -0.07115942
Si       0.29657699      -2.76540436       8.13228054      -0.00559075       0.01716830       0.03104730
Si       7.02242684      -1.61774030      10.20591832       0.00988928       0.02145096      -0.05291827
Si      -0.49772818       0.52718951       7.00902507       0.02862987      -0.04160474       0.06961036
Si       4.66450882       2.08200094       3.68366538      -0.03869954       0.00466314       0.03687790