14
Lattice="6.72356 -3.4825635209429326e-31 2.3296050909204026e-31 -3.482563520942929e-31 6.723559999999999 -4.624697241009864e-31 -3.36178 -3.3617799999999995 6.401371146837671" Properties=species:S:1:pos:R:3:forces:R:3 unique_starting_index=236 config_type=initial n_minim_iter=1 energy=-2248.751492076188 stress="-0.16244061583123784 -0.04381302776287718 -0.4979517812288977 2.093086550072782e-12 -3.497758694643788e-12 1.3176808665104153e-12" pbc="T T T"
Si       1.35268682       3.56885018       4.93250484      -0.13281421       0.92347321       0.49070110
Si       2.00909319       0.20707018       1.46886630       0.13281421       0.92347320      -0.49070110
Si       0.77139807       1.88796019       2.57573379      -1.49234422      -0.71909850       0.01061715
Si       2.59038194      -1.47381981       3.82563735       1.49234422      -0.71909850      -0.01061715
Si       2.00909319       1.47381982       4.93250484       0.13281421      -0.92347321       0.49070111
Si       1.35268682       4.83559982       1.46886630      -0.13281421      -0.92347321      -0.49070110
Si       2.59038194       3.15470981       2.57573379       1.49234422       0.71909850       0.01061715
Si       0.77139807      -0.20707019       3.82563735      -1.49234422       0.71909850      -0.01061715
Si       4.10569821       0.00000000       4.98483093      12.05152605      -1.47136860     -22.36791487
Si      -0.74391821       3.36178000       1.41654021     -12.05152605      -1.47136860      22.36791487
Si      -0.74391821      -1.68089001       4.98483093     -12.05152605       1.47136860     -22.36791487
Si       4.10569821       1.68088999       1.41654021      12.05152605       1.47136860      22.36791487
Si       0.00000000       3.36178000      -0.00000000       0.00000000       0.47284773      -0.00000000
Si       3.36178000       1.68089000      -0.00000000       0.00000000      -0.47284773      -0.00000000
14
Lattice="6.755240107179766 -6.139688784118013e-18 -6.938893903906825e-18 -6.139688784118016e-18 6.732090008674555 3.7279299896304014e-17 -3.377620053589883 -3.3660450043372774 6.494281623502789" Properties=species:S:1:pos:R:3:forces:R:3 unique_starting_index=236 config_type=initial n_minim_iter=2 energy=-2251.2384870871597 stress="-0.1449089452479322 -0.04281883542845805 -0.4573772205603804 7.474899231850428e-12 -4.05917865571733e-12 -2.9306408736454827e-12" pbc="T T T"
Si       1.35904707       3.57347035       5.00414575      -0.10033415       1.00556893       0.34146061
Si       2.01857299       0.20742535       1.49013587       0.10033415       1.00556893      -0.34146061
Si       0.77488281       1.89028339       2.61311946      -1.32441425      -0.74908687      -0.02377859
Si       2.60273725      -1.47576161       3.88116216       1.32441425      -0.74908687       0.02377859
Si       2.01857299       1.47559715       5.00414575       0.10033415      -1.00556893       0.34146061
Si       1.35904707       4.84164216       1.49013587      -0.10033415      -1.00556893      -0.34146061
Si       2.60273725       3.15878411       2.61311946       1.32441425       0.74908687      -0.02377860
Si       0.77488281      -0.20726089       3.88116216      -1.32441425       0.74908687       0.02377859
Si       4.12625430      -0.00014732       5.05491227      10.89881619      -1.48795420     -20.29650680
Si      -0.74863423       3.36589768       1.43936935     -10.89881619      -1.48795420      20.29650681
Si      -0.74863423      -1.68287518       5.05491227     -10.89881619       1.48795420     -20.29650680
Si       4.12625430       1.68316982       1.43936935      10.89881619       1.48795420      20.29650680
Si       0.00000000       3.36609235      -0.00000000       0.00000000       0.34766668      -0.00000000
Si       3.37762006       1.68297516      -0.00000000      -0.00000000      -0.34766668      -0.00000000
14
Lattice="7.192318103791512 -9.624331362415866e-17 2.183942294857024e-16 -9.670466696539671e-17 6.857968504909976 3.7177939054525327e-16 -3.5961590518957554 -3.4289842524549874 7.915372734099752" Properties=species:S:1:pos:R:3:forces:R:3 unique_starting_index=236 config_type=initial n_minim_iter=3 energy=-2268.428905079523 stress="0.003970919072429718 0.034714023663292605 -0.07949058427701354 2.2483508084762565e-12 5.913215111515409e-12 1.1325758383801259e-12" pbc="T T T"
Si       1.44682226       3.64179254       6.09978998      -0.05259186       1.24587549      -0.57797510
Si       2.14933680       0.21280828       1.81558274       0.05259186       1.24587549       0.57797510
Si       0.82293411       1.92450773       3.18488355      -0.48410770      -1.06306031      -0.32023663
Si       2.77322495      -1.50447653       4.73048917       0.48410770      -1.06306031       0.32023663
Si       2.14933680       1.50168384       6.09978998       0.05259186      -1.24587549      -0.57797510
Si       1.44682226       4.93066809       1.81558274      -0.05259186      -1.24587549       0.57797510
Si       2.77322495       3.21896865       3.18488355       0.48410770       1.06306031      -0.32023663
Si       0.82293411      -0.21001560       4.73048917      -0.48410770       1.06306031       0.32023663
Si       4.41039105      -0.00237621       6.12373913       2.35654428      -1.00953897      -6.34972795
Si      -0.81423199       3.42660804       1.79163360      -2.35654428      -1.00953897       6.34972795
Si      -0.81423199      -1.71211591       6.12373913      -2.35654427       1.00953897      -6.34972795
Si       4.41039105       1.71686834       1.79163360       2.35654428       1.00953897       6.34972795
Si       0.00000000       3.42955263      -0.00000000      -0.00000000       0.38885212       0.00000000
Si       3.59615906       1.71392375      -0.00000000       0.00000000      -0.38885212      -0.00000000
14
Lattice="7.172287721318572 -1.8910876689096487e-16 8.972833663057208e-16 -1.9144304405632917e-16 6.692790641507137 9.608445728757232e-16 -3.586143860659285 -3.3463953207535675 8.36983840008852" Properties=species:S:1:pos:R:3:forces:R:3 unique_starting_index=236 config_type=initial n_minim_iter=4 energy=-2270.6274891476573 stress="0.01000546574913758 0.02480356570422401 -0.04718984645943663 9.726468162236475e-13 7.002136655369477e-13 4.126065641833679e-12" pbc="T T T"
Si       1.44268495       3.55635351       6.44833199      -0.38692470       2.04534549      -0.17637318
Si       2.14345892       0.20995819       1.92150640       0.38692471       2.04534549       0.17637318
Si       0.81964854       1.87621332       3.36681412      -0.54739115      -1.42543681      -0.37966959
Si       2.76649533      -1.47018201       5.00302427       0.54739115      -1.42543681       0.37966959
Si       2.14345892       1.46323947       6.44833199       0.38692471      -2.04534549      -0.17637318
Si       1.44268495       4.80963479       1.92150640      -0.38692471      -2.04534549       0.17637318
Si       2.76649533       3.14337966       3.36681412       0.54739115       1.42543681      -0.37966959
Si       0.81964854      -0.20301566       5.00302427      -0.54739115       1.42543681       0.37966959
Si       4.40294554      -0.00416283       6.45687011       0.90039937      -0.68820278      -3.34309213
Si      -0.81680167       3.34223249       1.91296828      -0.90039937      -0.68820278       3.34309213
Si      -0.81680167      -1.66903483       6.45687011      -0.90039937       0.68820278      -3.34309213
Si       4.40294554       1.67736049       1.91296828       0.90039937       0.68820278       3.34309213
Si       0.00000000       3.34766022      -0.00000000      -0.00000000       0.39366683       0.00000000
Si       3.58614387       1.67193276      -0.00000000      -0.00000000      -0.39366683       0.00000000
14
Lattice="7.04998260375312 -1.7831556036436839e-16 3.650909252254978e-16 -1.860379032585027e-16 6.413423901070135 1.5482511401561223e-15 -3.52499130187656 -3.2067119505350665 9.077097872777822" Properties=species:S:1:pos:R:3:forces:R:3 unique_starting_index=236 config_type=initial n_minim_iter=5 energy=-2271.5215862171763 stress="0.004816535987347601 0.021477843624995423 0.03262206144504403 -8.349422728831132e-13 3.945876269433925e-12 -1.0280945188451331e-11" pbc="T T T"
Si       1.41623192       3.41621544       6.99182321      -0.79079916       3.51064746       0.02536517
Si       2.10875939       0.20950349       2.08527466       0.79079916       3.51064746      -0.02536517
Si       0.80305187       1.79210660       3.64830142      -0.85395957      -1.61986662      -0.16605351
Si       2.72193944      -1.41460535       5.42879644       0.85395956      -1.61986662       0.16605351
Si       2.10875939       1.39385248       6.99182321       0.79079916      -3.51064746       0.02536517
Si       1.41623192       4.60056443       2.08527466      -0.79079916      -3.51064745      -0.02536517
Si       2.72193944       3.01796133       3.64830142       0.85395957       1.61986662      -0.16605351
Si       0.80305187      -0.18875062       5.42879644      -0.85395956       1.61986662       0.16605351
Si       4.33217354      -0.00678491       6.97596252      -0.82498273       0.21951380      -0.24529952
Si      -0.80718223       3.19992704       2.10113535       0.82498272       0.21951380       0.24529952
Si      -0.80718223      -1.59657107       6.97596252       0.82498273      -0.21951380      -0.24529952
Si       4.33217354       1.61014088       2.10113535      -0.82498273      -0.21951380       0.24529952
Si       0.00000000       3.20952333      -0.00000001      -0.00000000       0.41845406       0.00000000
Si       3.52499131       1.60054459      -0.00000001       0.00000000      -0.41845406      -0.00000000
14
Lattice="7.013482853013829 -1.5767610766916056e-16 1.2728709962579582e-15 -1.6777707046455895e-16 6.26668075079152 1.695778436504208e-15 -3.5067414265069137 -3.133340375395759 8.763523641405428" Properties=species:S:1:pos:R:3:forces:R:3 unique_starting_index=236 config_type=initial n_minim_iter=6 energy=-2272.1223537151973 stress="-0.004642979146723267 0.011067797656090684 0.002768119363978035 -7.373100360705907e-12 5.423298500827887e-12 1.909144245145231e-12" pbc="T T T"
Si       1.40662848       3.34624597       6.75041544      -0.85423621       3.49734512       0.25109675
Si       2.10011296       0.21290560       2.01310819       0.85423621       3.49734512      -0.25109675
Si       0.79644163       1.74732046       3.52142204      -1.22296790      -1.71375748       0.02977644
Si       2.71029980      -1.38601991       5.24210159       1.22296790      -1.71375748      -0.02977644
Si       2.10011296       1.35376459       6.75041544       0.85423621      -3.49734512       0.25109675
Si       1.40662848       4.48710496       2.01310819      -0.85423621      -3.49734512      -0.25109675
Si       2.71029980       2.95269010       3.52142204       1.22296791       1.71375748       0.02977644
Si       0.79644163      -0.18065028       5.24210159      -1.22296791       1.71375748      -0.02977644
Si       4.30737526      -0.00611721       6.73372298      -0.40403206      -0.00984743      -1.13835950
Si      -0.80063382       3.12722317       2.02980065       0.40403206      -0.00984744       1.13835950
Si      -0.80063382      -1.56055298       6.73372298       0.40403206       0.00984744      -1.13835950
Si       4.30737526       1.57278739       2.02980065      -0.40403206       0.00984744       1.13835950
Si       0.00000000       3.13706432      -0.00000001       0.00000000       0.50256115       0.00000000
Si       3.50674143       1.56294624      -0.00000001       0.00000000      -0.50256115      -0.00000000
14
Lattice="7.0494044146060295 7.97033959695298e-17 2.332433703481177e-15 7.03493269591672e-17 6.190827890009802 1.8526708770890118e-15 -3.524702207303013 -3.0954139450049003 8.736872410055888" Properties=species:S:1:pos:R:3:forces:R:3 unique_starting_index=236 config_type=initial n_minim_iter=7 energy=-2272.383989101298 stress="-0.005178360416319287 0.007142262093887723 -0.0006288403965065586 -2.3023766119577533e-13 1.1121892918339963e-11 2.81161026475959e-12" pbc="T T T"
Si       1.41116404       3.31431665       6.73122666      -0.87261146       3.42808306       0.31483800
Si       2.11353818       0.21890270       2.00564574       0.87261146       3.42808306      -0.31483800
Si       0.79669992       1.72196915       3.51087179      -1.14834297      -1.60926923       0.04963068
Si       2.72800230      -1.37344479       5.22600061       1.14834297      -1.60926923      -0.04963068
Si       2.11353818       1.32880427       6.73122666       0.87261146      -3.42808306       0.31483800
Si       1.41116404       4.42421821       2.00564574      -0.87261146      -3.42808306      -0.31483800
Si       2.72800230       2.92115176       3.51087179       1.14834297       1.60926923       0.04963068
Si       0.79669992      -0.17426218       5.22600061      -1.14834297       1.60926923      -0.04963068
Si       4.32817440      -0.00606731       6.70716847      -0.39801284      -0.08531140      -1.12520644
Si      -0.80347218       3.08934664       2.02970393       0.39801284      -0.08531140       1.12520644
Si      -0.80347218      -1.54163967       6.70716847       0.39801284       0.08531140      -1.12520644
Si       4.32817440       1.55377428       2.02970393      -0.39801284       0.08531140       1.12520644
Si       0.00000000       3.10032490      -0.00000001      -0.00000000       0.52461534       0.00000000
Si       3.52470221       1.54279602      -0.00000001       0.00000000      -0.52461534       0.00000000
14
Lattice="7.142815002911793 -1.6084066539566386e-16 2.320902724989916e-15 -1.7103451198145463e-16 6.079440074290724 2.6729246210007044e-15 -3.571407501455895 -3.03972003714536 8.75085003489187" Properties=species:S:1:pos:R:3:forces:R:3 unique_starting_index=236 config_type=initial n_minim_iter=8 energy=-2272.863046011954 stress="-0.0011229300553449132 0.002287493094590573 0.0016968973343412803 -7.87046225515617e-12 -4.60022030451708e-13 4.204683170750738e-13" pbc="T T T"
Si       1.42338313       3.27371236       6.74591190      -0.80618539       3.06697588       0.37090942
Si       2.14802438       0.23399232       2.00493813       0.80618539       3.06697588      -0.37090942
Si       0.79872926       1.68205426       3.51710600      -0.85044549      -1.36276897       0.02306014
Si       2.77267825      -1.35766577       5.23374402       0.85044549      -1.36276897      -0.02306014
Si       2.14802438       1.28586770       6.74591190       0.80618539      -3.06697588       0.37090942
Si       1.42338313       4.32558773       2.00493813      -0.80618539      -3.06697588      -0.37090942
Si       2.77267825       2.87752579       3.51710600       0.85044549       1.36276897       0.02306014
Si       0.79872926      -0.16219425       5.23374402      -0.85044549       1.36276897      -0.02306014
Si       4.38257073      -0.00643168       6.70390221      -0.48118904      -0.17625816      -0.88234969
Si      -0.81116322       3.03328836       2.04694782       0.48118904      -0.17625816       0.88234969
Si      -0.81116322      -1.51342834       6.70390221       0.48118904       0.17625816      -0.88234969
Si       4.38257073       1.52629169       2.04694782      -0.48118904       0.17625816       0.88234969
Si       0.00000000       3.04745461      -0.00000001      -0.00000000       0.52903972       0.00000000
Si       3.57140751       1.51212545      -0.00000001       0.00000000      -0.52903972       0.00000000
14
Lattice="7.186793523275759 2.4236933317510805e-16 3.876017727091835e-15 2.2830408327756963e-16 6.003896772772271 4.479028136647005e-15 -3.593396761637877 -3.001948386386133 8.67005621485523" Properties=species:S:1:pos:R:3:forces:R:3 unique_starting_index=236 config_type=initial n_minim_iter=9 energy=-2273.486662532466 stress="0.0021883354421436615 0.00013218362638118365 -0.005478529929039653 5.809021633845504e-12 1.4031242711331912e-12 4.58267700304111e-12" pbc="T T T"
Si       1.41897825       3.26865446       6.69350764      -0.44215765       2.03233746       0.40065871
Si       2.17441852       0.26670607       1.97654856       0.44215765       2.03233746      -0.40065871
Si       0.78975539       1.64532515       3.48524785      -0.49637435      -1.09770945      -0.06952769
Si       2.80364138      -1.35662324       5.18480836       0.49637435      -1.09770945       0.06952769
Si       2.17441852       1.23426812       6.69350764       0.44215765      -2.03233746       0.40065871
Si       1.41897825       4.23621651       1.97654856      -0.44215765      -2.03233746      -0.40065871
Si       2.80364138       2.85759743       3.48524785       0.49637435       1.09770945      -0.06952769
Si       0.78975539      -0.14435096       5.18480836      -0.49637435       1.09770945       0.06952769
Si       4.40169433      -0.00839891       6.61850717      -0.34823533      -0.30236333      -0.77861192
Si      -0.80829756       2.99354948       2.05154904       0.34823533      -0.30236333       0.77861192
Si      -0.80829756      -1.49257529       6.61850717       0.34823533       0.30236333      -0.77861192
Si       4.40169433       1.50937310       2.05154904      -0.34823533       0.30236333       0.77861192
Si       0.00000000       3.01573137      -0.00000001       0.00000000       0.44196313       0.00000000
Si       3.59339677       1.48719121      -0.00000001      -0.00000000      -0.44196313      -0.00000000
14
Lattice="7.082252452926356 1.5753433421210333e-16 3.830786315831549e-15 1.418797890419624e-16 5.998585060123068 2.569888910640851e-15 -3.5411262264631755 -2.999292530061533 8.994016721354004" Properties=species:S:1:pos:R:3:forces:R:3 unique_starting_index=236 config_type=initial n_minim_iter=10 energy=-2273.674854511288 stress="-0.0038166205964396327 0.00508823555543422 0.028729862335838543 -3.2139266571382047e-13 3.871463921863233e-12 7.26120061290345e-12" pbc="T T T"
Si       1.38942673       3.29474308       6.95726030      -0.09262410       1.31771835       0.24426510
Si       2.15169951       0.29545055       2.03675641       0.09262410       1.31771835      -0.24426510
Si       0.76826410       1.62821655       3.61310751      -0.37354714      -1.06510812       0.11786574
Si       2.77286213      -1.37107598       5.38090920       0.37354714      -1.06510813      -0.11786574
Si       2.15169951       1.20419572       6.95726030       0.09262410      -1.31771835       0.24426510
Si       1.38942673       4.20348825       2.03675641      -0.09262410      -1.31771835      -0.24426510
Si       2.77286213       2.87072224       3.61310751       0.37354714       1.06510813       0.11786574
Si       0.76826410      -0.12857029       5.38090920      -0.37354714       1.06510813      -0.11786574
Si       4.33064819      -0.01270307       6.83929047      -0.64193905       0.12251278      -0.16643725
Si      -0.78952196       2.98658946       2.15472624       0.64193905       0.12251278       0.16643725
Si      -0.78952196      -1.48694319       6.83929047       0.64193905      -0.12251278      -0.16643725
Si       4.33064819       1.51234934       2.15472624      -0.64193905      -0.12251278       0.16643725
Si       0.00000000       3.01936556      -0.00000001       0.00000000       0.31220859      -0.00000000
Si       3.54112623       1.47957323      -0.00000001      -0.00000000      -0.31220859       0.00000000
14
Lattice="7.120627016125839 2.2276656824358946e-16 3.801164528246195e-15 2.05706237179166e-16 5.95552529054931 3.6838197861785085e-15 -3.560313508062916 -2.977762645274652 8.635505041280629" Properties=species:S:1:pos:R:3:forces:R:3 unique_starting_index=236 config_type=initial n_minim_iter=11 energy=-2273.9126149009126 stress="-0.0027082787065490477 -0.002373027528862355 -0.005505114914194695 -2.2683278057451892e-12 -4.982798348274876e-12 1.0303113925120862e-11" pbc="T T T"
Si       1.39657234       3.27495103       6.68165158      -0.10819652       1.24437221       0.41942259
Si       2.16374118       0.29718838       1.95385345       0.10819652       1.24437221      -0.41942259
Si       0.77088275       1.61340974       3.46991277      -0.33294664      -0.91216624      -0.08397738
Si       2.78943076      -1.36435291       5.16559226       0.33294664      -0.91216624       0.08397738
Si       2.16374118       1.19169294       6.68165158       0.10819652      -1.24437221       0.41942259
Si       1.39657234       4.16945559       1.95385345      -0.10819652      -1.24437221      -0.41942259
Si       2.78943076       2.85323423       3.46991277       0.33294664       0.91216624      -0.08397738
Si       0.77088275      -0.12452841       5.16559226      -0.33294664       0.91216624       0.08397738
Si       4.35145986      -0.01225313       6.56549968      -0.22998015      -0.22856037      -0.60867661
Si      -0.79114634       2.96550951       2.07000535       0.22998015      -0.22856037       0.60867661
Si      -0.79114634      -1.47662819       6.56549968       0.22998015       0.22856037      -0.60867661
Si       4.35145986       1.50113445       2.07000535      -0.22998015       0.22856037       0.60867661
Si       0.00000000       2.99860583      -0.00000000       0.00000000       0.31260416      -0.00000000
Si       3.56031351       1.46803814      -0.00000000       0.00000000      -0.31260416       0.00000000
14
Lattice="7.142509128941863 1.1858200534310216e-16 3.578692019958612e-15 1.014211847504328e-16 5.971558408678904 5.3838590570238e-15 -3.571254564470928 -2.9857792043394475 8.689533228274067" Properties=species:S:1:pos:R:3:forces:R:3 unique_starting_index=236 config_type=initial n_minim_iter=12 energy=-2273.958196013649 stress="-0.00033776924054291547 0.0005057601908773048 0.0004391807078814668 1.3636226913638128e-13 -8.941953320975275e-12 -2.976557967089907e-12" pbc="T T T"
Si       1.40048750       3.28679628       6.72583160      -0.07852862       1.16374138       0.37962634
Si       2.17076708       0.30101707       1.96370161       0.07852862       1.16374138      -0.37962634
Si       0.77209286       1.61553318       3.49114658      -0.25000287      -0.89128837      -0.08154788
Si       2.79916171      -1.37024602       5.19838664       0.25000287      -0.89128837       0.08154788
Si       2.17076708       1.19187253       6.72583160       0.07852862      -1.16374138       0.37962635
Si       1.40048750       4.17765173       1.96370161      -0.07852862      -1.16374138      -0.37962635
Si       2.79916171       2.86313562       3.49114658       0.25000287       0.89128837      -0.08154788
Si       0.77209286      -0.12264358       5.19838664      -0.25000287       0.89128837       0.08154788
Si       4.36403169      -0.01284240       6.60312850      -0.31940752      -0.23471660      -0.46191113
Si      -0.79277711       2.97293680       2.08640472       0.31940752      -0.23471660       0.46191113
Si      -0.79277711      -1.48004720       6.60312850       0.31940752       0.23471660      -0.46191113
Si       4.36403169       1.50573200       2.08640472      -0.31940752       0.23471660       0.46191113
Si       0.00000000       3.00743933      -0.00000001      -0.00000000       0.31654141      -0.00000000
Si       3.57125457       1.47122948      -0.00000001      -0.00000000      -0.31654141      -0.00000000
14
Lattice="7.145456854233342 5.971331521932911e-17 3.5448619924613764e-15 4.249414092871185e-17 5.967870121934899 4.668314091503171e-15 -3.572728427116667 -2.983935060967446 8.684872543687032" Properties=species:S:1:pos:R:3:forces:R:3 unique_starting_index=236 config_type=initial n_minim_iter=13 energy=-2273.992582097859 stress="-0.00010152509223235192 0.0004235586582944502 0.0003691141500428079 -7.741248310206484e-12 -3.0913300337245954e-12 8.58734902916338e-12" pbc="T T T"
Si       1.40077327       3.28779004       6.72452858      -0.05773120       1.10267083       0.37765869
Si       2.17195517       0.30385498       1.96034395       0.05773120       1.10267083      -0.37765869
Si       0.77148122       1.61221947       3.48877907      -0.22066810      -0.86125265      -0.09113461
Si       2.80124722      -1.37171559       5.19609347       0.22066810      -0.86125265       0.09113462
Si       2.17195517       1.18811255       6.72452858       0.05773120      -1.10267083       0.37765869
Si       1.40077327       4.17204761       1.96034395      -0.05773120      -1.10267083      -0.37765869
Si       2.80124722       2.86368312       3.48877907       0.22066810       0.86125265      -0.09113461
Si       0.77148122      -0.12025194       5.19609347      -0.22066810       0.86125265       0.09113462
Si       4.36464417      -0.01344435       6.59678296      -0.30881155      -0.24209696      -0.45338318
Si      -0.79191574       2.97049071       2.08808957       0.30881155      -0.24209696       0.45338318
Si      -0.79191574      -1.47852318       6.59678296       0.30881155       0.24209695      -0.45338318
Si       4.36464417       1.50541188       2.08808957      -0.30881155       0.24209695       0.45338318
Si       0.00000000       3.00640430      -0.00000001       0.00000000       0.30416244       0.00000000
Si       3.57272843       1.46949829      -0.00000001       0.00000000      -0.30416244      -0.00000000
14
Lattice="7.157003128572034 2.8133190046961006e-16 3.61879437036953e-15 2.644356916839466e-16 5.927805700583339 5.555271884143146e-15 -3.578501564286013 -2.963902850291665 8.634040460259792" Properties=species:S:1:pos:R:3:forces:R:3 unique_starting_index=236 config_type=initial n_minim_iter=14 energy=-2274.320759277885 stress="0.0007199722267798961 -0.0006322336583945694 0.0009558465043708877 3.2996379862504564e-12 4.87075272955777e-12 -8.475249308247571e-12" pbc="T T T"
Si       1.40023231       3.30277199       6.71484633       0.17531570       0.41137773       0.36127616
Si       2.17826926       0.33886914       1.91919412      -0.17531570       0.41137773      -0.36127616
Si       0.76200828       1.57245462       3.46119817       0.08586782      -0.51377541      -0.18458735
Si       2.81649329      -1.39144823       5.17284228      -0.08586782      -0.51377541       0.18458735
Si       2.17826926       1.14308229       6.71484633      -0.17531570      -0.41137773       0.36127616
Si       1.40023231       4.10698514       1.91919412       0.17531570      -0.41137773      -0.36127616
Si       2.81649329       2.87339966       3.46119817      -0.08586782       0.51377541      -0.18458735
Si       0.76200828      -0.09050320       5.17284228       0.08586782       0.51377541       0.18458735
Si       4.35669558      -0.02148949       6.52254595      -0.17928938      -0.27534447      -0.39293597
Si      -0.77819401       2.94241336       2.11149450       0.17928938      -0.27534447       0.39293597
Si      -0.77819401      -1.46046193       6.52254595       0.17928938       0.27534447      -0.39293597
Si       4.35669558       1.50344092       2.11149450      -0.17928938       0.27534447       0.39293597
Si       0.00000000       2.99644229      -0.00000000       0.00000000       0.13058127      -0.00000000
Si       3.57850157       1.44941198      -0.00000000      -0.00000000      -0.13058127       0.00000000
