10
Lattice="3.7119717861502926 -0.4355218155018403 0.29292393180722415 1.333520003812225 5.009208856349401 1.9274113704382165 0.5410776903959629 5.673719913820617 10.926611576884437" Properties=species:S:1:pos:R:3:forces:R:3 unique_starting_index=160 config_type=initial n_minim_iter=15 energy=-1628.3212028631044 stress="-9.029667062012204e-06 -6.402282084195356e-05 2.913841330108926e-05 -6.402282084195356e-05 5.81681963582212e-05 3.312290150214738e-05 2.913841330108926e-05 3.312290150214738e-05 -4.224348004155393e-05" free_energy=-1628.3212028631044 pbc="T T T"
Si       3.31496705       9.24863854      11.48550602       0.00423661       0.00232131       0.00271530
Si       5.42298567       9.67114022      10.19520328       0.00545705      -0.00221103      -0.00648274
Si       2.95966145       0.95129016       3.24959816      -0.00672766      -0.00290934      -0.00312505
Si       4.21036242       1.74274137       5.26293113       0.00114530       0.00202793      -0.00273835
Si       1.43163318       4.22066009       4.02570342      -0.00112677       0.00264882       0.00260037
Si       2.32484817       2.14986172       6.60159532      -0.00064222       0.00059749       0.00297807
Si       3.45551512       4.43580230       2.69147003      -0.00466866      -0.00148496       0.00266701
Si       3.98275982       6.97471295      10.87952184       0.00232339       0.00568942       0.00021834
Si       1.37809133       1.76774552       1.49237936      -0.00018347       0.00025605       0.00068983
Si       2.42882752       4.72557783       6.34865584       0.00018643      -0.00693571       0.00047722
