12
Lattice="8.828009518593426 2.173253276473903 -0.8259136220227066 5.386446965873176 6.915390981678538 1.1486137480741605 2.9397094203581857 1.7576417290322959 4.946632758771323" Properties=species:S:1:pos:R:3:forces:R:3 unique_starting_index=78 config_type=initial n_minim_iter=1 energy=-1949.8802843118635 stress="-0.00036428850449668184 0.0002059263611723479 0.0007707052047017951 0.0002059263611723479 0.0005926906304883192 -0.000513417427039465 0.0007707052047017951 -0.000513417427039465 0.0007558350018653456" free_energy=-1949.8802843118635 pbc="T T T"
Si       4.45631778       4.12634033       2.68679675      -0.15116199       0.29841266      -0.39549915
Si      10.12463627       5.09880474       2.07043601       0.32595405      -0.31723034       0.49175562
Si      14.58817719       9.68864216       3.06797034      -0.60828452       0.62349652       0.30653832
Si       6.90281690       3.67704336       2.08045415      -0.44414017       0.38336015      -0.03785129
Si       8.04767365       6.25341851       2.35237243       0.54201230      -0.56634825       0.87287069
Si      10.46740521       9.11377276       5.39773634      -0.33691555       0.61435563      -1.10065322
Si       8.60957464       2.95829252      -0.41968727      -0.04660619       0.38628024      -0.83253464
Si      10.09376501       6.84448789       4.76929703       0.07467189      -0.39230667       0.36075582
Si       6.55040408       1.59939438      -0.42620394       0.16354002      -0.06668354       0.13989455
Si      10.98569340       4.52850671      -0.11943584       0.04943153      -0.15150445      -0.05157225
Si       6.39182369       5.25764531       3.99076862       0.21373058      -0.23452397      -0.02468266
Si       7.78364361       7.12657601       5.14056673       0.21776805      -0.57730797       0.27097822
12
Lattice="8.917728805588927 2.08186436296374 -0.9566456283288568 5.37815402140093 6.797035474925723 1.1104206272883936 2.8605785669852533 1.7798266628378387 4.817332449319971" Properties=species:S:1:pos:R:3:forces:R:3 unique_starting_index=78 config_type=initial n_minim_iter=2 energy=-1950.343288900393 stress="0.0005145345354399515 -0.0014252633459779312 0.001483400075627302 -0.0014252633459779312 -0.00626525453235028 -0.0011361369554331966 0.001483400075627302 -0.0011361369554331966 0.00042462440675982034" free_energy=-1950.343288900393 pbc="T T T"
Si       4.40816250       4.10588730       2.56086477      -0.27189217       0.59475316      -0.60518693
Si      10.18775983       4.96144299       1.94730269       0.36994335      -0.03101829       0.19547476
Si      14.54932997       9.56971406       2.88138736      -0.44127786      -0.14801591       0.16539556
Si       6.86046989       3.65172644       1.94975069      -0.39196674       0.06665890       0.09598757
Si       8.10144027       6.08794628       2.31901133       0.38354899       0.25587651      -0.04932315
Si      10.37787367       9.05320746       5.09369004      -0.01096833      -0.54367072      -0.06014797
Si       8.68141470       2.90086905      -0.62971183       0.15106623       0.33246303      -0.69066864
Si      10.06704149       6.70835355       4.60503295      -0.01912355       0.11798932       0.10212704
Si       6.63064077       1.52733993      -0.51278170       0.13738966      -0.23588230       0.26222511
Si      11.07496098       4.38321674      -0.28125876      -0.10105098      -0.10352514       0.26952569
Si       6.36905393       5.17121576       3.85363867       0.13105855       0.16419393       0.00011899
Si       7.74140336       6.98400108       5.00875754       0.06327286      -0.46982250       0.31447197
12
Lattice="8.945289625327158 2.1201476243751376 -1.022846286915196 5.38995852201618 6.89955797980965 1.0981408751807256 2.820571921792624 1.8413756158298404 4.768590919306846" Properties=species:S:1:pos:R:3:forces:R:3 unique_starting_index=78 config_type=initial n_minim_iter=3 energy=-1950.4329470469304 stress="0.004761858485689512 2.2047499269860898e-05 -0.00012074448342815795 2.2047499269860898e-05 0.001536797386390369 0.0016408052583834836 -0.00012074448342815795 0.0016408052583834836 0.0027201241404804706" free_energy=-1950.4329470469304 pbc="T T T"
Si       4.39071649       4.19920965       2.51083233      -0.27399536       0.72154360      -0.55771729
Si      10.20873975       5.04773812       1.88572582       0.22204099      -0.12908406       0.06989496
Si      14.53806265       9.75715134       2.79900025      -0.31408682      -0.30756161       0.11471183
Si       6.84029180       3.73800574       1.89557574      -0.38040844       0.05515884       0.18119599
Si       8.12493361       6.18137487       2.29233132       0.32405896       0.30633494      -0.12320367
Si      10.35230708       9.23487658       4.98631316       0.03250227      -0.72251987       0.21146526
Si       8.70845845       2.96613809      -0.72315666       0.21105041       0.25412924      -0.54174122
Si      10.05259449       6.83343369       4.53403813       0.04073158       0.32750594      -0.00954619
Si       6.65573795       1.55234588      -0.55668459       0.26631783      -0.22990495       0.18054271
Si      11.10439373       4.45311885      -0.35581354      -0.13838241      -0.10530684       0.16960672
Si       6.35983434       5.26943073       3.80001626       0.09278224       0.28274645       0.01169385
Si       7.72564257       7.09774253       4.95874046      -0.08261124      -0.45304168       0.29309705
12
Lattice="8.858076360548726 2.1253457210636673 -1.073719891027474 5.32739200300007 6.909452975109681 1.0514330623429533 2.7542637854083294 1.8494095646723148 4.685034054982204" Properties=species:S:1:pos:R:3:forces:R:3 unique_starting_index=78 config_type=initial n_minim_iter=4 energy=-1950.488048623953 stress="-0.004366886056694892 0.001399487553651316 0.0005530509243895129 0.001399487553651316 -0.0035869388315758763 0.0013918838653080182 0.0005530509243895129 0.0013918838653080182 -0.007837782068039789" free_energy=-1950.488048623953 pbc="T T T"
Si       4.31773459       4.22827153       2.42876027      -0.37264180       0.68883520      -0.44448504
Si      10.10151116       5.04802649       1.80533655       0.17452106      -0.04448912      -0.19750635
Si      14.33947092       9.79122647       2.67663087      -0.25249237      -0.45702912       0.02224396
Si       6.73315996       3.75978876       1.82567834      -0.40041862      -0.07124982       0.19643067
Si       8.04541973       6.18111994       2.23123385       0.27963681       0.41266637      -0.21686241
Si      10.19843962       9.26027750       4.82172822       0.02577680      -0.83499693       0.31051229
Si       8.62544430       2.98827427      -0.80979580       0.41387993       0.20374894      -0.27128056
Si       9.91532456       6.84167725       4.41663398       0.19270757       0.43886385      -0.21209839
Si       6.59793475       1.55044545      -0.59028256       0.20141368      -0.23508817       0.30956835
Si      10.98926654       4.45570937      -0.42722441      -0.12907406      -0.06796131       0.17226830
Si       6.27348563       5.27810138       3.70632023       0.03643149       0.36225560       0.11056544
Si       7.61379684       7.08739257       4.85457042      -0.16974049      -0.39555548       0.22064373
12
Lattice="8.844299087215704 2.1112704984597106 -1.154606157965551 5.286120731448568 6.932290578075827 0.9905816809764465 2.706310089550978 1.8310622263300325 4.687632316911849" Properties=species:S:1:pos:R:3:forces:R:3 unique_starting_index=78 config_type=initial n_minim_iter=5 energy=-1950.5577628058409 stress="0.0011086063475722679 0.0012528143545081848 -0.0018282092580994397 0.0012528143545081848 0.00238326746719297 0.000940758663259347 -0.0018282092580994397 0.000940758663259347 -0.0009561944121156905" free_energy=-1950.5577628058409 pbc="T T T"
Si       4.26487758       4.25761707       2.37269998      -0.32770738       0.49193303      -0.21032326
Si      10.06764992       5.02578832       1.73336708       0.00618944      -0.09377837      -0.40423120
Si      14.23436955       9.80030385       2.55986964      -0.16748781      -0.45943915      -0.06609147
Si       6.67076908       3.76320307       1.77777658      -0.32167086      -0.03847785       0.12274656
Si       8.01586394       6.17783851       2.17874626       0.17358819       0.42042801      -0.32007441
Si      10.10366524       9.25959438       4.71653200       0.01776687      -0.61338969       0.38369945
Si       8.61559985       2.99646702      -0.92511207       0.59093066       0.16185104       0.10355726
Si       9.84444539       6.83096253       4.35164322       0.23416962       0.42018912      -0.18899526
Si       6.59634796       1.53056446      -0.63978430       0.25790433      -0.20620912       0.20537660
Si      10.95605919       4.44027455      -0.52550473      -0.11124690      -0.04683701       0.09313101
Si       6.22326101       5.27647710       3.66295768      -0.06107490       0.33093431       0.11287261
Si       7.54063745       7.05833549       4.81447384      -0.29136126      -0.36720431       0.16833210
12
Lattice="8.672268883910997 2.0343697721486707 -1.1368561461757534 5.128339478087366 6.901713053489724 0.9647861701885992 2.6704936864569673 1.7524023812281013 4.767476782145579" Properties=species:S:1:pos:R:3:forces:R:3 unique_starting_index=78 config_type=initial n_minim_iter=6 energy=-1950.68268916874 stress="6.465039409436286e-05 -0.0010693226591484016 0.0006751405069987931 -0.0010693226591484016 0.0008083620686866472 -0.0008025552513340547 0.0006751405069987931 -0.0008025552513340547 0.006888007326569726" free_energy=-1950.68268916874 pbc="T T T"
Si       4.13223698       4.26488289       2.35588408      -0.35500821      -0.03576701       0.27302881
Si       9.88152703       4.90184362       1.77148785       0.05198673      -0.18561221      -0.25409803
Si      13.87373028       9.64368322       2.60199459      -0.04990253      -0.28236526      -0.11692599
Si       6.48900564       3.69559955       1.82622939      -0.15078942       0.06847833      -0.12246449
Si       7.86596607       6.11499694       2.20092319       0.11563644       0.31240267      -0.42596183
Si       9.85919250       9.09521862       4.75922446       0.01331476       0.04255007       0.37536756
Si       8.47540631       2.95258469      -0.95598051       0.44932706       0.21777408       0.28730000
Si       9.64977903       6.72615236       4.41687315       0.28695755       0.04669610      -0.03494465
Si       6.49272711       1.44831044      -0.60132106       0.21857349       0.05123048      -0.04689478
Si      10.71736916       4.33595274      -0.49589763      -0.01782040      -0.15771873       0.01954478
Si       6.09118846       5.21258126       3.71574590      -0.29150366       0.16989393       0.00720083
Si       7.35815156       6.90448030       4.89603345      -0.27077180      -0.24756245       0.03884780
12
Lattice="8.704650056121409 2.061778404244386 -1.1342273643058844 5.1500648259449155 6.963411948385999 0.9150213706379067 2.6798984286994414 1.7501368520117317 4.67271163518774" Properties=species:S:1:pos:R:3:forces:R:3 unique_starting_index=78 config_type=initial n_minim_iter=7 energy=-1950.745037507328 stress="0.004329681220138935 -0.0009425291434627156 0.0002085425796905985 -0.0009425291434627156 -0.0020361485415675068 -0.00115334727526474 0.0002085425796905985 -0.00115334727526474 -0.0032114475076691997" free_energy=-1950.745037507328 pbc="T T T"
Si       4.12538178       4.32065881       2.28879322      -0.30199979      -0.16813514       0.51035795
Si       9.92632639       4.93761946       1.69111096      -0.19635591      -0.19687865       0.05670093
Si      13.92070495       9.69687524       2.49839029      -0.17696802      -0.06011792      -0.16562836
Si       6.49645478       3.72354375       1.77663997      -0.05251892       0.11449034      -0.17550807
Si       7.90867188       6.19625473       2.10104171       0.26721337       0.01681182      -0.26560340
Si       9.90063322       9.12865534       4.65708216      -0.01104282       0.34647447       0.18149928
Si       8.53809888       2.99976695      -0.95774789       0.27032550       0.16797041       0.20471812
Si       9.70129447       6.79484803       4.29138601       0.00036943      -0.26383094       0.03156709
Si       6.53093014       1.45876691      -0.59678501       0.16463132       0.30166563      -0.02711801
Si      10.75160829       4.37638535      -0.50789646       0.16808042      -0.05994317      -0.21079384
Si       6.10521138       5.26938884       3.62717846      -0.29750128      -0.02947126       0.01399140
Si       7.37025656       6.93066820       4.78302665       0.16576671      -0.16903560      -0.15418308
12
Lattice="8.600060285816477 2.111523227017975 -1.1309640644820684 5.107540462500021 7.04365751810982 0.9327018432161103 2.6505015747018232 1.7842692528517505 4.695171920955343" Properties=species:S:1:pos:R:3:forces:R:3 unique_starting_index=78 config_type=initial n_minim_iter=8 energy=-1950.7788841064778 stress="-0.00018757716297739224 0.0016223838188126137 0.00023478498034214517 0.0016223838188126137 -0.0012248747508271911 -0.00015318237979960883 0.00023478498034214517 -0.00015318237979960883 -0.001382334957240699" free_energy=-1950.7788841064778 pbc="T T T"
Si       4.07637598       4.37875772       2.31697919      -0.34424677      -0.14127090       0.46742930
Si       9.81225033       5.01886724       1.70262873      -0.07256886      -0.30846215       0.13062235
Si      13.77526381       9.82344938       2.52516481      -0.15211747       0.02433807      -0.17087725
Si       6.42344368       3.78232487       1.79169362      -0.10446377       0.20137604      -0.14045761
Si       7.83114597       6.29638757       2.10532319       0.24611563      -0.04630388      -0.10764177
Si       9.80590760       9.24487211       4.71403091       0.02864093       0.31908353       0.12133341
Si       8.45110235       3.05999026      -0.94222148       0.12836068       0.16189180       0.12404317
Si       9.60323812       6.90282668       4.31918258       0.06215650      -0.22597479       0.02092691
Si       6.45717800       1.49889360      -0.59355713       0.15813159       0.38029416      -0.10792638
Si      10.62901548       4.45285255      -0.49803405       0.20909705      -0.04043335      -0.20420469
Si       6.03513941       5.35201308       3.65517820      -0.26206830      -0.08990947      -0.05977408
Si       7.29413119       7.02298983       4.81508260       0.10296278      -0.23462904      -0.07347335
12
Lattice="8.472450015524618 2.091050837677402 -1.1448848008555248 4.996761373833204 7.108036003399066 0.9410344142294937 2.592212898276092 1.8034677884776966 4.703806359267603" Properties=species:S:1:pos:R:3:forces:R:3 unique_starting_index=78 config_type=initial n_minim_iter=9 energy=-1950.8207949883292 stress="-0.0038935951526589624 0.000561569294809732 -0.0006623838896550893 0.000561569294809732 0.0008865901578300157 0.0009234491773654581 -0.0006623838896550893 0.0009234491773654581 0.000934266407186751" free_energy=-1950.8207949883292 pbc="T T T"
Si       3.96671585       4.42553670       2.33886179      -0.41852398      -0.10359524       0.40147630
Si       9.64525277       5.02038980       1.69443247      -0.01858484      -0.30253160       0.13555069
Si      13.51567096       9.86746916       2.51989488      -0.16182517       0.03816697      -0.16467513
Si       6.29762998       3.80782273       1.78893126      -0.07590779       0.26287902      -0.09024168
Si       7.69955190       6.35230769       2.09089295       0.24167083      -0.17927873       0.05686959
Si       9.60861066       9.31844430       4.74299773       0.10789198       0.21267330       0.02032358
Si       8.34021466       3.06600139      -0.94912979       0.01446145       0.11504783       0.10678610
Si       9.43104883       6.94964118       4.32235670       0.12613670      -0.11649452      -0.00360680
Si       6.37386742       1.49201558      -0.60347751       0.18063718       0.34680311      -0.19934508
Si      10.46334050       4.44682248      -0.51308706       0.23913782       0.04296214      -0.09359602
Si       5.90001023       5.40424077       3.66525984      -0.23698616      -0.14487378      -0.20814330
Si       7.14019887       7.06427191       4.82844531       0.00189197      -0.17175852       0.03860175
12
Lattice="8.38444296644414 2.085255961074718 -1.1361614803909776 4.915540042486091 7.212408301748619 0.9578693069157714 2.558233550801675 1.8350851228144585 4.697137233155633" Properties=species:S:1:pos:R:3:forces:R:3 unique_starting_index=78 config_type=initial n_minim_iter=10 energy=-1950.8898000939025 stress="-0.0023332645879891936 -0.0015972225373452173 -0.0021936914689565925 -0.0015972225373452173 0.006641388108328874 0.0028185383316157173 -0.0021936914689565925 0.0028185383316157173 0.00451149042580862" free_energy=-1950.8898000939025 pbc="T T T"
Si       3.84464341       4.49925529       2.39361634      -0.32419306       0.02811096       0.12189526
Si       9.52978557       5.02425105       1.70377267       0.06181730      -0.25504524       0.13008241
Si      13.31415487       9.96418049       2.52306176      -0.13036013      -0.01258352      -0.03436089
Si       6.19404020       3.87831569       1.78371305      -0.03198259       0.26379500       0.00851374
Si       7.64028128       6.44414722       2.07219514       0.13057112      -0.35696045       0.28057182
Si       9.47369098       9.46588721       4.78303002       0.21453664      -0.13263027      -0.18566548
Si       8.28817279       3.11250089      -0.92772754      -0.23665758       0.02844925       0.03262670
Si       9.33009184       7.02617387       4.32728904       0.05010863       0.20906280      -0.00804994
Si       6.33989152       1.52105090      -0.60499728       0.18823611       0.14704114      -0.27130702
Si      10.36396927       4.46286965      -0.51398792       0.29391203       0.20592993       0.12654200
Si       5.78306491       5.48808369       3.66768624      -0.07923264      -0.06060126      -0.34860103
Si       7.03691886       7.11840229       4.83798141      -0.13675584      -0.06456833       0.14775242
12
Lattice="8.465515500448555 2.142571796960802 -1.1018541398988284 5.021394978625903 7.1696736523979565 0.9205227437737307 2.6221389446986234 1.797862315602496 4.6662461416195455" Properties=species:S:1:pos:R:3:forces:R:3 unique_starting_index=78 config_type=initial n_minim_iter=11 energy=-1950.9698170933157 stress="-0.0024296393420245596 0.0006946768365918975 -0.002547556380470444 0.0006946768365918975 -0.0010135729730811128 0.0008428197531232895 -0.002547556380470444 0.0008428197531232895 0.0007272027347086436" free_energy=-1950.9698170933157 pbc="T T T"
Si       3.86397773       4.47684031       2.39843777      -0.23194426       0.07269061       0.03719550
Si       9.66761109       4.98525877       1.72110700       0.24777712      -0.29821919      -0.05121255
Si      13.47918072       9.95102596       2.49098602      -0.05337668      -0.09144641       0.03530266
Si       6.25546861       3.91547425       1.76319470       0.03816766      -0.01669291      -0.00552842
Si       7.82217501       6.40329995       2.05107187      -0.23001954      -0.01353802       0.12830588
Si       9.65806112       9.43283164       4.71490829       0.32152263      -0.54433649      -0.15761403
Si       8.40234258       3.19593389      -0.91462672      -0.34643824       0.00661832       0.15601507
Si       9.50831916       6.97648044       4.29998521      -0.07418541       0.42070709      -0.04326982
Si       6.43627270       1.59569122      -0.58939671       0.00554948       0.08953914      -0.25244040
Si      10.51070133       4.50010049      -0.50316892       0.35630175       0.33510084       0.26358692
Si       5.87290479       5.44375639       3.61893538      -0.00732020       0.14515098      -0.15974094
Si       7.18709838       7.00536182       4.79818274      -0.02603433      -0.10557395       0.04940015
12
Lattice="8.521821271435753 2.191924861470659 -0.9387603571838776 5.105473711355351 7.215229228842101 0.9318267237423346 2.7542173817881426 1.7498609678607089 4.669440124794582" Properties=species:S:1:pos:R:3:forces:R:3 unique_starting_index=78 config_type=initial n_minim_iter=12 energy=-1951.0167606153007 stress="0.005476952607517212 0.00019226764601160143 0.002396017830581199 0.00019226764601160143 0.0037574343663591093 -0.0024911409337408674 0.002396017830581199 -0.0024911409337408674 -0.00013609608519631403" free_energy=-1951.0167606153007 pbc="T T T"
Si       3.90035295       4.49972146       2.44067376      -0.29239999       0.19273827       0.03034863
Si       9.81376331       4.96888076       1.85529861       0.17609981      -0.22951876       0.25510180
Si      13.64958183       9.98819282       2.62842916      -0.06910931       0.07872485       0.18581393
Si       6.33401257       3.95638813       1.82958575       0.09251011      -0.12742952      -0.17108939
Si       7.98938225       6.44181640       2.10731308      -0.17433328       0.00329625       0.02513749
Si       9.88655901       9.43270099       4.78703884       0.46051734      -0.58927082      -0.14457265
Si       8.49046646       3.28116874      -0.76053850      -0.65201004       0.00098916       0.07645162
Si       9.72273511       6.99520302       4.38480630      -0.14587942       0.33059169      -0.00699072
Si       6.51587831       1.65619182      -0.47744624      -0.09653749       0.00440481      -0.18647147
Si      10.62958920       4.56410907      -0.32950887       0.49149745       0.27053277      -0.03725943
Si       5.99271470       5.45572476       3.64210680      -0.00497167       0.38164878       0.10217271
Si       7.37130882       6.95103943       4.84229680       0.21461648      -0.31670747      -0.12864251
12
Lattice="8.465098942192062 2.180069671704289 -0.8858020750591841 5.077806708816618 7.185950615670215 0.9546040160095665 2.766725058858589 1.7360135305654836 4.676635880206985" Properties=species:S:1:pos:R:3:forces:R:3 unique_starting_index=78 config_type=initial n_minim_iter=13 energy=-1951.0874042753658 stress="0.0031130917349538405 -0.0013483227418459006 0.0019330287742075657 -0.0013483227418459006 0.00032669013506793273 -0.0007691505142838959 0.0019330287742075657 -0.0007691505142838959 -0.0018401771778568006" free_energy=-1951.0874042753658 pbc="T T T"
Si       3.82200017       4.51316307       2.47389934      -0.28749618       0.12755991       0.05818529
Si       9.78399056       4.89060021       1.91541659       0.03393720      -0.06903803       0.24880969
Si      13.54156521       9.92259878       2.69613031      -0.11216947       0.26176528       0.18575566
Si       6.27388919       3.96085656       1.85406855       0.16162147      -0.30087336      -0.11713152
Si       7.99032619       6.41825949       2.13775958      -0.09148962       0.00463517       0.07123099
Si       9.87126769       9.35411000       4.83280676       0.61110479      -0.30270490      -0.06109204
Si       8.45081413       3.30247482      -0.71428256      -0.63815484      -0.06165394       0.11771106
Si       9.70490334       6.97856466       4.42913721      -0.18914061       0.11344803      -0.11143848
Si       6.50498896       1.66602098      -0.44539681      -0.29960619       0.04786054      -0.19748383
Si      10.59262721       4.54734068      -0.26456927       0.44223272       0.04329840      -0.12703133
Si       5.95571437       5.45128223       3.65982565      -0.01411894       0.31325150       0.03898131
Si       7.35414580       6.85171502       4.88596333       0.38327966      -0.17754860      -0.10649680
12
Lattice="8.423340679828627 2.210603297106171 -0.8473400153028707 5.097992037641193 7.128103954089655 0.9813374235327675 2.7855498225347475 1.7285571711658005 4.711522014781377" Properties=species:S:1:pos:R:3:forces:R:3 unique_starting_index=78 config_type=initial n_minim_iter=14 energy=-1951.1597061653022 stress="0.0009260382009860854 -0.0009500695295210672 0.00020618737940280866 -0.0009500695295210672 -0.008557229413620335 0.0017685452934202012 0.00020618737940280866 0.0017685452934202012 -0.0010967859880593464" free_energy=-1951.1597061653022 pbc="T T T"
Si       3.77223353       4.50365881       2.52895144      -0.18265618       0.08905895      -0.06884759
Si       9.78415126       4.83959998       1.98670962       0.00403346      -0.03017500       0.03312762
Si      13.50497218       9.87982424       2.77414116      -0.12900263       0.50505038       0.14237579
Si       6.25683464       3.96151212       1.88035256       0.02735955      -0.35321756       0.00643461
Si       8.01261625       6.38784515       2.18400179      -0.05952044       0.10442832       0.15819918
Si       9.93974295       9.25068059       4.89797232       0.53720024       0.45131383       0.20731751
Si       8.39583353       3.34247795      -0.66482507      -0.15506596      -0.07919314       0.03073748
Si       9.71664614       6.98076262       4.48983289      -0.25071241      -0.34540462      -0.25466554
Si       6.48859053       1.71618238      -0.43849714      -0.45601725      -0.06141468      -0.18283011
Si      10.60600520       4.58028648      -0.21237423       0.20475747      -0.32205956      -0.04472127
Si       5.95276250       5.44842490       3.69204385       0.04189566       0.15963868      -0.08934686
Si       7.39001652       6.75567123       4.94787589       0.41772850      -0.11802561       0.06221918
12
Lattice="8.336435803469922 2.2689283808640788 -0.8621954654477371 5.060592992333935 7.227489686557299 0.9421834069996885 2.756786587406764 1.7350180046095431 4.695253791677596" Properties=species:S:1:pos:R:3:forces:R:3 unique_starting_index=78 config_type=initial n_minim_iter=15 energy=-1951.2044492131704 stress="-0.0022665991480468367 -0.0012562020856197176 -0.0009356652949489382 -0.0012562020856197176 -0.0004806316852210916 0.0010323486321670485 -0.0009356652949489382 0.0010323486321670485 0.0004637502375607618" free_energy=-1951.2044492131704 pbc="T T T"
Si       3.71454315       4.57025382       2.50823205      -0.15361934       0.19923539      -0.16091745
Si       9.69529655       4.89834263       1.96311470      -0.06096147      -0.00187432      -0.08980388
Si      13.36526510      10.03999935       2.71738290       0.00163913       0.37105091       0.09222401
Si       6.19050951       4.02207852       1.85007234      -0.08248553      -0.27259671       0.06440585
Si       7.94847853       6.47869336       2.15108410      -0.03361042       0.09415352       0.10513416
Si       9.87189098       9.36613943       4.83645542       0.52940930       0.38229992       0.31894960
Si       8.30257949       3.42328953      -0.68527092      -0.02436466      -0.19159779       0.08812186
Si       9.62415394       7.07812314       4.44081281      -0.14258789      -0.20895164      -0.25348531
Si       6.42240295       1.76881395      -0.46060311      -0.43119937      -0.21699936      -0.12687999
Si      10.52137289       4.67267791      -0.24217764       0.18466506      -0.26959280      -0.11749056
Si       5.89383354       5.52772824       3.65156408      -0.08906095       0.13261969      -0.09302033
Si       7.33371222       6.81254740       4.90788455       0.30217615      -0.01774682       0.17276204
12
Lattice="8.334502648960093 2.347802543076316 -0.8519282565118276 5.105885055765707 7.287250873090194 0.9214658269081302 2.775456181994039 1.741201974414139 4.688615050196413" Properties=species:S:1:pos:R:3:forces:R:3 unique_starting_index=78 config_type=initial n_minim_iter=16 energy=-1951.2535324730577 stress="-0.0023279325155417534 0.00020274009760167926 -0.0011288357246469793 0.00020274009760167926 0.003132043093723191 0.0005886724723907727 -0.0011288357246469793 0.0005886724723907727 0.0014698186567212608" free_energy=-1951.2535324730577 pbc="T T T"
Si       3.73599133       4.60721063       2.49599367      -0.07859597       0.26303360      -0.20375901
Si       9.71999381       4.97335258       1.96875646      -0.07487766      -0.03311795      -0.21641226
Si      13.41891319      10.19136265       2.70817998       0.14918520       0.20893085       0.08934117
Si       6.21948730       4.06155632       1.84183095      -0.34296672      -0.12032436       0.07181961
Si       7.97340289       6.54877020       2.15082548      -0.00548197       0.13533071       0.06979208
Si       9.96627947       9.45332254       4.81209185       0.35918255       0.32759669       0.44239371
Si       8.27988084       3.49410548      -0.67001961       0.20994369      -0.23788095       0.03142998
Si       9.65505315       7.16018402       4.41867839      -0.02280342      -0.07557427      -0.23810002
Si       6.40211175       1.82920956      -0.46942387      -0.33403386      -0.26763611      -0.08021673
Si      10.55847050       4.77776831      -0.24040005       0.13721979      -0.24395139      -0.15832577
Si       5.93062753       5.58879377       3.63033979      -0.11335381       0.19020286      -0.00057807
Si       7.39897800       6.86661848       4.88934199       0.11658218      -0.14660968       0.19261531
12
Lattice="8.33661390315889 2.472657680939657 -0.7820265005434472 5.190948460763853 7.365681595649788 0.8806697964221425 2.8450868664799924 1.716134034505291 4.675037326046426" Properties=species:S:1:pos:R:3:forces:R:3 unique_starting_index=78 config_type=initial n_minim_iter=17 energy=-1951.3139780494564 stress="-9.184561534950354e-05 0.0029206271431732192 -0.00021557453794457862 0.0029206271431732192 0.006325558430840848 -0.0022063710415506275 -0.00021557453794457862 -0.0022063710415506275 0.002032100804222687" free_energy=-1951.3139780494564 pbc="T T T"
Si       3.74537483       4.67130775       2.47815065      -0.00755912       0.31228056      -0.28004756
Si       9.79447222       5.03520828       2.01472652      -0.24711563      -0.01272981      -0.22496894