14
Lattice="6.6558271911055 1.8663759598989547 2.2948782036107756e-15 -1.1336422997537263 6.818962527962531 2.151411810189412e-15 -2.7610924456758887 -4.342669243930746 6.8239413095663375" Properties=species:S:1:pos:R:3:forces:R:3 unique_starting_index=174 config_type=initial n_minim_iter=1 energy=-2274.7985351640077 stress="0.0021041797840991366 -7.751061329648663e-06 2.3040580472810616e-12 -7.751061329648663e-06 0.0020969170233346643 3.890221318914362e-13 2.3040580472810616e-12 3.890221318914362e-13 0.001416427908955807" free_energy=-2274.7985351640077 pbc="T T T"
Si       0.85251075       0.79750470       4.41105726       0.60956389       0.10116629       0.07185706
Si       3.12159201       5.45299730       2.41288405      -0.16699642       0.59490751      -0.07185706
Si      -0.85251075      -0.79750470       4.41105726      -0.60956389      -0.10116629       0.07185706
Si       2.40059287       3.23234119       2.41288405       0.16699642      -0.59490751      -0.07185706
Si      -1.41933190       2.61197656       5.82485471      -0.60956389      -0.10116629      -0.07185706
Si      -0.92732072       2.29915321       0.99908660       0.16699642      -0.59490751       0.07185706
Si       0.28568960       4.20698596       5.82485471       0.60956389       0.10116629      -0.07185706
Si      -0.20632158       4.51980932       0.99908660      -0.16699642       0.59490751       0.07185706
Si       1.27670536       2.00801285       6.82394131       0.12188298       0.19169856       0.00000000
Si       1.48438708       2.33465639      -0.00000000      -0.12188298      -0.19169856       0.00000000
Si      -1.84352652       1.40146841       3.41197065      -0.12188298      -0.19169856      -0.00000000
Si       0.70988421       5.41749411       3.41197065       0.12188298       0.19169856      -0.00000000
Si      -0.56682115       3.40948126       3.41197065      -0.00000000      -0.00000000      -0.00000000
Si      -0.00000000      -0.00000000       6.82394131       0.00000000       0.00000000       0.00000000
14
Lattice="6.619206851956202 1.8562666237416448 2.3421587245452907e-15 -1.1272606069470845 6.781512268766196 2.3043891934998565e-15 -2.7459731225045587 -4.318889446253921 6.798618812126818" Properties=species:S:1:pos:R:3:forces:R:3 unique_starting_index=174 config_type=initial n_minim_iter=2 energy=-2274.8163179305197 stress="-0.005792083779823273 -0.0016182061143873718 3.1211604882704954e-13 -0.0016182061143873718 -0.007308347720121813 -3.2363961741095365e-12 3.1211604882704954e-13 -3.2363961741095365e-12 -0.006536698251117334" free_energy=-2274.8163179305197 pbc="T T T"
Si       0.85274019       0.79395945       4.39526825       0.69086510       0.16494552       0.07710975
Si       3.10316497       5.42792120       2.40335056      -0.14373343       0.69558775      -0.07710975
Si      -0.85274019      -0.79395945       4.39526825      -0.69086511      -0.16494552       0.07710975
Si       2.38878127       3.20985769       2.40335056       0.14373343      -0.69558775      -0.07710975
Si      -1.41637050       2.59679668       5.80265996      -0.69086510      -0.16494552      -0.07710975
Si      -0.92082215       2.28172438       0.99595885       0.14373343      -0.69558775       0.07710975
Si       0.28910988       4.18471559       5.80265996       0.69086510       0.16494552      -0.07710975
Si      -0.20643846       4.49978788       0.99595885      -0.14373343       0.69558775       0.07710975
Si       1.27069583       1.99856102       6.79861881       0.16080109       0.25290930       0.00000000
Si       1.47527728       2.32032843      -0.00000000      -0.16080109      -0.25290930      -0.00000000
Si      -1.83432614       1.39219511       3.39930940      -0.16080109      -0.25290930       0.00000000
Si       0.70706553       5.38931715       3.39930940       0.16080109       0.25290930      -0.00000000
Si      -0.56363031       3.39075613       3.39930940      -0.00000000       0.00000000       0.00000000
Si      -0.00000000      -0.00000000       6.79861881      -0.00000000      -0.00000000      -0.00000000
14
Lattice="6.555474743081308 1.8888136989395081 2.30986025995911e-15 -1.070749445843293 6.737608026644529 2.279379174576274e-15 -2.7423626486190082 -4.31321086279202 6.816419587103536" Properties=species:S:1:pos:R:3:forces:R:3 unique_starting_index=174 config_type=initial n_minim_iter=3 energy=-2274.9760500267967 stress="-0.008206257270292564 0.004243301062185358 -5.947315546646548e-12 0.004243301062185358 -0.004230271575872074 3.4901405605214464e-12 -5.947315546646548e-12 3.4901405605214464e-12 -0.004720811270735245" free_energy=-2274.9760500267967 pbc="T T T"
Si       0.88658366       0.80243225       4.41132914       0.41383628       0.05968032       0.09584570
Si       3.09286892       5.45648399       2.40509045      -0.12152654       0.40006688      -0.09584570
Si      -0.88658367      -0.80243225       4.41132914      -0.41383628      -0.05968032       0.09584570
Si       2.39185637       3.16993773       2.40509045       0.12152654      -0.40006688      -0.09584570
Si      -1.42195839       2.56637176       5.81330024      -0.41383628      -0.05968032      -0.09584570
Si      -0.88588100       2.22553088       1.00311935       0.12152655      -0.40006688       0.09584570
Si       0.35120894       4.17123626       5.81330024       0.41383628       0.05968032      -0.09584570
Si      -0.18486845       4.51207715       1.00311935      -0.12152654       0.40006688       0.09584570
Si       1.27706553       2.00857933       6.81641959       0.07271507       0.11436688      -0.00000000
Si       1.46529711       2.30463153      -0.00000000      -0.07271507      -0.11436687      -0.00000000
Si      -1.81244026       1.36022468       3.40820979      -0.07271507      -0.11436688       0.00000000
Si       0.74169081       5.37738335       3.40820979       0.07271507       0.11436687       0.00000000
Si      -0.53537473       3.36880401       3.40820979       0.00000000       0.00000000       0.00000000
Si      -0.00000000      -0.00000000       6.81641959      -0.00000000       0.00000000      -0.00000000
14
Lattice="6.552874241578671 1.7869168349027797 2.3517547598434083e-15 -1.1619184214367713 6.692023474460477 2.3052932587023757e-15 -2.6954779100709505 -4.23947015468163 6.837246352000392" Properties=species:S:1:pos:R:3:forces:R:3 unique_starting_index=174 config_type=initial n_minim_iter=4 energy=-2275.107136615103 stress="-0.00719875613222356 0.001016152859233393 1.7567595885152671e-12 0.001016152859233393 -0.006246617918189616 -1.6153006541184696e-12 1.7567595885152671e-12 -1.6153006541184696e-12 0.0010674132242440013" free_energy=-2275.107136615103 pbc="T T T"
Si       0.91765135       0.79008581       4.42996216       0.20389106      -0.01816238       0.06746887
Si       3.02162348       5.40563852       2.40728419      -0.10294751       0.17692723      -0.06746887
Si      -0.91765136      -0.79008582       4.42996216      -0.20389106       0.01816238       0.06746887
Si       2.36933233       3.07330178       2.40728419       0.10294751      -0.17692723      -0.06746887
Si      -1.49861057       2.55592592       5.82590737      -0.20389106       0.01816238      -0.06746887
Si      -0.90710479       2.17984336       1.01133898       0.10294751      -0.17692723       0.06746887
Si       0.33669214       4.13609755       5.82590737       0.20389106      -0.01816238      -0.06746887
Si      -0.25481364       4.51218011       1.01133898      -0.10294751       0.17692723       0.06746887
Si       1.26286065       1.98623777       6.83724635       0.16041404       0.25230055       0.00000000
Si       1.43261726       2.25323238      -0.00000000      -0.16041404      -0.25230055       0.00000000
Si      -1.84381986       1.35977397       3.41862317      -0.16041404      -0.25230055      -0.00000000
Si       0.68190144       5.33224951       3.41862317       0.16041404       0.25230055      -0.00000000
Si      -0.58095921       3.34601174       3.41862317       0.00000000      -0.00000000      -0.00000000
Si      -0.00000000      -0.00000000       6.83724635       0.00000000       0.00000000       0.00000000
14
Lattice="6.622855460162064 1.7211546561795628 2.0949831946751437e-15 -1.2511585476498006 6.727495082519931 2.263239874688386e-15 -2.685848456256132 -4.224324869349751 6.705381515533857" Properties=species:S:1:pos:R:3:forces:R:3 unique_starting_index=174 config_type=initial n_minim_iter=5 energy=-2275.191387434788 stress="0.002285354521999756 -0.00014854745296579328 -7.114237219271766e-12 -0.00014854745296579328 0.002146165112253816 2.6760443511752197e-12 -7.114237219271766e-12 2.6760443511752197e-12 0.002952857629815034" free_energy=-2275.191387434788 pbc="T T T"
Si       0.96062738       0.78768169       4.34996075      -0.00851458      -0.19405218      -0.04116833
Si       2.99158443       5.42839004       2.35542077      -0.17211075      -0.09003685       0.04116833
Si      -0.96062739      -0.78768170       4.34996075       0.00851458       0.19405218      -0.04116833
Si       2.38011248       3.02025969       2.35542077       0.17211075       0.09003685       0.04116833
Si      -1.58620667       2.57606584       5.70811152       0.00851458       0.19405218       0.04116833
Si      -0.93131525       2.15968237       0.99726999       0.17211075       0.09003685      -0.04116833
Si       0.33504811       4.15142923       5.70811152      -0.00851458      -0.19405218       0.04116833
Si      -0.31984330       4.56781271       0.99726999      -0.17211075      -0.09003685      -0.04116833
Si       1.26769364       1.99383914       6.70538151       0.29729118       0.46758206      -0.00000000
Si       1.41815481       2.23048572      -0.00000000      -0.29729118      -0.46758206      -0.00000000
Si      -1.89327292       1.36990839       3.35269076      -0.29729118      -0.46758206      -0.00000000
Si       0.64211437       5.35758668       3.35269076       0.29729118       0.46758205       0.00000000
Si      -0.62557928       3.36374754       3.35269076       0.00000000       0.00000000      -0.00000000
Si      -0.00000000      -0.00000000       6.70538151      -0.00000000      -0.00000000      -0.00000000
14
Lattice="6.654215388075208 1.5846343291935285 2.2646552340289754e-15 -1.3880883315810966 6.697974258825121 1.723736871509005e-15 -2.633063528247057 -4.14130429400933 6.426660164150099" Properties=species:S:1:pos:R:3:forces:R:3 unique_starting_index=174 config_type=initial n_minim_iter=6 energy=-2275.3250860049534 stress="0.018635187876368704 -0.0013230940224201984 5.835643809718262e-13 -0.0013230940224201984 0.01739544487252773 9.855935612173267e-13 5.835643809718262e-13 9.855935612173267e-13 0.020254195492209172" free_energy=-2275.3250860049534 pbc="T T T"
Si       1.06591728       0.76527601       4.18049415      -0.48168389      -0.06577350      -0.30920288
Si       2.87384096       5.43120865       2.24616601       0.14479320      -0.46409099       0.30920288
Si      -1.06591728      -0.76527601       4.18049415       0.48168389       0.06577349      -0.30920288
Si       2.39228609       2.85139994       2.24616601      -0.14479320       0.46409099       0.30920288
Si      -1.75996145       2.58371112       5.45949609       0.48168389       0.06577350       0.30920288
Si      -0.93482161       2.05908277       0.96716407      -0.14479320       0.46409099      -0.30920288
Si       0.37187311       4.11426314       5.45949609      -0.48168389      -0.06577350       0.30920288
Si      -0.45326673       4.63889148       0.96716407       0.14479320      -0.46409099      -0.30920288
Si       1.28472988       2.02063388       6.42666016       0.51475069       0.80960418       0.00000000
Si       1.34833364       2.12067041      -0.00000000      -0.51475069      -0.80960418      -0.00000000
Si      -1.97877405       1.32835324       3.21333008      -0.51475069      -0.80960418       0.00000000
Si       0.59068571       5.36962101       3.21333008       0.51475069       0.80960418      -0.00000000
Si      -0.69404417       3.34898713       3.21333008       0.00000000      -0.00000000      -0.00000000
Si      -0.00000000      -0.00000000       6.42666016      -0.00000000       0.00000000      -0.00000000
14
Lattice="6.672229954318222 1.4539529199191765 2.0638100471566265e-15 -1.5140689491929398 6.658845761371303 2.8614296235698343e-15 -2.5790805025626424 -4.056399340645244 6.065133310202745" Properties=species:S:1:pos:R:3:forces:R:3 unique_starting_index=174 config_type=initial n_minim_iter=7 energy=-2275.483564188625 stress="0.027192548757999233 0.0012981648471469677 -1.3630480362098085e-11 0.0012981648471469677 0.028408933064615022 4.758549751185286e-12 -1.3630480362098085e-11 4.758549751185286e-12 0.022907798302605507" free_energy=-2275.483564188625 pbc="T T T"
Si       1.18089624       0.73963566       3.95542743      -0.74504837       0.29378338      -0.49388120
Si       2.74785969       5.43954447       2.10970588       0.58212049      -0.55003771       0.49388120
Si      -1.18089625      -0.73963566       3.95542743       0.74504837      -0.29378338      -0.49388120
Si       2.41030131       2.67325421       2.10970588      -0.58212049       0.55003771       0.49388120
Si      -1.93793073       2.58978722       5.14227253       0.74504837      -0.29378338       0.49388120
Si      -0.92581366       1.94627775       0.92286077      -0.58212049       0.55003771      -0.49388120
Si       0.42386177       4.06905854       5.14227253      -0.74504837       0.29378338       0.49388120
Si      -0.58825529       4.71256801       0.92286077       0.58212049      -0.55003771      -0.49388120
Si       1.30792401       2.05711380       6.06513331       0.52065407       0.81888907       0.00000000
Si       1.27115649       1.99928554      -0.00000000      -0.52065407      -0.81888907       0.00000000
Si      -2.06495849       1.27230908       3.03256665      -0.52065407      -0.81888907       0.00000000
Si       0.55088953       5.38653668       3.03256665       0.52065407       0.81888907       0.00000000
Si      -0.75703448       3.32942288       3.03256665      -0.00000000       0.00000000       0.00000000
Si      -0.00000000      -0.00000000       6.06513331       0.00000000      -0.00000000       0.00000000
14
Lattice="6.637590235986549 1.3960920921840625 1.344333282744112e-15 -1.551768677150924 6.60293050420312 2.7663712247745568e-15 -2.542910779417814 -3.9995112981935956 5.962283341770505" Properties=species:S:1:pos:R:3:forces:R:3 unique_starting_index=174 config_type=initial n_minim_iter=8 energy=-2275.6179450179657 stress="0.015874217456779235 0.002088357455714831 1.2036852441148539e-12 0.002088357455714831 0.017831014606385448 -1.9789319003694927e-12 1.2036852441148539e-12 -1.9789319003694927e-12 0.01631275826015815" free_energy=-2275.6179450179657 pbc="T T T"
Si       1.20341764       0.72708728       3.88889498      -0.77973088       0.52248842      -0.46251372
Si       2.69077214       5.39772693       2.07338836       0.80393732      -0.48441634       0.46251372
Si      -1.20341765      -0.72708728       3.88889498       0.77973088      -0.52248842      -0.46251372
Si       2.39504941       2.60129566       2.07338836      -0.80393732       0.48441633       0.46251372
Si      -1.97930199       2.57437797       5.05453004       0.77973088      -0.52248842       0.46251372
Si      -0.92374571       1.90324962       0.90775330      -0.80393732       0.48441633      -0.46251372
Si       0.42753331       4.02855253       5.05453004      -0.77973088       0.52248842       0.46251372
Si      -0.62802297       4.69968089       0.90775330       0.80393732      -0.48441633      -0.46251372
Si       1.30934703       2.05935195       5.96228334       0.41271854       0.64912716      -0.00000000
Si       1.23356374       1.94015935      -0.00000000      -0.41271854      -0.64912716      -0.00000000
Si      -2.08523138       1.24211330       2.98114167      -0.41271854      -0.64912716       0.00000000
Si       0.53346269       5.36081720       2.98114167       0.41271854       0.64912716      -0.00000000
Si      -0.77588434       3.30146525       2.98114167       0.00000000       0.00000000       0.00000000
Si      -0.00000000      -0.00000000       5.96228334      -0.00000000      -0.00000000      -0.00000000
14
Lattice="6.488227766012052 1.3785702969505167 1.4199553936734327e-15 -1.504268525009584 6.460242395758028 3.719956544802974e-15 -2.491979620501235 -3.9194063463542723 5.994463874716871" Properties=species:S:1:pos:R:3:forces:R:3 unique_starting_index=174 config_type=initial n_minim_iter=9 energy=-2276.474538444123 stress="-0.0012038967599450297 -0.0005246546455997189 -7.547240804137738e-12 -0.0005246546455997189 -0.0016954997181284801 4.697851564656964e-12 -7.547240804137738e-12 4.697851564656964e-12 0.004932798042704139" free_energy=-2276.474538444123 pbc="T T T"
Si       1.06172765       0.72840024       3.88429221      -0.32641440       0.60401191      -0.39803314
Si       2.70114182       5.18987228       2.11017167       0.68544131      -0.03933139       0.39803314
Si      -1.06172766      -0.72840024       3.88429221       0.32641440      -0.60401191      -0.39803314
Si       2.28281742       2.64894041       2.11017167      -0.68544131       0.03933139       0.39803314
Si      -1.81386192       2.50172096       5.10740360       0.32641440      -0.60401191       0.39803314
Si      -0.96129647       1.95965526       0.88706027      -0.68544131       0.03933139      -0.39803314
Si       0.30959339       3.95852143       5.10740360      -0.32641440       0.60401191       0.39803314
Si      -0.54297207       4.50058713       0.88706027       0.68544131      -0.03933139      -0.39803314
Si       1.29297078       2.03359525       5.99446387       0.34648411       0.54495310       0.00000000
Si       1.19900883       1.88581110      -0.00000000      -0.34648411      -0.54495310       0.00000000
Si      -2.04510505       1.19652595       2.99723194      -0.34648411      -0.54495310       0.00000000
Si       0.54083652       5.26371644       2.99723194       0.34648411       0.54495310       0.00000000
Si      -0.75213427       3.23012120       2.99723194      -0.00000000       0.00000000       0.00000000
Si      -0.00000000      -0.00000000       5.99446387       0.00000000       0.00000000       0.00000000
14
Lattice="6.459847046164922 1.3518274378505717 1.633486910281235e-15 -1.5164448956912644 6.423196724365771 4.820970170215826e-15 -2.47170107523683 -3.8875120811081696 5.926158554707573" Properties=species:S:1:pos:R:3:forces:R:3 unique_starting_index=174 config_type=initial n_minim_iter=10 energy=-2276.6656962583256 stress="-0.008410195222716995 -0.002473461057701975 -4.650937601225545e-16 -0.002473461057701975 -0.010727835593163872 -4.113600812115587e-12 -4.650937601225545e-16 -4.113600812115587e-12 -0.0043568963270445085" free_energy=-2276.6656962583256 pbc="T T T"
Si       1.01945118       0.73169055       3.82764033      -0.02264878       0.66030247      -0.43565158
Si       2.70177857       5.12109067       2.09851822       0.60754260       0.25962341       0.43565158
Si      -1.01945119      -0.73169056       3.82764033       0.02264878      -0.66030247      -0.43565158
Si       2.24162357       2.65393349       2.09851822      -0.60754260      -0.25962341       0.43565158
Si      -1.77767364       2.47990781       5.06159750       0.02264878      -0.66030247       0.43565158
Si      -0.98829995       1.97801977       0.86456105      -0.60754260      -0.25962340      -0.43565158
Si       0.26122873       3.94328892       5.06159750      -0.02264878       0.66030247       0.43565158
Si      -0.52814495       4.44517695       0.86456105       0.60754260       0.25962340      -0.43565158
Si       1.29580884       2.03805896       5.92615855       0.28510093       0.44840912      -0.00000000
Si       1.17589223       1.84945312      -0.00000000      -0.28510093      -0.44840912      -0.00000000
Si      -2.05403129       1.17353940       2.96307928      -0.28510093      -0.44840912       0.00000000
Si       0.53758639       5.24965732       2.96307928       0.28510093       0.44840912       0.00000000
Si      -0.75822245       3.21159836       2.96307928       0.00000000      -0.00000000      -0.00000000
Si      -0.00000000      -0.00000000       5.92615855      -0.00000000       0.00000000      -0.00000000
14
Lattice="6.463087287594934 1.2929394120272493 2.0528613118807057e-15 -1.571145347083016 6.401147702450239 6.107454973993498e-15 -2.445970970255959 -3.847043557238742 5.727636009452204" Properties=species:S:1:pos:R:3:forces:R:3 unique_starting_index=174 config_type=initial n_minim_iter=11 energy=-2276.849693769129 stress="-0.019379083842700824 -0.00024373524956733896 -1.897203517535448e-11 -0.00024373524956733896 -0.019607464499560405 1.1897083413284393e-11 -1.897203517535448e-11 1.1897083413284393e-11 -0.02711203028627252" free_energy=-2276.849693769129 pbc="T T T"
Si       0.99975430       0.74813144       3.67751838       0.19213773       0.71311518      -0.52152896
Si       2.69929282       5.06976076       2.05011763       0.56424387       0.47652810       0.52152896
Si      -0.99975431      -0.74813144       3.67751838      -0.19213773      -0.71311518      -0.52152896
Si       2.19264911       2.62432635       2.05011763      -0.56424387      -0.47652810       0.52152896
Si      -1.78532698       2.45244241       4.91393563      -0.19213773      -0.71311518       0.52152896
Si      -1.03889453       1.97785664       0.81370038      -0.56424387      -0.47652810      -0.52152896
Si       0.21418163       3.94870529       4.91393563       0.19213773       0.71311518       0.52152896
Si      -0.53225082       4.42329106       0.81370038       0.56424387       0.47652810      -0.52152896
Si       1.32034404       2.07664813       5.72763601       0.10846244       0.17059064      -0.00000000
Si       1.12562692       1.77039542      -0.00000000      -0.10846244      -0.17059064       0.00000000
Si      -2.10591672       1.12392572       2.86381800      -0.10846244      -0.17059064       0.00000000
Si       0.53477137       5.27722198       2.86381800       0.10846244       0.17059064       0.00000000
Si      -0.78557268       3.20057385       2.86381800      -0.00000000      -0.00000000       0.00000000
Si      -0.00000000      -0.00000000       5.72763601       0.00000000       0.00000000       0.00000000
14
Lattice="6.458482843421033 1.2854991450024993 3.889083177478055e-15 -1.575929414153661 6.393821640628653 7.682078342821105e-15 -2.441276714633684 -3.839660392815571 5.763256727833133" Properties=species:S:1:pos:R:3:forces:R:3 unique_starting_index=174 config_type=initial n_minim_iter=12 energy=-2276.9960895322174 stress="-0.013996416004144063 0.001451807591554747 1.127151129816045e-11 0.001451807591554747 -0.012636067976192244 -4.049021362461096e-12 1.127151129816045e-11 -4.049021362461096e-12 -0.015331034323773338" free_energy=-2276.9960895322174 pbc="T T T"
Si       0.97070255       0.76690779       3.68214343       0.39134503       0.65700626      -0.35368375
Si       2.72392660       5.04403577       2.08111329       0.42892112       0.63311518       0.35368375
Si      -0.97070256      -0.76690780       3.68214343      -0.39134503      -0.65700626      -0.35368375
Si       2.15862683       2.63528501       2.08111329      -0.42892112      -0.63311518       0.35368375
Si      -1.75866727       2.43000302       4.96274166      -0.39134503      -0.65700626       0.35368375
Si      -1.07061459       1.99253544       0.80051507      -0.42892112      -0.63311518      -0.35368375
Si       0.18273785       3.96381861       4.96274166       0.39134503       0.65700626       0.35368375
Si      -0.50531483       4.40128620       0.80051507       0.42892112       0.63311518      -0.35368375
Si       1.33106589       2.09351155       5.76325673      -0.00475231      -0.00747447       0.00000000
Si       1.11021082       1.74614884      -0.00000000       0.00475231       0.00747447      -0.00000000
Si      -2.11903061       1.10339927       2.88162836       0.00475231       0.00747447      -0.00000000
Si       0.54310118       5.29042237       2.88162836      -0.00475231      -0.00747447      -0.00000000
Si      -0.78796471       3.19691082       2.88162836      -0.00000000       0.00000000      -0.00000000
Si      -0.00000000      -0.00000000       5.76325673       0.00000000      -0.00000000       0.00000000
14
Lattice="6.522572296405546 1.1229518999251353 2.7548238349582063e-15 -1.7503132343651977 6.382896984362873 6.64953547436846e-15 -2.3861295310201744 -3.752924442144002 5.682842698939731" Properties=species:S:1:pos:R:3:forces:R:3 unique_starting_index=174 config_type=initial n_minim_iter=13 energy=-2277.3403177854125 stress="-0.006878813281184037 9.761660416196272e-05 2.3821878239509806e-12 9.761660416196272e-05 -0.006787346237590929 7.620992092279591e-13 2.3821878239509806e-12 7.620992092279591e-13 -0.008391094092221411" free_energy=-2277.3403177854125 pbc="T T T"
Si       0.98288342       0.79919345       3.59060920       0.24003069       0.31471687      -0.09903557
Si       2.69284781       4.98202732       2.09223349       0.18315754       0.35087712       0.09903557
Si      -0.98288343      -0.79919345       3.59060920      -0.24003069      -0.31471686      -0.09903557
Si       2.07941124       2.52382156       2.09223349      -0.18315754      -0.35087712       0.09903557
Si      -1.85804004       2.39225504       4.93365484      -0.24003069      -0.31471687       0.09903557
Si      -1.18187490       1.96234561       0.74918785      -0.18315754      -0.35087712      -0.09903557
Si       0.10772680       3.99064194       4.93365484       0.24003069       0.31471687       0.09903557
Si      -0.56843834       4.42055137       0.74918785       0.18315754       0.35087712      -0.09903557
Si       1.35663900       2.13373315       5.68284270      -0.05853631      -0.09206640      -0.00000000
Si       1.02949052       1.61919129      -0.00000000       0.05853631       0.09206640       0.00000000
Si      -2.23179563       1.05771534       2.84142135       0.05853631       0.09206640       0.00000000
Si       0.48148239       5.32518164       2.84142135      -0.05853631      -0.09206640       0.00000000
Si      -0.87515662       3.19144849       2.84142135      -0.00000000      -0.00000000       0.00000000
Si      -0.00000000      -0.00000000       5.68284270      -0.00000000      -0.00000000       0.00000000
14
Lattice="6.56076150714394 1.0642143806590774 3.7580425312556206e-15 -1.819704473321349 6.392559693221298 7.469578510739687e-15 -2.3705285169112957 -3.728387036940184 5.680574377822929" Properties=species:S:1:pos:R:3:forces:R:3 unique_starting_index=174 config_type=initial n_minim_iter=14 energy=-2277.381762323468 stress="0.0010710901054773246 -0.003222404402697263 6.76450106764009e-12 -0.003222404402697263 -0.0019483123914577406 1.3112723093752879e-11 6.76450106764009e-12 1.3112723093752879e-11 -0.0017461862217464032" free_energy=-2277.381762323468 pbc="T T T"
Si       1.00462061       0.81332007       3.57649101       0.02884734       0.07802028       0.09618800
Si       2.68081710       4.98316713       2.10408337       0.05841244       0.05922264      -0.09618800
Si      -1.00462061      -0.81332007       3.57649101      -0.02884734      -0.07802028       0.09618800
Si       2.06023992       2.47360694       2.10408337      -0.05841244      -0.05922264      -0.09618800
Si      -1.91447285       2.38295978       4.94437056      -0.02884734      -0.07802029      -0.09618800
Si      -1.22014083       1.94149975       0.73620382      -0.05841244      -0.05922264       0.09618800
Si       0.09476837       4.00959991       4.94437056       0.02884734       0.07802029      -0.09618800
Si      -0.59956365       4.45105994       0.73620382       0.05841244       0.05922264       0.09618800
Si       1.36598920       2.14843922       5.68057438      -0.08350528      -0.13133780      -0.00000000
Si       1.00453931       1.57994782      -0.00000000       0.08350528       0.13133780       0.00000000
Si      -2.27584144       1.04784063       2.84028719       0.08350528       0.13133780       0.00000000
Si       0.45613696       5.34471907       2.84028719      -0.08350528      -0.13133780      -0.00000000
Si      -0.90985224       3.19627985       2.84028719       0.00000000      -0.00000000       0.00000000
Si      -0.00000000      -0.00000000       5.68057438       0.00000000      -0.00000000      -0.00000000
14
Lattice="6.546920095865794 1.1216720333052321 3.821642840534798e-15 -1.7618017501922139 6.404402039610743 7.629597545159754e-15 -2.3925591728367914 -3.7630370364579857 5.729518894541613" Properties=species:S:1:pos:R:3:forces:R:3 unique_starting_index=174 config_type=initial n_minim_iter=15 energy=-2277.4002493386038 stress="0.0027625339667118193 0.0004940571016550404 -1.1492467533499269e-11 0.0004940571016550404 0.003225466948847442 -3.210670457486833e-12 -1.1492467533499269e-11 -3.210670457486833e-12 0.004407430178861669" free_energy=-2277.4002493386038 pbc="T T T"
Si       1.01204302       0.81627771       3.61582004       0.02898061       0.18152409       0.06315488
Si       2.70237708       5.02579324       2.11369886       0.15208330       0.10325474      -0.06315488
Si      -1.01204303      -0.81627771       3.61582004      -0.02898061      -0.18152409       0.06315488
Si       2.08274125       2.50028083       2.11369886      -0.15208330      -0.10325474      -0.06315488
Si      -1.89294390       2.38592331       4.97845830      -0.02898061      -0.18152409      -0.06315488
Si      -1.19071879       1.93944481       0.75106059      -0.15208330      -0.10325474       0.06315488
Si       0.13114214       4.01847873       4.97845830       0.02898061       0.18152409      -0.06315488