22
Lattice="4.767000329670416 -0.3171352400589757 1.2727423307599937 -1.7490226669871807 9.615294592678314 -0.8160209675994317 0.41549079414733736 -2.6022889559527904 8.77762674921661" Properties=species:S:1:pos:R:3:forces:R:3 unique_starting_index=18 config_type=initial n_minim_iter=1 energy=-3578.3175902528947 stress="-0.011698342755553651 0.0007690210295574338 0.00017331827381049709 0.0007690210295574338 -0.003914082245421364 0.00037548218088520087 0.00017331827381049709 0.00037548218088520087 0.0007043354164743986" free_energy=-3578.3175902528947 pbc="T T T"
Si       1.59397558       8.54503363       2.15797136       0.27340644       0.58604255       0.30308155
Si       2.31708590       0.44834419       6.10545749       0.08374590       0.28816181      -0.15225034
Si       0.01193373      -2.42966081       7.95483264      -0.39098445      -0.38850279      -0.06990974
Si       4.78777834      -0.21980249       9.57585670      -0.03542826      -0.14200974       0.11094747
Si      -0.38208742       2.45735830       7.82942507       0.11279476      -0.03007273      -0.15532231
Si       4.14258498       2.63884775       3.17401159      -0.21022128       0.01960888       0.08538603
Si       2.45918914       0.88032604       1.76059811       0.13221074       0.17512350      -0.14977203
Si       2.23312641       2.35304011       7.78451087       0.08392376       0.33739861       0.19715812
Si       2.43346507      -2.54597179       8.16984595      -0.20662225      -0.50995674       0.29716432
Si       0.08829694       2.23713056       5.45135355       0.11133068       0.02310385      -0.06106106
Si       4.09271748       0.73676596       4.60572074      -0.13623657       0.03396244      -0.23642870
Si       0.59049908       6.12610818       4.94500375       0.22010823      -0.01267677       0.07312883
Si       0.38059681      -0.42633249       5.18381976      -0.37548064      -0.19406405      -0.15347989
Si      -0.66883409       7.30935614       0.16091518       0.12498156      -0.45348164      -0.32105365
Si       3.45726937       3.81590004       5.88504198       0.24380298       0.39952686       0.45554720
Si       1.53574485       6.36241175       1.35358460      -0.10946490      -0.46557658      -0.59047022
Si       0.91404003      -0.68096069       2.82201364      -0.03458810       0.05677419       0.07508518
Si       4.81150558      -3.11893797       6.72870379      -0.27766078       0.18525221       0.18369527
Si       1.96733590       3.05385764       4.21480417       0.27719103       0.25589238      -0.66778774
Si       1.22199149       4.53434554       6.68611950      -0.37958640       0.08483047       0.41492296
Si       0.73376058       4.69819078       2.94836387       0.32428993      -0.00901437       0.01126926
Si       2.46853963      -0.10129578       8.41437597       0.16848762      -0.24032235       0.35014949
22
Lattice="4.832279032858248 -0.323436292833448 1.270874394548967 -1.7814688849279008 9.661068770540824 -0.8192018145788471 0.421747157842789 -2.6183650706979593 8.771499368444681" Properties=species:S:1:pos:R:3:forces:R:3 unique_starting_index=18 config_type=initial n_minim_iter=2 energy=-3578.358896058414 stress="0.0010958895207565749 0.0006926065559214728 -0.0001874642456987995 0.0006926065559214728 0.004500680877565398 0.0003800445043020121 -0.0001874642456987995 0.0003800445043020121 0.006608270247876754" free_energy=-3578.358896058414 pbc="T T T"
Si       1.60847903       8.58337493       2.15305412       0.19015033       0.55482110       0.23453215
Si       2.34741480       0.44649697       6.09934178       0.01923336       0.25105620      -0.24941433
Si       0.01149168      -2.44539359       7.94917624      -0.32260704      -0.27860756      -0.04666494
Si       4.85146500      -0.22973473       9.56748166       0.04337664      -0.15532665       0.08234613
Si      -0.39077647       2.46539443       7.82155878       0.10215411      -0.08983703      -0.16947112
Si       4.19562792       2.64581582       3.16967830      -0.27529483       0.07584843       0.17220356
Si       2.49210085       0.88187919       1.75782671       0.14606382       0.09748097      -0.14666386
Si       2.26024862       2.35936668       7.77725128       0.05463006       0.33729926       0.21620511
Si       2.46678978      -2.56487882       8.16467224      -0.26581527      -0.47612159       0.31236109
Si       0.08672203       2.24493760       5.44571558       0.16099901       0.10059054      -0.11180973
Si       4.14672787       0.73452422       4.60009492      -0.17185977      -0.05930450      -0.17427201
Si       0.59272394       6.15130709       4.93837994       0.07815325       0.00273788       0.07067498
Si       0.38400216      -0.43146770       5.17922969      -0.21703745      -0.13041812      -0.12497000
Si      -0.68423240       7.34185166       0.15676436       0.10684996      -0.47135921      -0.31235960
Si       3.50069795       3.82880880       5.87922177       0.16024959       0.35418495       0.41953177
Si       1.55042380       6.38804502       1.34761974      -0.09931095      -0.37678164      -0.57744643
Si       0.92648879      -0.68595244       2.82004215       0.03710028       0.13212236       0.01199034
Si       4.87797193      -3.13988078       6.72413757      -0.21103336       0.14588012       0.20696641
Si       1.99149818       3.06493493       4.20762487       0.28319753       0.26602642      -0.57357273
Si       1.23212255       4.55125089       6.67966188      -0.29308418       0.03125646       0.38312947
Si       0.73995462       4.71763351       2.94378340       0.36584030      -0.08127957       0.02107670
Si       2.50122800      -0.10838513       8.40808454       0.10804458      -0.23026882       0.35562705
22
Lattice="4.877480827143997 -0.3332077202905909 1.2553444569595928 -1.8179342852763227 9.618936082386126 -0.8191016736313261 0.4327500508952531 -2.616035033327981 8.658500183291682" Properties=species:S:1:pos:R:3:forces:R:3 unique_starting_index=18 config_type=initial n_minim_iter=3 energy=-3578.3948840973003 stress="0.0028637196678609326 0.00047167331075349925 -9.949824113451464e-08 0.00047167331075349925 -0.0005891017403107631 0.00023324092125317193 -9.949824113451464e-08 0.00023324092125317193 -0.0036770548126471305" free_energy=-3578.3948840973003 pbc="T T T"
Si       1.60752143       8.54038989       2.11753105       0.15753537       0.54090764       0.20223737
Si       2.36950298       0.43485766       6.01715482      -0.07169818       0.22526185      -0.39715607
Si       0.01561771      -2.44447023       7.84639027      -0.24284165      -0.26966465       0.02413659
Si       4.89841079      -0.25004781       9.44289976       0.14472076      -0.20877682      -0.07555589
Si      -0.39711983       2.44534415       7.71430641       0.05424412      -0.12419607      -0.12133779
Si       4.22731412       2.62138288       3.12677577      -0.30435876       0.17113602       0.25593703
Si       2.51452401       0.87148784       1.73305905       0.12268842       0.15067402      -0.12932265
Si       2.27808738       2.33738848       7.67389076       0.06348999       0.41421319       0.24713469
Si       2.49446067      -2.56994007       8.06223903      -0.38510796      -0.49070983       0.30307399
Si       0.08503109       2.22858327       5.37068379       0.22215076       0.15253619      -0.21569597
Si       4.18290814       0.71726787       4.53790468      -0.18842042      -0.10803184      -0.14864087
Si       0.58735316       6.11501255       4.86714490      -0.02261601       0.11346592       0.05581294
Si       0.38739756      -0.43686078       5.11036813      -0.14561898      -0.06366257       0.01737311
Si      -0.70479040       7.30420406       0.14440593       0.09799254      -0.46455746      -0.30615723
Si       3.52742537       3.79944633       5.80119161       0.13669826       0.38795534       0.47485287
Si       1.55092273       6.34955403       1.31905501      -0.09271573      -0.38774872      -0.60531283
Si       0.93704754      -0.68680621       2.78393334       0.12322271       0.16614586      -0.04573193
Si       4.92872364      -3.14084343       6.64102455      -0.14397216       0.00160068       0.18211125
Si       2.00635142       3.04340591       4.14474932       0.23914125       0.20487013      -0.55848638
Si       1.23288319       4.51988022       6.58958240      -0.21940097      -0.00969376       0.35668829
Si       0.74021411       4.68970903       2.90008476       0.37999999      -0.16353427      -0.00167051
Si       2.52699882      -0.12380160       8.30013227       0.07486665      -0.23819085       0.48571000
22
Lattice="4.889521285782207 -0.43165580602793824 1.2659332495983842 -2.0005348995836805 9.57456443414587 -0.9133247383954546 0.48969189014400183 -2.683485662741143 8.70666766855178" Properties=species:S:1:pos:R:3:forces:R:3 unique_starting_index=18 config_type=initial n_minim_iter=4 energy=-3578.622351435492 stress="0.0005680150836382597 -0.0025781209761783536 0.0008420296562854093 -0.0025781209761783536 -0.0037830858377169586 -0.003321235082050039 0.0008420296562854093 -0.003321235082050039 -0.0015709484655516775" free_energy=-3578.622351435492 pbc="T T T"
Si       1.46567022       8.45882422       2.06191073      -0.06968157      -0.06723915      -0.28896170
Si       2.36659645       0.35002431       6.00575545      -0.12236574       0.15775743       0.29717423
Si       0.04426483      -2.52106920       7.88977050      -0.21930062      -0.25070361       0.03279166
Si       4.92380143      -0.44285325       9.47481776       0.30661977      -0.05493410      -0.01526266
Si      -0.42986076       2.34910693       7.70049991       0.00546979      -0.48887919      -0.24475882
Si       4.16095938       2.50070703       3.13020282      -0.22867659      -0.05671989      -0.05113604
Si       2.51295082       0.81226924       1.72048406       0.02232107       0.12250740       0.01213864
Si       2.24793228       2.23186872       7.69239449       0.08657386       0.34581420       0.07797698
Si       2.52556790      -2.70915993       8.13491429      -0.48382485      -0.40500831       0.23867940
Si       0.06369270       2.16508227       5.35121327       0.26321333       0.14424636      -0.21526105
Si       4.16271426       0.58559976       4.53324806       0.03356185       0.15298882      -0.07195695
Si       0.48132695       6.00819602       4.82810290      -0.13524275       0.07606563       0.10369601
Si       0.38337337      -0.49689925       5.12450018      -0.15525861       0.13609604      -0.08114221
Si      -0.83235601       7.21331956       0.05112099       0.03397367      -0.19986107      -0.05454320
Si       3.47765900       3.67555861       5.82004946       0.01223564       0.22808521       0.49536785
Si       1.42713084       6.22066506       1.21695354      -0.05131462       0.06529548      -0.26264504
Si       0.95921383      -0.71342667       2.79775604       0.17418496       0.09489876       0.03524603
Si       4.98231589      -3.26074420       6.70755408      -0.01409372      -0.19761638       0.17776028
Si       1.97627445       2.95862424       4.08224743       0.17424409       0.18376188      -0.33267578
Si       1.13259133       4.39565315       6.59558910      -0.15934350       0.02983790       0.16721073
Si       0.68700060       4.59668848       2.86503519       0.50553022      -0.00373543      -0.01952565
Si       2.54789360      -0.26809210       8.35999504       0.02117432      -0.01265800      -0.00017269
22
Lattice="4.869666637980141 -0.41452954811578885 1.2414399237489266 -1.9805552286625268 9.6143942980263 -0.8058594142088976 0.45479749546426873 -2.6067901600764736 8.646053883732643" Properties=species:S:1:pos:R:3:forces:R:3 unique_starting_index=18 config_type=initial n_minim_iter=5 energy=-3578.7224185737796 stress="-0.0014191020468189122 3.3000892113691475e-05 0.0007574932395650167 3.3000892113691475e-05 -0.0014176807119805797 0.0014073571323811808 0.0007574932395650167 0.0014073571323811808 -0.0024379088042770962" free_energy=-3578.7224185737796 pbc="T T T"
Si       1.47129804       8.55379114       2.14348738      -0.03244625      -0.51119541      -0.41502841
Si       2.33603531       0.43128443       5.96901493      -0.22332821       0.19007678       0.46496157
Si      -0.00338548      -2.46930645       7.83496989      -0.18678983      -0.16255929       0.12297751
Si       4.88352055      -0.34993663       9.42049598       0.29296278      -0.07029334       0.05374924
Si      -0.44834694       2.43064082       7.68815896       0.04396764      -0.44720501      -0.22762675
Si       4.12290455       2.55745553       3.14009712       0.02852710       0.08219524      -0.23001369
Si       2.50691008       0.84574595       1.70810394      -0.02297125       0.17803337       0.01564806
Si       2.22038358       2.34919673       7.69180488       0.08585326       0.13705228       0.01458531
Si       2.46488123      -2.66400331       8.08719386      -0.53546610      -0.33530159       0.19605884
Si       0.05973689       2.23960728       5.34364208       0.34281418       0.08404000      -0.29701403
Si       4.12647562       0.64005062       4.50058482       0.09849705       0.15682145       0.08479878
Si       0.47028994       6.09525549       4.87466588      -0.15354851       0.04893557      -0.02350653
Si       0.35144730      -0.44895057       5.09581472      -0.07494926       0.12803285      -0.03942276
Si      -0.81556511       7.22682554       0.11192173       0.05798423      -0.08947637       0.10054904
Si       3.45846345       3.78133322       5.85281429      -0.13225351       0.15719779       0.29919422
Si       1.42034881       6.25076729       1.24028234       0.02568154       0.39976556      -0.07109899
Si       0.95127427      -0.67930427       2.77733274       0.10797212      -0.06220926      -0.09328417
Si       4.93039802      -3.20058580       6.64535046       0.03389676      -0.18286192       0.05685031
Si       1.97436366       3.03299307       4.05972175       0.25124800       0.11080215       0.08760681
Si       1.09528383       4.49120502       6.63277368      -0.12348801       0.01171342       0.15051858
Si       0.70517852       4.64622831       2.89951165       0.13356634       0.18073167      -0.05810713
Si       2.51615403      -0.19097249       8.33866769      -0.01773008      -0.00429594      -0.19239583
22
Lattice="4.866453890345703 -0.4326197417781957 1.2142084196365257 -1.9996774756176017 9.628444647893215 -0.8455298759313219 0.40576589754170445 -2.654872117337222 8.665852255318182" Properties=species:S:1:pos:R:3:forces:R:3 unique_starting_index=18 config_type=initial n_minim_iter=6 energy=-3578.7802696416047 stress="-0.0011081439797260009 0.000425374177350137 -0.0013489204960781985 0.000425374177350137 0.0005418371457321118 -0.001112988915226088 -0.0013489204960781985 -0.001112988915226088 -0.00042952799964019616" free_energy=-3578.7802696416047 pbc="T T T"
Si       1.44451693       8.55530341       2.09017165      -0.10270458      -0.66825990      -0.56611131
Si       2.29256214       0.40836456       5.95639111      -0.09737575       0.17571577       0.52697875
Si      -0.06394500      -2.52684356       7.85800205      -0.18560608      -0.10570626       0.14548705
Si       4.83848192      -0.41990174       9.40239967       0.27438861      -0.04138777       0.10060979
Si      -0.49912136       2.37772227       7.67500130       0.04686973      -0.54848496      -0.25796027
Si       4.08748971       2.53828647       3.10694789       0.14594715      -0.04017092      -0.29393692
Si       2.50065419       0.84009101       1.68456579      -0.07674843       0.10755209       0.15219368
Si       2.17108034       2.32328841       7.68208861       0.11082808       0.07048365      -0.13632939
Si       2.39636037      -2.74002636       8.11077224      -0.55432152      -0.25528494       0.16127166
Si       0.03532722       2.21885676       5.32442187       0.40019797       0.11706394      -0.26380783
Si       4.09428465       0.60820900       4.47035982       0.03637352       0.33444792       0.21578230
Si       0.42292477       6.07511615       4.84675898      -0.16515570      -0.00203656      -0.04723916
Si       0.30962157      -0.47753474       5.09765941      -0.03623166       0.07842211      -0.11887240
Si      -0.82795512       7.21139831       0.06845969       0.00950436      -0.01862854       0.16011746
Si       3.41777736       3.76263040       5.84154239      -0.16215620       0.06543720       0.30885924
Si       1.39521294       6.23701502       1.17435525       0.02078059       0.40599490       0.17238839
Si       0.94156673      -0.69187989       2.77609147       0.13402824      -0.03621019      -0.08783838
Si       4.89224681      -3.24999213       6.64747559       0.06837514      -0.10378656       0.01635548
Si       1.95857737       3.02043805       4.01273104       0.18153413       0.02992897       0.26759922
Si       1.02871984       4.45746669       6.62627978      -0.09926129       0.02945630       0.07732452
Si       0.69658023       4.63008601       2.87227472       0.07375417       0.39130089      -0.19575486
Si       2.46886149      -0.25015848       8.34444540      -0.02302049       0.01415285      -0.33711703
22
Lattice="4.899309852489708 -0.46700430378422986 1.2304759322653107 -2.088635705630344 9.586326238120197 -0.838184687107292 0.4460493757185015 -2.629147001405122 8.714602937470364" Properties=species:S:1:pos:R:3:forces:R:3 unique_starting_index=18 config_type=initial n_minim_iter=7 energy=-3578.8843722613815 stress="0.0028534782867456606 0.001003974684673663 0.0007942939848716798 0.001003974684673663 0.0008905358634299632 0.00013052211095442926 0.0007942939848716798 0.00013052211095442926 0.00643512481386571" free_energy=-3578.8843722613815 pbc="T T T"
Si       1.39764845       8.50185018       2.10754002      -0.07226133      -0.69351541      -0.62313065
Si       2.30106846       0.42361645       6.00575431      -0.12906072       0.06957628       0.46539783
Si      -0.05986219      -2.52593326       7.90752695      -0.16949505       0.01661887       0.11104792
Si       4.91199596      -0.45758431       9.47234070       0.28017745      -0.06279067       0.16420948
Si      -0.49570421       2.34295731       7.70095620      -0.00379348      -0.51090654      -0.38978490
Si       4.07872157       2.50407703       3.13770685       0.41737165      -0.02351542      -0.42922811
Si       2.51718928       0.83454526       1.69622164      -0.13282168       0.08557298       0.16996046
Si       2.18883170       2.33650749       7.74920450       0.15874568       0.02556032      -0.24508301
Si       2.39328963      -2.77867316       8.19172217      -0.59599400      -0.18198292       0.16906438
Si       0.06317775       2.22633166       5.33397910       0.36041804       0.05462676      -0.23044491
Si       4.11271210       0.58793195       4.50222677       0.01843827       0.17623204       0.37847297
Si       0.37943243       6.04927024       4.89085820      -0.16345038      -0.07006573      -0.04347074
Si       0.30688572      -0.46858719       5.11992592       0.16407482       0.23982446      -0.16415499
Si      -0.87886599       7.14053528       0.06575973      -0.06912717       0.05958767       0.33033994
Si       3.41977040       3.75401536       5.93876251      -0.31030323      -0.09338563       0.12814730
Si       1.34998981       6.18723051       1.15655894       0.10812647       0.53373873       0.38141174
Si       0.97073270      -0.68409610       2.78877645       0.01969743      -0.08080604      -0.01536344
Si       4.94843854      -3.26373701       6.70805434       0.09179218      -0.17765101       0.05407212
Si       1.98406159       3.01288564       4.01398675       0.11958806       0.11488568       0.55484745
Si       0.98610495       4.43635656       6.70750375      -0.00731990       0.04682342      -0.11987305
Si       0.70536216       4.60692067       2.89302571      -0.07374869       0.43204174      -0.22054961
Si       2.50719945      -0.27066460       8.41301162      -0.01105443       0.03953040      -0.42588818
22
Lattice="4.896099111499664 -0.543780906405096 1.1923631363681024 -2.2296336990358836 9.708342430622737 -0.8308619457692007 0.42770270212508477 -2.6689995057060605 8.666471388788088" Properties=species:S:1:pos:R:3:forces:R:3 unique_starting_index=18 config_type=initial n_minim_iter=8 energy=-3579.0538021371017 stress="0.0020794253820202915 1.4314615112060832e-05 0.00032422292176278853 1.4314615112060832e-05 0.008065300269858248 -0.0007432995106306221 0.00032422292176278853 -0.0007432995106306221 0.006209694621026417" free_energy=-3579.0538021371017 pbc="T T T"
Si       1.26220939       8.54561593       2.04327756       0.09787235      -0.53989963      -0.54289591
Si       2.23020868       0.42631332       5.98279052       0.02459266       0.05657841       0.32363694
Si      -0.11799024      -2.59112567       7.87939604      -0.23656460       0.22843247       0.23693484
Si       4.89496979      -0.56584528       9.39647970       0.16925817      -0.08468382       0.09410734
Si      -0.56838958       2.30222158       7.61959027      -0.06814720      -0.47700437      -0.34627707
Si       4.00439341       2.47647044       3.07905723       0.61727758      -0.15678158      -0.34494952
Si       2.49525452       0.82965857       1.66729294      -0.17399302       0.01497643       0.16019087
Si       2.11473485       2.36222380       7.69976760       0.19620750       0.03503146      -0.42279940
Si       2.29345241      -2.91383210       8.17978346      -0.53861741      -0.04737892       0.14901067
Si       0.04883352       2.25826473       5.25951835       0.30910566       0.01931521      -0.11173007
Si       4.06254421       0.54703640       4.45290246      -0.13472339       0.09590935       0.36228466
Si       0.23809220       6.10407296       4.85789488      -0.14478108      -0.17216081      -0.12695543
Si       0.25866658      -0.47460852       5.07653855       0.16087862       0.02831483      -0.22224851
Si      -0.97573572       7.17714493       0.05380503      -0.24699226       0.00562256       0.40048401
Si       3.31275786       3.77493388       5.94664638      -0.31307496      -0.29323406       0.01866405
Si       1.24062746       6.23641084       1.09362400       0.23192383       0.49555346       0.59407126
Si       0.98089515      -0.70136584       2.76014681      -0.10535344      -0.06316537       0.00531430
Si       4.94246164      -3.38492321       6.66413417       0.13816462       0.06229824      -0.04976302
Si       1.95290464       3.03565274       3.94716194      -0.03779434       0.35866178       0.65537074
Si       0.83781905       4.46317456       6.69747859       0.13247414       0.12299359      -0.28317290
Si       0.65942333       4.65443536       2.85422951      -0.12141869       0.37982441      -0.15096896
Si       2.46113556      -0.33575066       8.35638683       0.04370525      -0.06920363      -0.39830891
22
Lattice="4.920134477846785 -0.5767456048324704 1.1358786162817436 -2.312031293597918 9.608495100354235 -0.7929806575705345 0.34530209360139796 -2.6255069439173004 8.67163100479262" Properties=species:S:1:pos:R:3:forces:R:3 unique_starting_index=18 config_type=initial n_minim_iter=9 energy=-3579.211765431633 stress="0.00135774912791082 -0.0008045957250225234 -0.0030480203392558966 -0.0008045957250225234 0.0016585986719964 0.0015729896107703869 -0.0030480203392558966 0.0015729896107703869 0.007960479147602527" free_energy=-3579.211765431633 pbc="T T T"
Si       1.18921586       8.40005676       1.99515047       0.25713997      -0.10805911      -0.28336595
Si       2.14375889       0.44793581       6.00542473       0.22147544       0.01018990      -0.11973961
Si      -0.23917823      -2.57148442       7.90758199      -0.27979039       0.31394047       0.11863460
Si       4.86359746      -0.60682642       9.36086755       0.08843936      -0.22901344       0.21229832
Si      -0.66986103       2.22252882       7.59881085      -0.20581602      -0.17149225      -0.46060189
Si       3.97749035       2.42394223       3.01843095       0.51118216      -0.01847499      -0.25926922
Si       2.48337971       0.82616803       1.64416574      -0.27549646      -0.03124332       0.18216218
Si       2.03377178       2.36605803       7.69062184       0.21886598       0.07011456      -0.30763134
Si       2.13867329      -2.94194682       8.20663100      -0.33159843       0.07652125       0.13203889
Si       0.02684728       2.25400458       5.22656170       0.25087208       0.06551017       0.15872146
Si       4.02417538       0.53445749       4.42397421      -0.44087376      -0.25298725       0.45607205
Si       0.11233928       6.04203515       4.87148533      -0.05835735      -0.21169240      -0.21991162
Si       0.18612353      -0.45197733       5.06575727       0.28832032       0.04074512      -0.38740786
Si      -1.03285499       7.06356455       0.07740092      -0.37460547      -0.10942965       0.38834967
Si       3.21641525       3.74273984       5.98431939      -0.26817438      -0.38957577      -0.21663207
Si       1.18493217       6.17946023       1.06612873       0.28985628       0.06406003       0.60788630
Si       0.97655930      -0.69442143       2.74369566      -0.18553325      -0.04414209       0.08781782
Si       4.91922751      -3.38857060       6.62943914       0.06127450       0.08419520      -0.00295800
Si       1.93235882       3.01725672       3.92517167       0.18219937       0.35335148       0.62042731
Si       0.69746702       4.42065267       6.73329015       0.18706834       0.19095783      -0.34795448
Si       0.62882995       4.62205971       2.84165064      -0.19878048       0.38661113      -0.13402188
Si       2.38492397      -0.35290919       8.33252989       0.06233221      -0.09008689      -0.22491469
22
Lattice="4.936396780389868 -0.5661206869443058 1.159654899117206 -2.283737905812383 9.618781528182115 -0.8537123263830589 0.3907191910654769 -2.677255518205801 8.636189778952968" Properties=species:S:1:pos:R:3:forces:R:3 unique_starting_index=18 config_type=initial n_minim_iter=10 energy=-3579.309428729794 stress="0.0009417665185962122 0.00037907867089001886 0.00017588884995667787 0.00037907867089001886 0.0016438612835466633 -0.000642162370148662 0.00017588884995667787 -0.000642162370148662 0.0032143035480510685" free_energy=-3579.309428729794 pbc="T T T"
Si       1.24262447       8.37976701       1.91812949       0.26801327       0.28583843      -0.05118772
Si       2.18106825       0.43188237       5.99880083       0.14115919      -0.09279243      -0.33502772
Si      -0.21494127      -2.62327737       7.88185140      -0.26372617       0.36732023       0.10797282
Si       4.94965826      -0.65095546       9.33997289       0.02913743      -0.25839553       0.08508620
Si      -0.61207418       2.15299183       7.51963819      -0.23160867      -0.13196085      -0.39587777
Si       4.02757943       2.42486633       2.99446374       0.51004784      -0.04192534       0.01372738
Si       2.49653199       0.83499596       1.64891831      -0.26167131      -0.01481150       0.08705186
Si       2.10552834       2.34197368       7.63638237       0.19204837       0.11462816      -0.22947374
Si       2.14853986      -2.99863379       8.19887652      -0.23427012       0.16251885       0.11692943
Si       0.09244181       2.23220602       5.16975593       0.17086890       0.06590348       0.22677790
Si       4.05971122       0.53219117       4.42883706      -0.46817544      -0.24721876       0.23342380
Si       0.15871268       6.02347106       4.80680296      -0.04114651      -0.22014100      -0.16010502
Si       0.21761367      -0.47457974       5.03080910       0.33347433      -0.05049933      -0.21232107
Si      -1.00990799       7.06377062       0.04304778      -0.37286784      -0.16916663       0.39945261
Si       3.26558045       3.72856924       5.96075947      -0.17872747      -0.31445633      -0.24841038
Si       1.22274521       6.20550085       1.03940488       0.24970968      -0.27388469       0.50628398
Si       0.99743199      -0.70944296       2.73397759      -0.14392390      -0.05583644       0.00153849
Si       4.96265951      -3.42018549       6.63887576       0.01362859       0.20369285      -0.02409843
Si       1.98552180       3.01651541       3.90882930       0.15390663       0.51590887       0.42104112
Si       0.75589920       4.39526608       6.67413512       0.13560585       0.20708066      -0.38771324
Si       0.67175815       4.63107523       2.79560966      -0.13024718       0.14120561      -0.05846599
Si       2.44327809      -0.39417235       8.28555173       0.12876452      -0.19300831      -0.09660450
22
Lattice="4.9424075231609415 -0.5613111362119767 1.1486904924505446 -2.279887344580094 9.618083633467833 -0.8332034195660851 0.38253978984722803 -2.663868286433981 8.58667219088795" Properties=species:S:1:pos:R:3:forces:R:3 unique_starting_index=18 config_type=initial n_minim_iter=11 energy=-3579.3893060465307 stress="0.0006840872658449389 -0.0006077931766275629 -0.00014277667693077633 -0.0006077931766275629 -0.0002553465369955131 -0.00027500360388214927 -0.00014277667693077633 -0.00027500360388214927 -0.001395504072701624" free_energy=-3579.3893060465307 pbc="T T T"
Si       1.25270406       8.36734034       1.90211520       0.28348210       0.59837266       0.11514771
Si       2.17975618       0.44024336       5.97459257       0.13089444      -0.06101770      -0.48390773
Si      -0.23074682      -2.59907209       7.84349501      -0.27384514       0.35333687       0.06763761
Si       4.95635297      -0.63844723       9.28919799       0.01523198      -0.26878527      -0.01990601
Si      -0.62301343       2.15269163       7.47147317      -0.22194977      -0.05225878      -0.29337834
Si       4.05619268       2.42865106       2.96819613       0.20602693       0.03976277       0.26786519