22
Lattice="4.445819999999999 0.0 4.57414311776833e-94 0.0 6.478690000000001 0.0 1.0959792467655247e-31 0.0 15.266109999999998" Properties=species:S:1:pos:R:3:forces:R:3 unique_starting_index=32 config_type=initial n_minim_iter=1 energy=-3486.60205803473 stress="-0.5926546482836388 -0.3396420085148752 -0.5554526961809876 1.6466048535180973e-12 2.0062701744173184e-13 -5.62397421096844e-12" pbc="T T T"
Si       1.50785676       0.78363060       8.16510641      -2.03915831       2.90935641      -0.80529517
Si       2.93796324       5.69505940       8.16510641       2.03915831      -2.90935641      -0.80529517
Si       1.50785676       2.45571440       0.53205141      -2.03915831      -2.90935641      -0.80529517
Si       2.93796324       4.02297560       0.53205141       2.03915831       2.90935641      -0.80529517
Si       4.05603896       1.97045404      14.40515483      -1.32326869       0.57377254      -0.84021594
Si       0.38978104       4.50823596      14.40515483       1.32326869      -0.57377254      -0.84021594
Si       4.05603896       1.26889096       6.77209983      -1.32326869      -0.57377254      -0.84021594
Si       0.38978104       5.20979904       6.77209983       1.32326869       0.57377254      -0.84021594
Si       3.15097092       2.20446951      10.98283187      18.14002587     -14.72945365      27.53539016
Si       1.29484908       4.27422049      10.98283187     -18.14002587      14.72945365      27.53539016
Si       3.15097092       1.03487549       3.34977687      18.14002587      14.72945365      27.53539016
Si       1.29484908       5.44381451       3.34977687     -18.14002587     -14.72945365      27.53539016
Si       1.38106686       3.88397271       9.43355375     -11.90450627       6.50956097     -36.39044036
Si       3.06475314       2.59471729       9.43355375      11.90450627      -6.50956097     -36.39044036
Si       1.38106686       5.83406229       1.80049875     -11.90450627      -6.50956097     -36.39044036
Si       3.06475314       0.64462771       1.80049875      11.90450627       6.50956097     -36.39044036
Si       1.71804757       0.62057493       2.76499021     -30.95009375      21.47501672       9.58921267
Si       2.72777243       5.85811507       2.76499021      30.95009375     -21.47501672       9.58921267
Si       1.71804757       2.61877007      10.39804521     -30.95009375     -21.47501672       9.58921267
Si       2.72777243       3.85991993      10.39804521      30.95009375      21.47501672       9.58921267
Si       2.22291000       3.23934500       2.54954723       0.00000000      -0.00000000       1.82269727
Si       2.22291000      -0.00000000      10.18260223      -0.00000000       0.00000000       1.82269727
22
Lattice="4.563199460765724 0.0 8.462128737303814e-33 0.0 6.576171694660045 0.0 1.415489108697446e-31 0.0 15.643558149174055" Properties=species:S:1:pos:R:3:forces:R:3 unique_starting_index=32 config_type=initial n_minim_iter=2 energy=-3501.261389348895 stress="-0.41194701015571245 -0.2619615032984975 -0.3844902321451991 1.9150780600975105e-12 -4.669016794176897e-13 4.928183566359494e-12" pbc="T T T"
Si       1.54745821       0.79571682       8.36690271      -1.73501340       1.87735519      -0.69683803
Si       3.01574125       5.78045487       8.36690271       1.73501340      -1.87735519      -0.69683803
Si       1.54745821       2.49236903       0.54512364      -1.73501340      -1.87735519      -0.69683803
Si       3.01574125       4.08380267       0.54512364       1.73501340       1.87735519      -0.69683803
Si       4.16299152       2.00016074      14.76123013      -0.74400700       0.37110118      -0.66017242
Si       0.40020794       4.57601095      14.76123013       0.74400700      -0.37110118      -0.66017242
Si       4.16299152       1.28792510       6.93945105      -0.74400700      -0.37110118      -0.66017242
Si       0.40020794       5.28824659       6.93945105       0.74400700       0.37110118      -0.66017242
Si       3.23602540       2.23614398      11.25719939      14.75257020     -11.07834131      21.73861404
Si       1.32717406       4.34002771      11.25719939     -14.75257020      11.07834131      21.73861404
Si       3.23602540       1.05194187       3.43542031      14.75257020      11.07834131      21.73861404
Si       1.32717406       5.52422983       3.43542031     -14.75257020     -11.07834131      21.73861404
Si       1.41630819       3.94307371       9.66306538      -9.68855302       5.12250041     -29.02473042
Si       3.14689127       2.63309799       9.66306538       9.68855302      -5.12250041     -29.02473042
Si       1.41630819       5.92118383       1.84128631      -9.68855302      -5.12250041     -29.02473042
Si       3.14689127       0.65498786       1.84128631       9.68855302       5.12250041     -29.02473042
Si       1.76023109       0.63209223       2.83433606     -22.90030530      16.67771387       8.18971545
Si       2.80296837       5.94407946       2.83433606      22.90030530     -16.67771387       8.18971545
Si       1.76023109       2.65599361      10.65611513     -22.90030530     -16.67771387       8.18971545
Si       2.80296837       3.92017808      10.65611513      22.90030530      16.67771387       8.18971545
Si       2.28159973       3.28808585       2.61277049       0.00000000       0.00000000       0.90682275
Si       2.28159973      -0.00000000      10.43454956       0.00000000       0.00000000       0.90682275
22
Lattice="4.935413047008352 -3.5500055776949236e-50 2.981894790971079e-32 0.0 6.912393912595021 9.63016139266019e-17 2.24012607622918e-31 2.2692103363195905e-16 16.831384779387342" Properties=species:S:1:pos:R:3:forces:R:3 unique_starting_index=32 config_type=initial n_minim_iter=3 energy=-3527.2460130136474 stress="-0.14068225789581562 -0.08014211237912766 -0.13301817466642316 -3.436731183874919e-14 -2.6964784205296576e-12 -9.063529363906658e-12" pbc="T T T"
Si       1.67288054       0.83722411       9.00188843      -0.51966600       0.63761440       0.09495768
Si       3.26253251       6.07516980       9.00188843       0.51966600      -0.63761440       0.09495768
Si       1.67288054       2.61897284       0.58619604      -0.51966600      -0.63761440       0.09495768
Si       3.26253251       4.29342107       0.58619604       0.51966600       0.63761440       0.09495768
Si       4.50221698       2.10258662      15.88175853       0.82133325       1.11786694       0.58613771
Si       0.43319606       4.80980729      15.88175853      -0.82133325      -1.11786694       0.58613771
Si       4.50221698       1.35361034       7.46606614       0.82133325      -1.11786694       0.58613771
Si       0.43319606       5.55878358       7.46606614      -0.82133325       1.11786694       0.58613771
Si       3.50679920       2.34560727      12.12192518       9.16805550      -5.15095257      10.72873370
Si       1.42861385       4.56678664      12.12192518      -9.16805550       5.15095257      10.72873370
Si       3.50679920       1.11058969       3.70623279       9.16805550       5.15095257      10.72873370
Si       1.42861385       5.80180423       3.70623279      -9.16805550      -5.15095257      10.72873370
Si       1.52735817       4.14692205      10.38349256      -5.80973719       3.29835163     -16.88938223
Si       3.40805488       2.76547187      10.38349256       5.80973719      -3.29835163     -16.88938223
Si       1.52735817       6.22166882       1.96780017      -5.80973719      -3.29835163     -16.88938223
Si       3.40805488       0.69072509       1.96780017       5.80973719       3.29835163     -16.88938223
Si       1.89323036       0.67173310       3.05330097     -11.13732348      10.61108271       5.68789951
Si       3.04218269       6.24066081       3.05330097      11.13732348     -10.61108271       5.68789951
Si       1.89323036       2.78446385      11.46899336     -11.13732348     -10.61108271       5.68789951
Si       3.04218269       4.12793006      11.46899336      11.13732348      10.61108271       5.68789951
Si       2.46770652       3.45619696       2.81157545       0.00000000       0.00000000      -0.41669275
Si       2.46770652      -0.00000000      11.22726784      -0.00000000      -0.00000000      -0.41669275
22
Lattice="5.224925718197495 -8.164910188759005e-48 -5.295029181851991e-32 -8.832721533099008e-48 7.140547604308691 6.5615959553777e-16 -5.353296736486961e-32 1.5410700968467182e-15 17.763468659243905" Properties=species:S:1:pos:R:3:forces:R:3 unique_starting_index=32 config_type=initial n_minim_iter=4 energy=-3537.0473380458125 stress="-0.08117663130090741 0.009518462389790611 -0.055706585807008595 -3.784951906621062e-12 -7.58643266710321e-13 -1.5842366252447606e-12" pbc="T T T"
Si       1.77053373       0.86538702       9.50047854       0.74894161       0.69877587       0.13722480
Si       3.45439198       6.27516058       9.50047854      -0.74894161      -0.69877587       0.13722480
Si       1.77053373       2.70488678       0.61874421       0.74894161      -0.69877587       0.13722480
Si       3.45439198       4.43566083       0.61874421      -0.74894161       0.69877587       0.13722480
Si       4.76707442       2.17291319      16.76178488       0.82526856       0.50580697       1.05372612
Si       0.45785130       4.96763441      16.76178488      -0.82526856      -0.50580697       1.05372612
Si       4.76707442       1.39736061       7.88005055       0.82526856      -0.50580697       1.05372612
Si       0.45785130       5.74318700       7.88005055      -0.82526856       0.50580697       1.05372612
Si       3.72094959       2.41875314      12.80292246       5.03962181      -3.65702991       5.59520703
Si       1.50397613       4.72179447      12.80292246      -5.03962181       3.65702991       5.59520703
Si       3.72094959       1.15152066       3.92118814       5.03962181       3.65702991       5.59520703
Si       1.50397613       5.98902694       3.92118814      -5.03962181      -3.65702991       5.59520703
Si       1.61160466       4.28653431      10.94321706      -3.30458388       2.89606742     -10.91147438
Si       3.61332105       2.85401329      10.94321706       3.30458388      -2.89606742     -10.91147438
Si       1.61160466       6.42428710       2.06148273      -3.30458388      -2.89606742     -10.91147438
Si       3.61332105       0.71626051       2.06148273       3.30458388       2.89606742     -10.91147438
Si       1.99403417       0.70270988       3.22753504      -6.96896182      10.01173498       4.49581261
Si       3.23089155       6.43783773       3.22753504       6.96896182     -10.01173498       4.49581261
Si       1.99403417       2.86756393      12.10926937      -6.96896182     -10.01173498       4.49581261
Si       3.23089155       4.27298368      12.10926937       6.96896182      10.01173498       4.49581261
Si       2.61246286       3.57027380       2.96689689       0.00000000       0.00000000      -0.74099235
Si       2.61246286      -0.00000000      11.84863122      -0.00000000      -0.00000000      -0.74099235
22
Lattice="5.554719505729327 -1.928706780253109e-47 -4.92268891212971e-33 -1.1692592696952416e-47 7.089483781458011 1.4617921598906596e-15 1.1768316850940693e-31 3.304515646993823e-15 18.525476742737546" Properties=species:S:1:pos:R:3:forces:R:3 unique_starting_index=32 config_type=initial n_minim_iter=5 energy=-3543.38056324856 stress="-0.05978710171537114 0.01949255890821584 -0.030758123262844567 -1.5438435883373516e-14 -3.2331545478995893e-12 -2.94313130122321e-12" pbc="T T T"
Si       1.88353981       0.86015726       9.90824560       0.93204627       0.70635743       0.46918100
Si       3.67117970       6.22932652       9.90824560      -0.93204627      -0.70635743       0.46918100
Si       1.88353981       2.68458463       0.64550723       0.93204627      -0.70635743       0.46918100
Si       3.67117970       4.40489915       0.64550723      -0.93204627       0.70635743       0.46918100
Si       5.06934763       2.15806820      17.48251604       0.52343332      -0.81775756       0.61846017
Si       0.48537188       4.93141558      17.48251604      -0.52343332       0.81775756       0.61846017
Si       5.06934763       1.38667369       8.21977767       0.52343332       0.81775756       0.61846017
Si       0.48537188       5.70281009       8.21977767      -0.52343332      -0.81775756       0.61846017
Si       3.96423259       2.39643800      13.36112416       2.53929975      -3.67636919       3.83179195
Si       1.59048692       4.69304578      13.36112416      -2.53929975       3.67636919       3.83179195
Si       3.96423259       1.14830389       4.09838578       2.53929975       3.67636919       3.83179195
Si       1.59048692       5.94117989       4.09838578      -2.53929975      -3.67636919       3.83179195
Si       1.70780744       4.25985411      11.39512452      -1.83311510       3.56831351      -8.28134311
Si       3.84691207       2.82962967      11.39512452       1.83311510      -3.56831351      -8.28134311
Si       1.70780744       6.37437156       2.13238615      -1.83311510      -3.56831351      -8.28134311
Si       3.84691207       0.71511222       2.13238615       1.83311510       3.56831351      -8.28134311
Si       2.10825393       0.71142233       3.37321057      -4.77607363      10.60569448       3.82836845
Si       3.44646557       6.37806145       3.37321057       4.77607363     -10.60569448       3.82836845
Si       2.10825393       2.83331956      12.63594894      -4.77607363     -10.60569448       3.82836845
Si       3.44646557       4.25616422      12.63594894       4.77607363      10.60569448       3.82836845
Si       2.77735975       3.54474189       3.09297891       0.00000000      -0.00000000      -0.93291694
Si       2.77735975       0.00000000      12.35571728       0.00000000       0.00000000      -0.93291694
22
Lattice="6.369365282512321 3.263267160672517e-47 -1.8862093741962025e-31 -3.802272681578091e-48 6.780116710183352 1.044203723417925e-15 -5.136571835296171e-31 1.8688649132957217e-15 19.87677268913423" Properties=species:S:1:pos:R:3:forces:R:3 unique_starting_index=32 config_type=initial n_minim_iter=6 energy=-3551.075256001629 stress="0.0257149285371525 -0.003940929213960667 -0.006942372698117585 -6.968082397001563e-16 1.8179715110923777e-12 2.5280966928325456e-12" pbc="T T T"
Si       2.16501124       0.82516022      10.63330446       0.96608510      -0.25278774       0.35922602
Si       4.20435404       5.95495649      10.63330446      -0.96608510       0.25278774       0.35922602
Si       2.16501124       2.56489813       0.69491812       0.96608510       0.25278774       0.35922602
Si       4.20435404       4.21521858       0.69491812      -0.96608510      -0.25278774       0.35922602
Si       5.81574936       2.06095727      18.76080171      -0.55056177      -3.74504221       0.38761300
Si       0.55361593       4.71915944      18.76080171       0.55056177       3.74504221       0.38761300
Si       5.81574936       1.32910109       8.82241537      -0.55056177       3.74504221       0.38761300
Si       0.55361593       5.45101562       8.82241537       0.55056177      -3.74504221       0.38761300
Si       4.55988176       2.27865381      14.35471473      -0.23246210      -4.12916025       1.20962667
Si       1.80948352       4.50146290      14.35471473       0.23246210       4.12916026       1.20962667
Si       4.55988176       1.11140454       4.41632839      -0.23246210       4.12916025       1.20962667
Si       1.80948352       5.66871217       4.41632839       0.23246210      -4.12916025       1.20962667
Si       1.94797623       4.08678636      12.18526014      -1.01146453       2.81807223      -3.85311845
Si       4.42138905       2.69333035      12.18526014       1.01146453      -2.81807223      -3.85311845
Si       1.94797623       6.08338871       2.24687379      -1.01146454      -2.81807223      -3.85311845
Si       4.42138905       0.69672800       2.24687379       1.01146454       2.81807223      -3.85311845
Si       2.39062294       0.71848545       3.63824005      -1.57460247       8.77080788       2.43220745
Si       3.97874234       6.06163126       3.63824005       1.57460247      -8.77080788       2.43220745
Si       2.39062294       2.67157291      13.57662640      -1.57460247      -8.77080788       2.43220745
Si       3.97874234       4.10854380      13.57662640       1.57460247       8.77080788       2.43220745
Si       3.18468264       3.39005836       3.31396389      -0.00000000      -0.00000000      -1.07110940
Si       3.18468264       0.00000000      13.25235024      -0.00000000      -0.00000000      -1.07110940
22
Lattice="6.038198007757932 -4.128637046842063e-48 8.793333056369962e-31 1.3414694946205612e-46 6.835825363628776 9.711092057652427e-16 3.0938185744805662e-30 1.6762581799051532e-15 20.165372803600118" Properties=species:S:1:pos:R:3:forces:R:3 unique_starting_index=32 config_type=initial n_minim_iter=7 energy=-3553.197484017012 stress="-0.006560919461245236 0.0018852707293498172 -0.012896907264696405 6.519705348124543e-13 -4.532955626166751e-13 8.480238120108076e-13" pbc="T T T"
Si       2.05699137       0.83126492      10.78918885      -0.26827921      -0.08148668       0.60473352
Si       3.98120664       6.00456044      10.78918885       0.26827920       0.08148668       0.60473352
Si       2.05699137       2.58664776       0.70650244      -0.26827921       0.08148668       0.60473352
Si       3.98120664       4.24917760       0.70650244       0.26827921      -0.08148668       0.60473352
Si       5.51077525       2.06788784      19.03481111       0.34338062      -3.31534693       0.27628212
Si       0.52742276       4.76793752      19.03481111      -0.34338062       3.31534693       0.27628212
Si       5.51077525       1.35002484       8.95212471       0.34338062       3.31534693       0.27628212
Si       0.52742276       5.48580053       8.95212471      -0.34338062      -3.31534693       0.27628212
Si       4.32170218       2.28634709      14.56816993       0.67122273      -4.09708558       1.41641630
Si       1.71649583       4.54947828      14.56816993      -0.67122273       4.09708558       1.41641629
Si       4.32170218       1.13156559       4.48548353       0.67122272       4.09708558       1.41641629
Si       1.71649583       5.70425977       4.48548353      -0.67122272      -4.09708558       1.41641629
Si       1.84193282       4.12789256      12.34615346      -0.61211550       2.57982043      -3.61050102
Si       4.19626519       2.70793280      12.34615346       0.61211551      -2.57982043      -3.61050102
Si       1.84193282       6.12584548       2.26346706      -0.61211551      -2.57982043      -3.61050102
Si       4.19626519       0.70997988       2.26346706       0.61211550       2.57982043      -3.61050102
Si       2.25891406       0.74781620       3.70118407      -2.15174583       8.23834493       1.76167636
Si       3.77928395       6.08800917       3.70118407       2.15174583      -8.23834493       1.76167636
Si       2.25891406       2.67009648      13.78387048      -2.15174583      -8.23834493       1.76167636
Si       3.77928395       4.16572888      13.78387048       2.15174583       8.23834493       1.76167636
Si       3.01909900       3.41791268       3.35762474       0.00000000      -0.00000000      -0.89721456
Si       3.01909900      -0.00000000      13.44031114       0.00000000       0.00000000      -0.89721456
22
Lattice="6.100294314719024 2.199568419594111e-45 -7.89993856690485e-30 1.3628583213608169e-45 6.815757712863204 5.22486857477746e-16 -2.6978971094796836e-29 5.541343403361115e-16 20.57504503116641" Properties=species:S:1:pos:R:3:forces:R:3 unique_starting_index=32 config_type=initial n_minim_iter=8 energy=-3554.5027698144936 stress="0.0029144232916479894 -0.0005989539142350506 -0.00837645333388548 2.2342976681103203e-12 9.50029418374663e-13 -2.6726646607301363e-12" pbc="T T T"
Si       2.07720857       0.82865515      11.01039507      -0.39196162      -0.11296173       0.46597506
Si       4.02308574       5.98710257      11.01039507       0.39196162       0.11296173       0.46597506
Si       2.07720857       2.57922371       0.72287255      -0.39196162       0.11296173       0.46597506
Si       4.02308574       4.23653400       0.72287255       0.39196162      -0.11296173       0.46597506
Si       5.56864652       2.05492237      19.42243680       0.19360632      -3.64894222       0.21903295
Si       0.53164779       4.76083534      19.42243680      -0.19360633       3.64894222       0.21903295
Si       5.56864652       1.35295648       9.13491428       0.19360633       3.64894222       0.21903295
Si       0.53164779       5.46280123       9.13491428      -0.19360633      -3.64894222       0.21903295
Si       4.36848981       2.27111453      14.86885587       0.45804682      -3.87906647       1.05318650
Si       1.73180451       4.54464318      14.86885587      -0.45804682       3.87906647       1.05318650
Si       4.36848981       1.13676433       4.58133335       0.45804682       3.87906647       1.05318650
Si       1.73180451       5.67899339       4.58133335      -0.45804682      -3.87906647       1.05318650
Si       1.85873785       4.12113968      12.58493065      -0.50156436       2.11587310      -2.69664989
Si       4.24155646       2.69461804      12.58493065       0.50156436      -2.11587310      -2.69664989
Si       1.85873785       6.10249689       2.29740814      -0.50156436      -2.11587310      -2.69664989
Si       4.24155646       0.71326082       2.29740814       0.50156436       2.11587310      -2.69664989
Si       2.27463158       0.76275398       3.78225196      -1.82342536       7.21031566       1.37803781
Si       3.82566274       6.05300374       3.78225196       1.82342536      -7.21031566       1.37803781
Si       2.27463158       2.64512488      14.06977447      -1.82342536      -7.21031566       1.37803781
Si       3.82566274       4.17063283      14.06977447       1.82342536       7.21031566       1.37803781
Si       3.05014716       3.40787886       3.42284437       0.00000000       0.00000000      -0.83916486
Si       3.05014716      -0.00000000      13.71036689       0.00000000      -0.00000000      -0.83916486
22
Lattice="6.051151934020104 -8.657937168728987e-46 8.385044659379949e-29 5.306086415810313e-45 6.827096758792725 3.929818292187993e-16 2.8581599627768598e-28 2.2093981523171791e-16 21.058957418199643" Properties=species:S:1:pos:R:3:forces:R:3 unique_starting_index=32 config_type=initial n_minim_iter=9 energy=-3556.1051583899916 stress="0.004378927528644375 0.0005833744314855439 -0.003922718460328504 1.5763837818455492e-12 9.049201311646417e-13 1.4308378161465273e-12" pbc="T T T"
Si       2.05810030       0.82962747      11.27216329      -0.61595860      -0.00883063       0.36427699
Si       3.99305163       5.99746928      11.27216329       0.61595860       0.00883063       0.36427699
Si       2.05810030       2.58392091       0.74268458      -0.61595860       0.00883064       0.36427699
Si       3.99305163       4.24317585       0.74268458       0.61595860      -0.00883064       0.36427699
Si       5.52495998       2.04521769      19.88056164       0.15599039      -3.81415610       0.12906691
Si       0.52619195       4.78187907      19.88056164      -0.15599039       3.81415610       0.12906691
Si       5.52495998       1.36833069       9.35108293       0.15599039       3.81415610       0.12906691
Si       0.52619195       5.45876607       9.35108293      -0.15599039      -3.81415610       0.12906691
Si       4.33607361       2.26094188      15.22491446       0.53432829      -3.46449909       0.79547784
Si       1.71507832       4.56615488      15.22491446      -0.53432829       3.46449909       0.79547784
Si       4.33607361       1.15260650       4.69543575       0.53432829       3.46449909       0.79547784
Si       1.71507832       5.67449026       4.69543575      -0.53432829      -3.46449909       0.79547784
Si       1.84072546       4.13560552      12.86465571      -0.35815683       1.61574361      -1.83848245
Si       4.21042647       2.69149124      12.86465571       0.35815683      -1.61574361      -1.83848245
Si       1.84072546       6.10503962       2.33517700      -0.35815683      -1.61574361      -1.83848245
Si       4.21042647       0.72205714       2.33517700       0.35815683       1.61574361      -1.83848245
Si       2.24525995       0.78995471       3.87951979      -1.69226096       5.88034939       0.90790221
Si       3.80589198       6.03714205       3.87951979       1.69226096      -5.88034939       0.90790221
Si       2.24525995       2.62359367      14.40899850      -1.69226096      -5.88034939       0.90790221
Si       3.80589198       4.20350309      14.40899850       1.69226096       5.88034939       0.90790221
Si       3.02557597       3.41354838       3.49828617       0.00000000      -0.00000000      -0.71648299
Si       3.02557597      -0.00000000      14.02776488      -0.00000000       0.00000000      -0.71648299
22
Lattice="5.8362600336141135 2.759268377399957e-45 -1.1837584820055179e-27 -8.684411797520318e-44 6.794288731027365 5.161501820228165e-16 -4.0049115770262e-27 4.701340210850788e-16 21.752253865400146" Properties=species:S:1:pos:R:3:forces:R:3 unique_starting_index=32 config_type=initial n_minim_iter=10 energy=-3558.8898219899083 stress="-0.0050197792161870355 0.00034288832013626235 0.0033963054624343387 2.1259667716033386e-12 3.2189851448706274e-13 5.70407539827992e-13" pbc="T T T"
Si       1.97456585       0.82554802      11.65005785      -0.65787611       0.10123458       0.51058796
Si       3.86169419       5.96874071      11.65005785       0.65787611      -0.10123458       0.51058796
Si       1.97456585       2.57159634       0.77393092      -0.65787612      -0.10123458       0.51058795
Si       3.86169419       4.22269239       0.77393092       0.65787612       0.10123458       0.51058796
Si       5.33139995       1.99538232      20.53747116       0.20481682      -3.01701219      -0.01175483
Si       0.50486009       4.79890641      20.53747116      -0.20481682       3.01701219      -0.01175483
Si       5.33139995       1.40176204       9.66134423       0.20481682       3.01701219      -0.01175483
Si       0.50486009       5.39252669       9.66134423      -0.20481682      -3.01701219      -0.01175483
Si       4.19115021       2.21373741      15.74098469       0.85882735      -2.48042971       0.43531029
Si       1.64510982       4.58055132      15.74098469      -0.85882735       2.48042971       0.43531029
Si       4.19115021       1.18340695       4.86485776       0.85882735       2.48042971       0.43531029
Si       1.64510982       5.61088178       4.86485776      -0.85882735      -2.48042971       0.43531029
Si       1.76928261       4.13267926      13.25388340      -0.12401359       1.01577093      -0.81545490
Si       4.06697743       2.66160947      13.25388340       0.12401359      -1.01577093      -0.81545490
Si       1.76928261       6.05875383       2.37775647      -0.12401359      -1.01577093      -0.81545490
Si       4.06697743       0.73553490       2.37775647       0.12401359       1.01577093      -0.81545490
Si       2.13682597       0.84783793       4.02417784      -1.36478038       3.55040959       0.14593173
Si       3.69943407       5.94645080       4.02417784       1.36478038      -3.55040959       0.14593173
Si       2.13682597       2.54930644      14.90030478      -1.36478038      -3.55040959       0.14593173
Si       3.69943407       4.24498229      14.90030478       1.36478038       3.55040959       0.14593173
Si       2.91813002       3.39714437       3.60008904      -0.00000000      -0.00000000      -0.52924050
Si       2.91813002      -0.00000000      14.47621597      -0.00000000       0.00000000      -0.52924050
22
Lattice="6.109371330411741 -7.887002112727077e-44 1.9759115300924245e-26 1.787056590259874e-42 6.773096819487368 5.972320742903983e-16 6.918352555919474e-26 7.032178445944999e-16 21.089486935088438" Properties=species:S:1:pos:R:3:forces:R:3 unique_starting_index=32 config_type=initial n_minim_iter=11 energy=-3560.117448149033 stress="0.0228760475745193 -0.005851991404324273 0.011266807457427374 9.30698841821146e-13 -1.7678219851217236e-12 -1.86904855536064e-12" pbc="T T T"
Si       2.05443138       0.82414542      11.30570938       0.27800656      -0.17544637       0.49518180
Si       4.05493995       5.94895140      11.30570938      -0.27800656       0.17544637       0.49518180
Si       2.05443138       2.56240299       0.76096591       0.27800656       0.17544637       0.49518180
Si       4.05493995       4.21069383       0.76096591      -0.27800656      -0.17544637       0.49518180
Si       5.58478868       1.95422020      19.91147291      -0.77987883      -2.72024996      -0.05405815
Si       0.52458265       4.81887662      19.91147291       0.77987883       2.72024996      -0.05405815
Si       5.58478868       1.43232821       9.36672944      -0.77987883       2.72024996      -0.05405815
Si       0.52458265       5.34076861       9.36672944       0.77987883      -2.72024996      -0.05405815
Si       4.40364207       2.17810809      15.27042511      -0.07653532      -2.06227000      -0.31302054
Si       1.70572926       4.59498873      15.27042511       0.07653532       2.06227000      -0.31302054
Si       4.40364207       1.20844032       4.72568165      -0.07653532       2.06227000      -0.31302054
Si       1.70572926       5.56465650       4.72568165       0.07653532      -2.06227000      -0.31302054
Si       1.84971424       4.13155221      12.83309796       0.10134865       0.86297215      -0.43007139
Si       4.25965709       2.64154461      12.83309796      -0.10134865      -0.86297215      -0.43007139
Si       1.84971424       6.02809302       2.28835449       0.10134865      -0.86297215      -0.43007139
Si       4.25965709       0.74500380       2.28835449      -0.10134866       0.86297215      -0.43007139