24
Lattice="6.527613148155223 -7.221476350830299e-16 4.5382162349383905e-31 7.82992035625614e-16 7.827732826386369 4.053390246659962e-15 -1.242593745184638e-30 -1.0612390233702786e-14 20.49419136665387" Properties=species:S:1:pos:R:3:forces:R:3 unique_starting_index=214 config_type=initial n_minim_iter=13 energy=-3901.5176821575124 stress="-1.293583903746308e-06 3.011406677320436e-13 9.067056234272255e-14 3.011406677320436e-13 -1.237306829881516e-05 -2.3312626082952053e-12 9.067056234272255e-14 -2.3312626082952053e-12 -1.3548724063608392e-06" free_energy=-3901.5176821575124 pbc="T T T"
Si       4.46416108       1.11111150       6.67497464       0.00106092       0.00104550      -0.00329666
Si       4.46416108       6.71662133      13.81921673       0.00106092      -0.00104550       0.00329666
Si       5.32725864       6.71662133       6.67497464      -0.00106092      -0.00104550      -0.00329666
Si       5.32725864       1.11111150      13.81921673      -0.00106092       0.00104550       0.00329666
Si       2.06345207       6.71662133      13.81921673      -0.00106092      -0.00104551       0.00329666
Si       2.06345207       1.11111150       6.67497464      -0.00106092       0.00104550      -0.00329666
Si       1.20035450       1.11111150      13.81921673       0.00106092       0.00104550       0.00329666
Si       1.20035450       6.71662133       6.67497464       0.00106092      -0.00104550      -0.00329666
Si       5.39466864       4.94785732      15.03509662      -0.00682936       0.00246616      -0.00075349
Si       5.39466864       2.87987551       5.45909474      -0.00682936      -0.00246615       0.00075349
Si       4.39675108       2.87987551      15.03509662       0.00682936      -0.00246615      -0.00075349
Si       4.39675108       4.94785732       5.45909474       0.00682936       0.00246615       0.00075349
Si       1.13294450       2.87987551       5.45909474       0.00682936      -0.00246616       0.00075349
Si       1.13294450       4.94785732      15.03509662       0.00682936       0.00246616      -0.00075349
Si       2.13086207       4.94785732       5.45909474      -0.00682936       0.00246616       0.00075349
Si       2.13086207       2.87987551      15.03509662      -0.00682936      -0.00246615      -0.00075349
Si       4.43495637       6.71649990      11.35079913       0.00382961       0.00109462      -0.00724016
Si       4.43495637       1.11123293       9.14339224       0.00382961      -0.00109462       0.00724016
Si       5.35646335       1.11123293      11.35079913      -0.00382961      -0.00109462      -0.00724016
Si       5.35646335       6.71649990       9.14339224      -0.00382961       0.00109462       0.00724016
Si       2.09265677       1.11123293       9.14339224      -0.00382961      -0.00109462       0.00724016
Si       2.09265677       6.71649990      11.35079913      -0.00382961       0.00109462      -0.00724016
Si       1.17114980       6.71649990       9.14339224       0.00382961       0.00109462       0.00724016
Si       1.17114980       1.11123293      11.35079913       0.00382961      -0.00109462      -0.00724016
