20
Lattice="5.436439656809469 0.2702138612753892 -0.3179476860060849 0.19215383702447952 9.491167510068005 -0.7313026872558508 -2.3286726277803176 -1.5777130000510684 12.105924322135785" Properties=species:S:1:pos:R:3:forces:R:3 unique_starting_index=330 config_type=initial n_minim_iter=1 energy=-3250.494645122983 stress="0.00012209102676060082 -0.0005644483885387431 -0.0007801469620160726 -0.0005644483885387431 -0.00034916031112278834 0.0004452166116231053 -0.0007801469620160726 0.0004452166116231053 -0.0006652890332847658" free_energy=-3250.494645122983 pbc="T T T"
Si       3.90240424       5.06622639       3.61919992      -0.02422780      -0.12400978      -0.13484463
Si       0.32182277       2.30157991       5.51017100       0.08010673       0.01526101      -0.00331691
Si       4.25437428       0.73339434       5.60629080      -0.06586064      -0.08743308      -0.00133465
Si       2.20448044       7.64037003       7.46982325      -0.11350485      -0.16472254       0.24734612
Si       3.78795520       7.08422625       9.10201335       0.06361576       0.01193506      -0.09439546
Si       2.90010707       6.55922357       2.06143497      -0.16565813       0.24671954       0.15103279
Si       0.63725813      -0.18586679      11.47659951      -0.08134160       0.15332661      -0.04225271
Si      -0.21972438       8.97191735       3.17210911       0.11670149       0.35407310      -0.09225869
Si       4.56460971       7.94216010       0.95252914       0.01314966      -0.12388339      -0.05055410
Si       0.57311332       5.45887125      11.81048699       0.01208097       0.08929193       0.14074235
Si       0.17692595       6.49356791       7.93080549       0.07064724       0.00383635      -0.07221709
Si       2.68415741       2.44872738       5.56543894       0.01202799       0.01298272       0.08511839
Si       0.99587630       5.42339429       4.68685538       0.02790187       0.05718423      -0.04898573
Si       1.52549554       7.52387310       3.77587403       0.05394394      -0.03958071      -0.07833596
Si      -0.92171869       6.21667536       5.86344809       0.08855332       0.00484860       0.06751609
Si       0.28972343       3.52625977       3.49922257       0.21524806      -0.09080027      -0.04357912
Si       2.89605579       4.76961245       5.94896601      -0.30177471      -0.14999650      -0.00259482
Si       3.04208976       8.32904876       5.41086195       0.14059550      -0.03135926      -0.12218128
Si       2.86740239       3.08295724       0.43714504      -0.06565298      -0.17086696       0.04885191
Si       2.29969332       5.32790044       8.22161754      -0.07655182       0.03319336       0.04624350
20
Lattice="5.434755818213509 0.27759417150728 -0.3092120439399768 0.20279084678199757 9.49955624687288 -0.7414980483983479 -2.308925920160798 -1.5939236967133674 12.121465590288643" Properties=species:S:1:pos:R:3:forces:R:3 unique_starting_index=330 config_type=initial n_minim_iter=2 energy=-3250.49809021825 stress="0.0005031956849089105 0.0003171208520037134 0.0006191168023868094 0.0003171208520037134 0.0007364848572945441 5.018332275159586e-05 0.0006191168023868094 5.018332275159586e-05 0.0006035783570041606" free_energy=-3250.49809021825 pbc="T T T"
Si       3.91395493       5.07105235       3.62586146      -0.05408520      -0.08884388      -0.16953349
Si       0.33453628       2.29835979       5.51663833       0.08021026       0.02435376      -0.02680686
Si       4.26368134       0.73343358       5.62132402      -0.05224778      -0.07889925       0.00530544
Si       2.22612438       7.64108684       7.47809808      -0.09583409      -0.16902346       0.24646660
Si       3.81196132       7.08552902       9.11478276       0.02666758       0.00397312      -0.12758803
Si       2.91058169       6.56685707       2.06358785      -0.11848991       0.20764400       0.11139320
Si       0.65656329      -0.19606422      11.49483403      -0.10400286       0.06778733      -0.03140636
Si      -0.20239775       8.97679421       3.16718806       0.09449223       0.32363830      -0.12274678
Si       4.57509452       7.95272179       0.95382120      -0.02107624      -0.13943515      -0.06211381
Si       0.60047556       5.45243876      11.82416271       0.03348119       0.11331544       0.16745890
Si       0.19914791       6.49099250       7.93620364       0.05976964       0.01070864      -0.06263979
Si       2.69626573       2.44853614       5.57628406       0.00612417       0.02528952       0.08909539
Si       1.01071644       5.42443635       4.68999856       0.05896451       0.05404111      -0.06770314
Si       1.54134649       7.52777712       3.77638733       0.04435224      -0.02617977      -0.02371972
Si      -0.90308661       6.21455835       5.86463854       0.08324600      -0.01262665       0.10286357
Si       0.30097649       3.52556965       3.50127429       0.18364308      -0.11262386      -0.02242398
Si       2.91055307       4.77052373       5.95812070      -0.29293078      -0.13556956      -0.01847065
Si       3.06171239       8.33389816       5.41549373       0.10705351      -0.04045320      -0.12286207
Si       2.87103492       3.08792127       0.43990759       0.00264058      -0.06602696       0.10327447
Si       2.31984192       5.32690666       8.23274183      -0.04197812       0.03893053       0.03215712
20
Lattice="5.4249702051292426 0.2798654326158395 -0.3093388280461168 0.20634901341539888 9.487485627636056 -0.753094876112674 -2.3050233184606377 -1.607703676316527 12.120910356767977" Properties=species:S:1:pos:R:3:forces:R:3 unique_starting_index=330 config_type=initial n_minim_iter=3 energy=-3250.5018417939073 stress="-0.0016347046346061108 0.0006445064333922808 0.0007097917802529824 0.0006445064333922808 -0.0018767240316061343 -0.001098974522220299 0.0007097917802529824 -0.001098974522220299 -0.0010714946435481493" free_energy=-3250.5018417939073 pbc="T T T"
Si       3.90867866       5.06028767       3.61758348      -0.06729308      -0.05739837      -0.14152607
Si       0.33576288       2.28868920       5.51253900       0.03572010       0.00980144      -0.02967471
Si       4.25587242       0.72650462       5.61941722      -0.02361445      -0.09081949       0.00737809
Si       2.22455072       7.62074000       7.46940111      -0.06430719      -0.11903158       0.17245636
Si       3.80862413       7.06615515       9.10326371       0.05486092      -0.03546906      -0.10911840
Si       2.90683918       6.55848589       2.05627382      -0.10752484       0.21132610       0.10119725
Si       0.65479486      -0.20880725      11.49243106      -0.11789661       0.06786711      -0.02776872
Si      -0.19726705       8.96345237       3.15444935       0.10232514       0.33434383      -0.12824258
Si       4.57004648       7.94132465       0.94341059       0.02730297      -0.12403468      -0.04994713
Si       0.60222285       5.43145835      11.81642329      -0.00853999       0.09277197       0.14961495
Si       0.20229655       6.47238718       7.92596855       0.02336660      -0.03306049      -0.06710113
Si       2.69262390       2.43956303       5.57298015       0.01179520       0.01357982       0.08381412
Si       1.01167412       5.41208415       4.68183163       0.06356763       0.05692316      -0.08406988
Si       1.54221594       7.51309983       3.76592146       0.01771952      -0.01017576      -0.01361568
Si      -0.89791805       6.19832326       5.85651516       0.06834937      -0.04101114       0.09486732
Si       0.30375988       3.51559363       3.49593163       0.19840186      -0.14112613       0.01002973
Si       2.90476654       4.75652194       5.95098506      -0.25586477      -0.09471406      -0.00241270
Si       3.06085123       8.31668274       5.40307563       0.07598519      -0.02438173      -0.06561645
Si       2.86685778       3.08331542       0.43678857      -0.00907846      -0.00290799       0.08420999
Si       2.31757024       5.31067383       8.22488692      -0.02527510      -0.01248296       0.01552564
20
Lattice="5.418948110396493 0.27629680881440555 -0.3250426687584599 0.20062310017010765 9.502406852528928 -0.7642707588908191 -2.3330708303321677 -1.6188387011876622 12.16798826511715" Properties=species:S:1:pos:R:3:forces:R:3 unique_starting_index=330 config_type=initial n_minim_iter=4 energy=-3250.5172998908038 stress="-0.0012780383016624364 -0.0001926115340706122 -0.0010034418119880004 -0.0001926115340706122 0.0008918825050102027 -0.0009984171183888817 -0.0010034418119880004 -0.0009984171183888817 0.0014328010957431335" free_energy=-3250.5172998908038 pbc="T T T"
Si       3.88840512       5.05757999       3.60802034      -0.02744803      -0.03714086      -0.13317501
Si       0.32211108       2.28795136       5.52686483      -0.06582411      -0.05434521      -0.04987005
Si       4.23291390       0.71576571       5.62593814       0.00795909      -0.04294273      -0.02713800
Si       2.19181197       7.61714388       7.49156105       0.01359739       0.02262269      -0.06862389
Si       3.77621125       7.06610010       9.11186249       0.10693635       0.02493091      -0.03469899
Si       2.88689114       6.57401211       2.05498209      -0.04346781       0.11779770       0.01175705
Si       0.61951365      -0.21525873      11.52683106      -0.03483122      -0.23410601      -0.14191567
Si      -0.20794245       8.98909931       3.15263254       0.11970931       0.27355339      -0.11704559
Si       4.55566194       7.94332819       0.92506835       0.14605312      -0.00404140       0.07067817
Si       0.56672722       5.43336057      11.85540265      -0.13641915       0.01572286       0.08483453
Si       0.17846643       6.47529536       7.94281407      -0.07747779      -0.04390097       0.06937959
Si       2.67304326       2.43713343       5.58565829       0.06997204      -0.04454880       0.07306055
Si       0.99582940       5.41788733       4.68701043      -0.03798152       0.09617668      -0.11058644
Si       1.52633330       7.51881147       3.76577004      -0.05886908       0.03807219      -0.02271642
Si      -0.91364961       6.20293581       5.87651728       0.00682065      -0.13799426       0.02408419
Si       0.29985936       3.51300026       3.50240652       0.14695097      -0.11897868       0.00583652
Si       2.86917549       4.75045761       5.95815168      -0.09866281       0.05201601       0.04972771
Si       3.04120325       8.32077557       5.40043663       0.02788446      -0.09093010       0.12807906
Si       2.85869087       3.08117881       0.43140217      -0.05375054       0.23639862       0.20526679
Si       2.28649404       5.31106073       8.24249811      -0.01115132      -0.06836202      -0.01693408
20
Lattice="5.438073546144219 0.27565370094013886 -0.3139404821535472 0.2015625687198357 9.479730775274025 -0.7343040325945338 -2.320767375756914 -1.5806395032848877 12.124990466256008" Properties=species:S:1:pos:R:3:forces:R:3 unique_starting_index=330 config_type=initial n_minim_iter=5 energy=-3250.5281949318987 stress="0.0002537775899915661 1.655698839913413e-05 0.00010966106666916259 1.655698839913413e-05 -0.00048213811007952157 0.00025771929304812044 0.00010966106666916259 0.00025771929304812044 0.00018969539053946015" free_energy=-3250.5281949318987 pbc="T T T"
Si       3.90801388       5.05451824       3.61377376       0.06510000      -0.10609558      -0.03428067
Si       0.33506493       2.29926760       5.51762137      -0.02302405      -0.10721298       0.02317212
Si       4.25650585       0.72833099       5.61942812       0.01861974       0.00969812      -0.01898038
Si       2.21101923       7.61790723       7.50309524       0.05103803       0.13364354      -0.19285966
Si       3.80876127       7.07794183       9.10952449       0.03007812       0.01651300       0.03068629
Si       2.89761719       6.57370207       2.07707566      -0.00553017       0.06794414      -0.03422266
Si       0.63846573      -0.17975126      11.49290662      -0.03267353      -0.17287862      -0.18382716
Si      -0.19791426       8.99063102       3.16525544       0.15463257       0.20637344      -0.15485607
Si       4.57585744       7.92557861       0.95201919       0.12880417       0.04687995       0.05717519
Si       0.58995238       5.45908718      11.84392101      -0.12326002       0.00575543       0.08856540
Si       0.19521747       6.48405881       7.93782642      -0.09127010      -0.04649216       0.10812970
Si       2.69346688       2.44873629       5.58468358       0.01248891      -0.09402365       0.07515278
Si       1.00964844       5.42213851       4.68862010      -0.09421632      -0.01802101      -0.06322153
Si       1.54058879       7.51303714       3.77809008      -0.09536561       0.21295793       0.00332092
Si      -0.90322899       6.20524031       5.87915886      -0.01205067      -0.20983805      -0.03953811
Si       0.31444349       3.51158521       3.50247573      -0.02389130      -0.00687389      -0.00748703
Si       2.88117580       4.75402137       5.96003682      -0.02553181       0.13052701       0.03432329
Si       3.06657195       8.31731559       5.41180186      -0.02572828      -0.13003879       0.12560377
Si       2.86922085       3.07465270       0.44768274       0.06187642       0.19436974       0.15848294
Si       2.30820588       5.32423906       8.23956593       0.02990391      -0.13318757       0.02466087
20
Lattice="5.435701578264968 0.27674640438435716 -0.31313513304888574 0.201471121330059 9.509370320073794 -0.740010717006861 -2.319651362920164 -1.595640969339352 12.088709254940138" Properties=species:S:1:pos:R:3:forces:R:3 unique_starting_index=330 config_type=initial n_minim_iter=6 energy=-3250.532906020247 stress="-0.0002600275565441436 1.037246577316861e-05 7.023417829963458e-05 1.037246577316861e-05 0.001736090853007354 -0.0002001827002029591 7.023417829963458e-05 -0.0002001827002029591 -0.0016333250004664046" free_energy=-3250.532906020247 pbc="T T T"
Si       3.90650727       5.06384474       3.59517395       0.05321119      -0.06715761       0.00102368
Si       0.33556517       2.30027716       5.49849690      -0.03837342      -0.13312491       0.04167962
Si       4.25417460       0.72457239       5.60114270      -0.00548933       0.03954479      -0.00296999
Si       2.20940170       7.63446358       7.47408088       0.04518084       0.08280361      -0.18312893
Si       3.80860492       7.09230101       9.07400434      -0.00871502      -0.00144132       0.07974896
Si       2.89412801       6.59678635       2.06656952       0.04375116       0.05000704      -0.04434250
Si       0.63623534      -0.19156120      11.45386635      -0.04939569       0.04125279       0.00149407
Si      -0.19365088       9.02439659       3.14360910       0.17854387       0.15812462      -0.14970739
Si       4.57612066       7.94769804       0.94262716       0.12266354       0.04680496       0.05131049
Si       0.58794525       5.46752371      11.80646997      -0.12196575       0.01044483       0.10095198
Si       0.19456720       6.49648769       7.90849257      -0.04097902      -0.07100945       0.07044991
Si       2.69286732       2.45035397       5.56794838       0.01961207      -0.07784817       0.07033477
Si       1.00851599       5.43568115       4.66734742      -0.08741921       0.01492947      -0.10010638
Si       1.53909784       7.53557399       3.75938505      -0.14546289       0.19102378       0.02209497
Si      -0.90167739       6.21576052       5.85654837      -0.07766120      -0.18942609      -0.06343437
Si       0.31742674       3.51731013       3.48818932      -0.03431351       0.04668095       0.06194856
Si       2.87490315       4.76351566       5.93806633       0.02134848       0.07451854      -0.01242141
Si       3.06675000       8.33558491       5.38849419       0.02661452      -0.11977011       0.12470842
Si       2.86832572       3.08565960       0.44780910       0.07165470      -0.03390653      -0.12013032
Si       2.30686038       5.33196996       8.21040622       0.02719467      -0.06245120       0.05049587
20
Lattice="5.44074870902187 0.27424079391019934 -0.3203595397386396 0.19957787961329013 9.46919920904255 -0.7513936280121505 -2.3332013788800126 -1.5976412038547483 12.154926961194557" Properties=species:S:1:pos:R:3:forces:R:3 unique_starting_index=330 config_type=initial n_minim_iter=7 energy=-3250.550815255959 stress="0.0001196869991827599 -0.00014074035461967833 0.00010198617463661974 -0.00014074035461967833 0.00012013654903554294 -0.00021452883850746232 0.00010198617463661974 -0.00021452883850746232 0.00010543307151236906" free_energy=-3250.550815255959 pbc="T T T"
Si       3.90611953       5.02916110       3.59767948       0.02489682       0.02927636       0.04477472
Si       0.33080051       2.28054157       5.52525330      -0.03265496      -0.13150268      -0.01640004
Si       4.25077542       0.71307346       5.62456676       0.01108981      -0.05261715      -0.05590134
Si       2.20046691       7.59529823       7.50383877       0.06800246       0.06140298      -0.18202676
Si       3.80453404       7.05457818       9.10927830      -0.08244174      -0.01664144       0.02761967
Si       2.88737931       6.57905852       2.07247685       0.09397580       0.06698857       0.01157259
Si       0.61948089      -0.20374475      11.50321652      -0.02481155       0.56149809       0.32093831
Si      -0.18628342       9.00875459       3.13980887       0.14421378       0.20260620      -0.09894489
Si       4.58447908       7.90879900       0.93801499       0.11638473       0.07867353       0.05299758
Si       0.56862462       5.43911971      11.87440583      -0.10007157       0.03065141       0.07319778
Si       0.18270437       6.45945030       7.94722982      -0.00756502      -0.17485059       0.01284735
Si       2.69062900       2.43051071       5.60009569      -0.02889674      -0.04300310       0.07646185
Si       1.00005187       5.41088337       4.67927553      -0.07017756       0.03669561      -0.06123283
Si       1.53031906       7.50968473       3.77002636      -0.10366723       0.18721763       0.03223856
Si      -0.90822523       6.17291715       5.88439471      -0.06483466      -0.25908266      -0.02860245
Si       0.32080221       3.49459079       3.50278304      -0.05776748      -0.01905932       0.09762736
Si       2.85716201       4.73860487       5.96346014       0.07837349       0.14381672       0.01044429
Si       3.06579915       8.28622911       5.40983846      -0.02707726      -0.07364380       0.12169460
Si       2.87143820       3.07618209       0.45420486       0.05447335      -0.54511612      -0.45085015
Si       2.29852137       5.29676008       8.24946989       0.00855551      -0.08331024       0.01154377
20
Lattice="5.43774534591767 0.28593135568208816 -0.3388107531820881 0.22581256282189005 9.415471820925879 -0.7380832846047732 -2.37461645522562 -1.573400610155535 12.20593873807745" Properties=species:S:1:pos:R:3:forces:R:3 unique_starting_index=330 config_type=initial n_minim_iter=8 energy=-3250.5825450987704 stress="-0.00048044572441615686 0.0017984862983712255 -0.0009667700067047447 0.0017984862983712255 -0.0008952138600458833 0.0010926110777115638 -0.0009667700067047447 0.0010926110777115638 0.0010585336565024513" free_energy=-3250.5825450987704 pbc="T T T"
Si       3.90710595       4.99770621       3.58965013      -0.08849321       0.12710525       0.09968207
Si       0.31987296       2.26222642       5.54926933      -0.05315614      -0.17408417      -0.02289153
Si       4.22779562       0.72140440       5.62959709       0.09159795      -0.25703856      -0.14952339
Si       2.19260531       7.57317354       7.53154072      -0.04210159      -0.04429397      -0.02399033
Si       3.79537595       7.04215456       9.13870005      -0.22156865      -0.01436550       0.06323411
Si       2.88537289       6.58481108       2.09064286       0.17474830      -0.01137356       0.02970542
Si       0.56681852      -0.17224615      11.53282010       0.04838441       0.37245845       0.17767897
Si      -0.13883933       9.02735087       3.13510102       0.01409963       0.22082049       0.05804660
Si       4.61809108       7.87374221       0.94484769      -0.01357660       0.18937703      -0.03354472
Si       0.52561504       5.44194617      11.95593429       0.07955615       0.07984199       0.06136465
Si       0.16770052       6.42566006       7.99526581       0.14205073      -0.17908209      -0.02329450
Si       2.67887954       2.42291566       5.63718864      -0.12868820       0.14712379       0.10262298
Si       0.98871599       5.39795027       4.68564757      -0.08508130       0.11397645      -0.05548165
Si       1.52361949       7.50548048       3.79020486       0.04394986       0.11492611       0.05660133
Si      -0.90831767       6.11179293       5.92325746      -0.08231415      -0.35272210       0.02687863
Si       0.33378675       3.47003664       3.52294897       0.01004823      -0.14041006      -0.03199475
Si       2.81983460       4.73621824       5.98843622       0.23433651       0.07766535       0.06163725
Si       3.07491840       8.23578148       5.44515797      -0.09277438       0.09720717      -0.02830412
Si       2.88092992       3.06130241       0.45968486      -0.04464944      -0.35290235      -0.40527199
Si       2.28166628       5.27288710       8.28954064       0.01363191      -0.01422971       0.03684495
20
Lattice="5.44543449399672 0.26011393284735324 -0.33258889954570864 0.18009467348362942 9.391776222898173 -0.7595817328820471 -2.355324656631254 -1.5851979383401937 12.217080926704194" Properties=species:S:1:pos:R:3:forces:R:3 unique_starting_index=330 config_type=initial n_minim_iter=9 energy=-3250.5930675186537 stress="0.0013141701508728352 -0.0010877162490425124 0.00027404117178861305 -0.0010877162490425124 -0.0013755225928352237 -0.0007775547370212546 0.00027404117178861305 -0.0007775547370212546 0.0011015312548045373" free_energy=-3250.5930675186537 pbc="T T T"
Si       3.89594885       4.94936771       3.57860753      -0.09561727       0.17055440       0.04839213
Si       0.31717403       2.23360775       5.54951865      -0.02239786      -0.14337979      -0.05767065
Si       4.23818020       0.68180215       5.63589238      -0.02305866      -0.22964735      -0.17390992
Si       2.16940939       7.52732644       7.51995915       0.00565363      -0.11970423       0.13468328
Si       3.78180637       6.98628444       9.13388645      -0.41073999       0.07400205       0.04901648
Si       2.85795053       6.56470557       2.08529674       0.22720742      -0.09047659       0.09131760
Si       0.57684717      -0.19431351      11.53909023       0.23784758      -0.00087720       0.05828008
Si      -0.16122740       9.02993338       3.10122458       0.11255225       0.18122424       0.17899234
Si       4.59984006       7.82847312       0.93605161      -0.05128135       0.23855704      -0.13476260
Si       0.50750851       5.40458185      11.96922754       0.09562729       0.10279979       0.01547554
Si       0.14559016       6.38372359       7.99154157       0.22737715      -0.27297616      -0.08494411
Si       2.67997114       2.38683224       5.65071444      -0.13711213       0.11497613       0.08477803
Si       0.96562380       5.37274517       4.66980016       0.03351066       0.11000882       0.02243689
Si       1.48914884       7.48469290       3.77779483       0.03213442       0.15458676       0.03798980
Si      -0.93080620       6.06829965       5.91479751      -0.09598812      -0.23978009       0.06604605
Si       0.32992651       3.44529621       3.51947483      -0.12273110      -0.16521367      -0.07460693
Si       2.79783788       4.70105150       5.98858318       0.16182860       0.02440004       0.00718689
Si       3.05153728       8.17773867       5.44054277      -0.01640628       0.06990623      -0.07518972
Si       2.87460308       3.03446121       0.45855658      -0.06409262      -0.02869996      -0.22636458
Si       2.27063073       5.22281495       8.29158768      -0.09431360       0.04973954       0.03285341
20
Lattice="5.419611625682195 0.2600182281447927 -0.325885723952566 0.1788927374759251 9.407913901981843 -0.7325372368973468 -2.332186510830935 -1.5553984981267475 12.193206614252356" Properties=species:S:1:pos:R:3:forces:R:3 unique_starting_index=330 config_type=initial n_minim_iter=10 energy=-3250.6081792418 stress="-0.0015328547604407728 -0.0007506089782399235 0.0006057788934674085 -0.0007506089782399235 2.4570737353139416e-05 0.0008006851373476805 0.0006057788934674085 0.0008006851373476805 0.0005001648356337906" free_energy=-3250.6081792418 pbc="T T T"
Si       3.88066011       4.96950123       3.59117821      -0.09219572       0.12258140      -0.00858956
Si       0.32036898       2.24804385       5.54787340      -0.08734287      -0.11859728      -0.02722478
Si       4.22414990       0.69457740       5.63107595      -0.03685556      -0.22039878      -0.13617295
Si       2.16733046       7.56191848       7.53113070      -0.01902121      -0.10344921       0.15695427
Si       3.76804011       7.02550448       9.14561682      -0.28605817       0.04091661       0.03987788
Si       2.85032924       6.58441196       2.10434599       0.19052231      -0.15295161       0.08302934
Si       0.58720532      -0.16152873      11.52329806       0.15809107      -0.04619208      -0.03155396
Si      -0.15188018       9.06431399       3.12030575       0.07628560       0.15744340       0.13724514
Si       4.58144940       7.85038629       0.96003127      -0.02981523       0.25622236      -0.13313713
Si       0.51643995       5.44966614      11.97103464       0.09806885       0.06563781       0.03223731
Si       0.15558822       6.41236564       7.99825130       0.13923815      -0.18517688      -0.04005263
Si       2.67128686       2.40749202       5.65554521      -0.04939233       0.14947694       0.08884598
Si       0.96434588       5.39816267       4.67678415       0.01954222       0.06358296      -0.03887169
Si       1.48462056       7.51544328       3.79542870       0.09046489       0.12025962       0.02196252
Si      -0.92246789       6.08729210       5.92259999      -0.07048990      -0.14659554       0.10907761
Si       0.33132368       3.45863668       3.52394386      -0.08860946      -0.10806777      -0.07147184
Si       2.79273576       4.72845399       5.99650317       0.10575085      -0.09469015       0.03663163
Si       3.04294624       8.20721817       5.45947242      -0.00415905       0.03579920      -0.11805916
Si       2.86185950       3.03985971       0.46423035      -0.04545942       0.10651277      -0.16182576
Si       2.26780549       5.25428514       8.29809914      -0.06856502       0.05768623       0.06109781
20
Lattice="5.439373819659165 0.2838937134799807 -0.33800470359624213 0.22162482238013034 9.422071570457812 -0.7423824264118036 -2.375660734070499 -1.583173141909997 12.150903142957738" Properties=species:S:1:pos:R:3:forces:R:3 unique_starting_index=330 config_type=initial n_minim_iter=11 energy=-3250.6260660544194 stress="-0.0003577864559562162 0.0015127364395755172 -0.00047171857056946563 0.0015127364395755172 0.000707391826386891 0.00026687672533588704 -0.00047171857056946563 0.00026687672533588704 -0.0016879563337925199" free_energy=-3250.6260660544194 pbc="T T T"
Si       3.90422299       4.98950271       3.55990046      -0.09404482       0.03867067       0.02186411
Si       0.31569226       2.23678861       5.52070035      -0.02842639      -0.16033338      -0.03277708
Si       4.22736815       0.69824357       5.59114311      -0.08712586      -0.13936009      -0.10269462
Si       2.18902845       7.56976530       7.48496676      -0.15995059      -0.14492780       0.10449133
Si       3.77856610       7.04055575       9.09206116      -0.05949806      -0.04902541       0.05126362
Si       2.88927303       6.60375860       2.08266529       0.19608476      -0.06632478       0.05306465
Si       0.56419791      -0.17149222      11.47466242       0.04226650      -0.29792325      -0.24699515
Si      -0.11195579       9.08702184       3.09457402       0.05686330       0.15556888       0.14491292
Si       4.63089537       7.88691956       0.93216311      -0.08971293       0.19609766      -0.08719513
Si       0.51229367       5.44774930      11.91920354       0.17310916       0.03399172       0.07929851
Si       0.16919180       6.40169150       7.95667971       0.06210126      -0.07498252       0.03924374
Si       2.67392581       2.41682065       5.62904478      -0.06213801       0.09653826       0.08880037
Si       0.97724399       5.40748106       4.64413432       0.03370330       0.10038528      -0.07570152
Si       1.51105775       7.53700340       3.76767507       0.08486709      -0.01182846       0.02193320
Si      -0.91720198       6.06928681       5.89427237      -0.08905276      -0.10853951       0.07104835
Si       0.33755312       3.45468239       3.50293266      -0.04165842      -0.05595991      -0.12613039
Si       2.81061154       4.74072057       5.96012129       0.07530034      -0.13412839       0.00106914
Si       3.07537211       8.22204632       5.41927263       0.04021831       0.07553121      -0.09653084
Si       2.88314549       3.05366960       0.44310888      -0.07429568       0.49244271       0.03768772
Si       2.27634374       5.25877723       8.25457219       0.02138951       0.05410711       0.05334705
20
Lattice="5.43345090366929 0.27573167050348246 -0.3420129751774762 0.20826054885461454 9.3995565717986 -0.7520184862670278 -2.3772623149803733 -1.5853675102134825 12.190387915514464" Properties=species:S:1:pos:R:3:forces:R:3 unique_starting_index=330 config_type=initial n_minim_iter=12 energy=-3250.658860227767 stress="-0.0008333266416327619 0.0004623150659267423 -0.00034719931264649086 0.0004623150659267423 0.0010025356144699334 0.00033329256840755237 -0.00034719931264649086 0.00033329256840755237 -0.0001277673143267713" free_energy=-3250.658860227767 pbc="T T T"