10
Lattice="3.7117476159116967 -0.12572144578545524 1.0680426727759262e-17 -2.0437950524388335 6.068583776783167 -5.128088171629628e-16 -1.3746974013259377e-19 7.519261912955702e-16 8.8988486412066" Properties=species:S:1:pos:R:3:forces:R:3 unique_starting_index=14 config_type=initial n_minim_iter=1 energy=-1628.4096673851952 stress="-4.0502282247853754e-07 1.140920136620038e-05 9.522927551225945e-12 1.140920136620038e-05 2.4929628350333914e-05 1.471075183229685e-11 9.522927551225945e-12 1.471075183229685e-11 -1.550928709003652e-05" free_energy=-1628.4096673851952 pbc="T T T"
Si      -0.01580526       3.74248185      -0.29821957       0.00781317      -0.00152949      -0.00371664
Si       1.68375782       2.20038048      -0.29821957      -0.00781317       0.00152949      -0.00371664
Si       0.99056827       0.69394171       1.45676090       0.00341397      -0.00147013       0.00241357
Si       0.67738430       5.24892062       1.45676090      -0.00341397       0.00147013       0.00241357
Si       1.34474274       1.00860412       6.57902974      -0.00579399       0.00265410      -0.00160201
Si       0.32320982       4.93425821       6.57902974       0.00579399      -0.00265410      -0.00160201
Si       0.54821212       4.10926250       3.51479285      -0.00027976       0.00496294      -0.00118124
Si       1.11974044       1.83359983       3.51479285       0.00027976      -0.00496294      -0.00118124
Si      -1.37529010       4.25082407       5.06939080      -0.00104880       0.00384734       0.00408632
Si       3.04324267       1.69203826       5.06939080       0.00104880      -0.00384734       0.00408632
