6
Lattice="4.044199999999999 8.773474727009169e-16 -1.1012257768027404e-15 1.5100088955089568 4.3241517531053235 7.127634977056217e-16 1.3292708327416172 0.6052564670886298 7.134947913640982" Properties=species:S:1:pos:R:3:forces:R:3 unique_starting_index=260 config_type=initial n_minim_iter=1 energy=-953.8388850052128 stress="-0.49257686246339377 -0.3260566887910238 -0.42814329374873766 0.23974888446344644 0.11172361438607992 0.012332743129422612" pbc="T T T"
Si       2.88567260       4.09778445       4.22092531       0.32718998       0.75959404      -0.78018246
Si       3.65782399       1.18273222       6.00417711      -4.26961436       0.29022280       7.56311504
Si       2.59703452       1.89505713       4.56992058     -19.78329069      -0.32782885      -5.40282840
Si       2.33784996       3.48659522       6.81664718      11.76595069      -7.16986462      -3.29512926
Si       4.25862262       1.98482027       4.75690259      26.89674286      12.87974298     -17.87746128
Si       3.61625086       3.78795991       0.02549174     -14.93697849      -6.43186635      19.79248636
6
Lattice="4.069136525945978 -0.0006170356114242944 -0.005669251482814853 1.5186598574743966 4.341568814983577 -0.015112790941865139 1.3273728350601057 0.5860800535868742 7.1695222218961305" Properties=species:S:1:pos:R:3:forces:R:3 unique_starting_index=260 config_type=initial n_minim_iter=2 energy=-955.1074434241663 stress="-0.46470020251714256 -0.3019547235871118 -0.3966342337164079 0.22123615846782566 0.10629581441031735 0.014471504531281904" pbc="T T T"
Si       2.89695647       4.10145850       4.22711783       0.34155409       0.75076763      -0.63460820
Si       3.67135022       1.16898270       6.02844944      -3.95176087       0.47814919       6.78760401
Si       2.60436271       1.88862921       4.58454758     -18.73169550      -0.33424043      -5.00979821
Si       2.34336187       3.47926159       6.83911045      11.33262337      -6.83359001      -3.23064428
Si       4.28061868       1.97927240       4.76866847      25.34514359      11.85237711     -16.53234678
Si       3.63642939       3.80213920       0.01116844     -14.33586469      -5.91346347      18.61979346
6
Lattice="4.530097757123751 -0.01238426568719448 -0.11581822298916418 1.6781901158695949 4.656538488443015 -0.2970656153235648 1.2827936730718963 0.22954598130758314 7.799338347549096" Properties=species:S:1:pos:R:3:forces:R:3 unique_starting_index=260 config_type=initial n_minim_iter=3 energy=-968.8749936886136 stress="-0.11226333529348279 -0.04468088911684571 -0.0944197369749845 0.07551433939564255 0.029945517709596674 -0.00323301089517539" pbc="T T T"
Si       3.09971794       4.16218612       4.33285760       0.46726113       0.93645267       1.14876653
Si       3.91276215       0.91145614       6.46571610      -0.86352644       0.42651302       1.37979180
Si       2.73211003       1.76657037       4.84742338      -7.50433507       0.09868886      -1.52693634
Si       2.43759156       3.33714809       7.24338174       3.76522998      -1.73600549      -2.07448748
Si       4.68377031       1.87376146       4.97227178       8.85648112       3.33547646      -5.19061262
Si       4.00633093       4.05615530      -0.25652997      -4.72111072      -3.06112553       6.26347810
6
Lattice="4.7639569462603495 -0.0015179297952007873 -0.18410423113650112 1.7771261579273478 4.765596733439585 -0.4941179011173505 1.2408130607872276 -0.03525640299905353 8.113087286703777" Properties=species:S:1:pos:R:3:forces:R:3 unique_starting_index=260 config_type=initial n_minim_iter=4 energy=-971.3615286676869 stress="-0.049659800348079146 0.014256927391571259 -0.020625449919134193 0.027940377170763333 0.0010170493993894906 0.0015189255171618927" pbc="T T T"
Si       3.20778182       4.10453497       4.33792569       0.22674271       0.49180441       1.37804065
Si       4.02203982       0.71200067       6.66564645      -0.25300159      -0.06514583       0.43075275
Si       2.78202342       1.63957473       4.95564213      -4.77191034       0.36194254      -0.61615840
Si       2.48220652       3.15302765       7.40239021       1.74025999      -0.76090728      -1.54359081
Si       4.89103567       1.75971757       5.03702785       4.56899640       1.08896014      -2.03841580
Si       4.20481073       4.14234781      -0.43982905      -1.51108717      -1.11665400       2.38937161
6
Lattice="4.939048150914371 -0.004641437911003051 -0.19219702188370663 1.839161357338402 4.725040274035005 -0.5973663413493507 1.2836179338082916 -0.2071730014106351 8.236815607824973" Properties=species:S:1:pos:R:3:forces:R:3 unique_starting_index=260 config_type=initial n_minim_iter=5 energy=-972.0921945267812 stress="-0.01981745803742241 0.02142406228497408 0.0018993225955042706 0.012610668348556451 -0.002367232642939543 -0.00012403111790937904" pbc="T T T"
Si       3.32187266       3.96807163       4.32699858       0.16881065       0.27168798       1.18177368
Si       4.16537326       0.55809270       6.75187622      -0.12724064       0.27626172      -0.17854170
Si       2.85465151       1.51699857       4.99469435      -2.79502973       0.17509123      -0.04699937
Si       2.57906384       2.95978150       7.44287115       0.86203903      -0.44028614      -1.35739443
Si       5.09442988       1.63610001       5.06027206       2.46508651       0.42603781      -0.84375806
Si       4.34688414       4.09572858      -0.51813158      -0.57366582      -0.70879259       1.24491988
6
Lattice="5.05586060251115 -0.003375175763857052 -0.1805916544137511 1.884130288326188 4.615375799304179 -0.6581874862665575 1.3426767070091785 -0.32967892820705713 8.225359774276322" Properties=species:S:1:pos:R:3:forces:R:3 unique_starting_index=260 config_type=initial n_minim_iter=6 energy=-972.4794373253059 stress="-0.01147965484341448 0.013022284426897181 0.006318261705238215 0.008221875341907041 -0.0008120399187916644 -0.00023344059613605574" pbc="T T T"
Si       3.41950204       3.80061749       4.27934132       0.10228491       0.20870781       0.98560437
Si       4.28727855       0.44063842       6.73736507      -0.19302927       0.54942533      -0.28709866
Si       2.91478271       1.40213615       4.97058294      -1.49194420      -0.12568578       0.05619944
Si       2.67740577       2.76906819       7.38018885       0.65867261      -0.26177683      -1.44586465
Si       5.25810744       1.51980231       5.02856828       1.36029666       0.32250921      -0.41183951
Si       4.44508427       3.99227408      -0.55231595      -0.43628070      -0.69317973       1.10299902
6
Lattice="5.209265484780627 0.0005522145073084977 -0.17164745835497192 1.945607309335934 4.4759115918676615 -0.7417188968180324 1.4094662048011188 -0.4914533158182298 8.10095427468353" Properties=species:S:1:pos:R:3:forces:R:3 unique_starting_index=260 config_type=initial n_minim_iter=7 energy=-972.8283709197225 stress="0.002853661955674267 0.009946422091766924 0.008567834040857931 0.005840897095717049 -0.0007361839897389856 0.0003020525821021245" pbc="T T T"
Si       3.54327571       3.58338273       4.15228602       0.02086279       0.19685132       0.71635327
Si       4.43624815       0.29420354       6.61684101      -0.28674764       0.47767302      -0.20883480
Si       2.98857778       1.24889762       4.86817131      -0.55298767      -0.31205954       0.01832854
Si       2.80282697       2.52456572       7.17940667       0.57689891      -0.06221516      -1.51548631
Si       5.46682580       1.37062328       4.91071190       0.59565628       0.38229837      -0.04796170
Si       4.57284904       3.85576919      -0.59716111      -0.35368268      -0.68254801       1.03760100
6
Lattice="5.164209807890135 -0.003084864272760001 -0.15767801020712488 1.9248957338745702 4.35436360652046 -0.7990247983110639 1.4187582087386805 -0.6126342220797742 7.90616828039494" Properties=species:S:1:pos:R:3:forces:R:3 unique_starting_index=260 config_type=initial n_minim_iter=8 energy=-973.0871981922344 stress="-0.003288366254568017 0.004426795964082755 0.003436495822074295 0.008065640755079088 0.0003263152031677625 -0.0026872619647280867" pbc="T T T"
Si       3.52149876       3.40447704       4.00348305      -0.09498941       0.23424291       0.58208896
Si       4.40818307       0.18008331       6.44467101      -0.38427075       0.04054550       0.15414778
Si       2.96043751       1.12257693       4.73058243      -0.50718787      -0.38562968      -0.30833924
Si       2.81399197       2.33598669       6.92388852       0.83880892      -0.04007111      -1.33834810
Si       5.44800776       1.24935671       4.76727188       0.67904900       0.61935092      -0.22568213
Si       4.51926309       3.72912148      -0.61559708      -0.53140989      -0.46843854       1.13613274
6
Lattice="5.201630098130522 0.025442663521081432 -0.16355842205589788 1.9693698772050243 4.336529159889991 -0.8762102499154962 1.4249526943736104 -0.7309797768010051 7.856597439672529" Properties=species:S:1:pos:R:3:forces:R:3 unique_starting_index=260 config_type=initial n_minim_iter=9 energy=-973.2489219038812 stress="0.001517386526476073 0.00760387901260368 0.00380195687833805 0.0031759250823753683 0.0003888788483191902 -0.002636157262461514" pbc="T T T"
Si       3.56841311       3.32407178       3.91426753      -0.12679060       0.14135328       0.59898434
Si       4.43356763       0.09327285       6.38997901      -0.33962555       0.03625554      -0.01400552
Si       2.97987633       1.04482228       4.66792833      -0.35782657      -0.48186492      -0.49981076
Si       2.86964823       2.21935841       6.80277363       0.80686922       0.02521759      -1.05805484
Si       5.51059630       1.19505095       4.69374692       0.50422999       0.53666543       0.05738795
Si       4.56590610       3.71554666      -0.66494906      -0.48685648      -0.25762692       0.91549883
6
Lattice="5.179164496316422 0.06113595689816826 -0.1711651510598296 1.999145842426422 4.262999417552529 -0.9082145976850821 1.4094903315281728 -0.7795268886688193 7.774412452728778" Properties=species:S:1:pos:R:3:forces:R:3 unique_starting_index=260 config_type=initial n_minim_iter=10 energy=-973.3860256230375 stress="-0.0014830413441360053 -0.000320525899050853 -0.003499771344237675 0.002221864041917236 0.001383804020118069 -0.005571630006224233" pbc="T T T"
Si       3.57615382       3.23650157       3.84801423      -0.22309983       0.04988764       0.56876649
Si       4.40340618       0.06110288       6.31133503      -0.25017019      -0.19568798       0.04271898
Si       2.96510182       0.99282436       4.59542016      -0.30750807      -0.62724833      -0.68680111
Si       2.89817325       2.13383199       6.67931273       0.74713631       0.19901245      -0.69861083
Si       5.50936754       1.17043010       4.61883586       0.50663787       0.73838493       0.01974129
Si       4.56370440       3.66010611      -0.67609256      -0.47299609      -0.16434872       0.75418518
6
Lattice="5.195248350591489 0.11109172130475493 -0.18955352863817448 2.05856502774512 4.2888596322247725 -0.9386009152290447 1.3898117131619956 -0.8009076489515262 7.825269285331668" Properties=species:S:1:pos:R:3:forces:R:3 unique_starting_index=260 config_type=initial n_minim_iter=11 energy=-973.4605386662869 stress="0.0043558754427466305 0.006205681456654407 0.0032538437262519216 0.0005063117615983081 0.0003352877063717967 -0.0020019959354141722" pbc="T T T"
Si       3.61404469       3.25342342       3.85706853      -0.09148724       0.00129252       0.59935944
Si       4.40048534       0.07255533       6.34091381      -0.21829308      -0.19019634      -0.05429317
Si       2.97209508       0.99730904       4.60572594      -0.30801899      -0.61974929      -0.68546065
Si       2.93531713       2.13944172       6.69368883       0.59918664       0.19006463      -0.70542223
Si       5.54105501       1.21182975       4.62309645       0.36192360       0.74359931       0.23929428
Si       4.61287995       3.70312684      -0.69838978      -0.34331092      -0.12501084       0.60652233
6
Lattice="5.167054967816477 0.12204720637339145 -0.19181676910453885 2.059752140445014 4.260647312837266 -0.9374701713136161 1.378191648364307 -0.7985681136495657 7.792825940487594" Properties=species:S:1:pos:R:3:forces:R:3 unique_starting_index=260 config_type=initial n_minim_iter=12 energy=-973.5052238929927 stress="0.00120399212314809 0.0018590517191434145 0.00014691292056290368 0.0011159820147370924 0.0010628474384760415 -0.0029824649153460205" pbc="T T T"
Si       3.60102924       3.23057593       3.84397123      -0.12856288      -0.03008225       0.60084291
Si       4.37241259       0.07476591       6.31274819      -0.17202457      -0.29356690      -0.02338595
Si       2.95412192       0.98935854       4.58046893      -0.28856797      -0.68661697      -0.72072271
Si       2.93194847       2.12714572       6.65598930       0.57906535       0.25961702      -0.59804386
Si       5.51771282       1.21555087       4.60026532       0.38237544       0.88423614       0.17995162
Si       4.59348500       3.68200135      -0.69294807      -0.37228536      -0.13358704       0.56135799
6
Lattice="5.160018606136582 0.1393667708983811 -0.19979008479766155 2.0756434061032603 4.259038037113197 -0.946160462541768 1.3644040898649152 -0.8034328059849232 7.790399759929031" Properties=species:S:1:pos:R:3:forces:R:3 unique_starting_index=260 config_type=initial n_minim_iter=13 energy=-973.5443547772097 stress="0.0021114752667723805 0.0019532309158911717 0.0006373624219772555 0.0009667531980007999 0.0010215230998464617 -0.002386426749602329" pbc="T T T"
Si       3.60299045       3.22736167       3.83950403      -0.09705900      -0.05255520       0.61853487
Si       4.35713368       0.07785516       6.30572915      -0.14009451      -0.33364023      -0.04166811
Si       2.94565903       0.98730774       4.56927240      -0.28272809      -0.70437604      -0.72856888
Si       2.93719904       2.12654126       6.64031972       0.51719194       0.28766969      -0.55498514
Si       5.51469501       1.23077381       4.58801831       0.34321076       0.94185611       0.21440479
Si       4.59770754       3.68687272      -0.69854111      -0.34052110      -0.13895433       0.49228247
6
Lattice="5.127255179779038 0.17431786396075546 -0.21814153728925834 2.1007808288547025 4.249896382788758 -0.964424208893045 1.326489607495808 -0.8138806992097334 7.7722235858015045" Properties=species:S:1:pos:R:3:forces:R:3 unique_starting_index=260 config_type=initial n_minim_iter=14 energy=-973.6392656425353 stress="0.003974970960661207 0.0002474006811745334 0.00018154230551277605 0.0011111842751439283 0.0014312977506102849 -0.002116087944548243" pbc="T T T"
Si       3.59095407       3.21359756       3.82525252       0.00620419      -0.12497910       0.66784114
Si       4.30603215       0.08085433       6.27931286      -0.06188926      -0.45577951      -0.06016338
Si       2.91326124       0.97891559       4.53500127      -0.30094199      -0.72672884      -0.75597276
Si       2.93503879       2.12331407       6.59266328       0.39928418       0.35799750      -0.42471727
Si       5.48727912       1.26290043       4.55221498       0.26329695       1.10971847       0.25125015
Si       4.58829859       3.69038648      -0.71035124      -0.30595407      -0.16022853       0.32176211
6
Lattice="5.100508627015801 0.1877284021912098 -0.22829468551402157 2.1051331531222006 4.2553337891217895 -0.9752927930333041 1.3017928117842739 -0.821090889612444 7.768971558061498" Properties=species:S:1:pos:R:3:forces:R:3 unique_starting_index=260 config_type=initial n_minim_iter=15 energy=-973.6814989734379 stress="0.004166099114007873 3.443230609329529e-05 0.0005417233639465091 0.001389097758621681 0.0018185562574453112 -0.0018581975377356481" pbc="T T T"
Si       3.57388929       3.21307746       3.81958884       0.04560534      -0.14105995       0.70154074
Si       4.26981875       0.07954108       6.27025667      -0.04379870      -0.50244418      -0.07019470
Si       2.88822109       0.97624719       4.52137103      -0.28521995      -0.71195530      -0.76081683
Si       2.91964153       2.12579436       6.57541509       0.38968358       0.35862820      -0.39470609
Si       5.45725872       1.27863729       4.53673292       0.22465460       1.16031751       0.26826262
Si       4.57227538       3.69928053      -0.72077853      -0.33092487      -0.16348629       0.25591426
6
Lattice="5.067323908726515 0.20212789162789813 -0.24314129695742917 2.1081390276288268 4.26303379141324 -0.9912619438517839 1.2668474843145217 -0.833235515769325 7.760291653079418" Properties=species:S:1:pos:R:3:forces:R:3 unique_starting_index=260 config_type=initial n_minim_iter=16 energy=-973.7341529946937 stress="0.004739668229173045 -0.00019205577459225612 0.0007487957841520562 0.0017544006622171745 0.002432317357523585 -0.001671749132663226" pbc="T T T"
Si       3.54854205       3.21072225       3.80734243       0.07490804      -0.14202961       0.74249166
Si       4.22114654       0.07384874       6.25350005      -0.00079686      -0.56675684      -0.07069616
Si       2.85411852       0.97096454       4.50020283      -0.24908186      -0.69503979      -0.77361989
Si       2.89444609       2.12617296       6.54844912       0.38740837       0.36153197      -0.34681087
Si       5.41553642       1.29487434       4.51186143       0.17606704       1.20883611       0.28767568
Si       4.55013403       3.71009657      -0.73810190      -0.38850472      -0.16654185       0.16095958
6
Lattice="5.030235155969838 0.2154765322624526 -0.2622842236722587 2.1085636360101065 4.272375504098861 -1.0115365663486209 1.2228819457120172 -0.8498980830562135 7.748659601722689" Properties=species:S:1:pos:R:3:forces:R:3 unique_starting_index=260 config_type=initial n_minim_iter=17 energy=-973.7906781880772 stress="0.0046209443887700605 -0.0005005550046738239 0.0008243924902821536 0.0023200384262219587 0.0029511864446299585 -0.0012717758329359849" pbc="T T T"
Si       3.51501384       3.20662524       3.78927553       0.08957315      -0.12609558       0.77924524
Si       4.16284491       0.06342020       6.23144597       0.03323033      -0.63270745      -0.06723800
Si       2.81313254       0.96338070       4.47437436      -0.19777927      -0.67910658      -0.79606951
Si       2.85874513       2.12331045       6.51608714       0.40101892       0.36221845      -0.28746442
Si       5.36329465       1.30840739       4.48015346       0.12626949       1.25058744       0.30932724
Si       4.52271904       3.72185057      -0.76253951      -0.45231263      -0.17489628       0.06219945
6
Lattice="4.994894781604482 0.22641803686869316 -0.2849023376972866 2.1070672823832766 4.283599376646241 -1.037307058126282 1.1729997495019404 -0.8738899085627542 7.736388224506804" Properties=species:S:1:pos:R:3:forces:R:3 unique_starting_index=260 config_type=initial n_minim_iter=18 energy=-973.8497990723674 stress="0.004105649075521968 -0.0005609611325199832 0.0008784532555470599 0.0030389419068454077 0.0030492708985284693 -0.0005757386020054357" pbc="T T T"
Si       3.47657791       3.19916238       3.76581681       0.09117962      -0.09025487       0.80984850
Si       4.10061112       0.04511040       6.20640877       0.04568362      -0.69051360      -0.07083455
Si       2.76922004       0.95152251       4.44502872      -0.14379831      -0.65894661      -0.82892921
Si       2.81641426       2.11462967       6.47982223       0.42543893       0.35250326      -0.21162270
Si       5.30698220       1.31641840       4.44327959       0.07752987       1.27554654       0.33804718
Si       4.49367511       3.73389071      -0.79456886      -0.49603372      -0.18833472      -0.03650921
6
Lattice="4.964075833175786 0.23275717071693078 -0.30766488102275763 2.1023381617822836 4.294343663913124 -1.0680516580843609 1.1236600807185262 -0.9073394777609683 7.724896173709884" Properties=species:S:1:pos:R:3:forces:R:3 unique_starting_index=260 config_type=initial n_minim_iter=19 energy=-973.9107421832138 stress="0.0049984829831610355 -0.0003469655292561631 0.001011771747837056 0.0036224192411636 0.002925156719833896 -0.00011009718966933188" pbc="T T T"
Si       3.43637562       3.18474821       3.73877574       0.08047158      -0.03871055       0.83477309
Si       4.04092355       0.01560125       6.18146440       0.03634828      -0.73826445      -0.08784914
Si       2.72681883       0.93280744       4.41395687      -0.08471472      -0.65014280      -0.86084804
Si       2.77284211       2.09625151       6.44172932       0.44672271       0.34287280      -0.12734427
Si       5.25232616       1.31475220       4.40496194       0.03801841       1.28516572       0.36735086
Si       4.46391602       3.74296497      -0.83189600      -0.51684626      -0.20092072      -0.12608250
6
Lattice="4.9266133586780745 0.2357410458085163 -0.3287031511999053 2.091540985324397 4.303174097916246 -1.1017713422321505 1.0746766657333529 -0.9479556499447029 7.713526008556435" Properties=species:S:1:pos:R:3:forces:R:3 unique_starting_index=260 config_type=initial n_minim_iter=20 energy=-973.9752913897034 stress="0.0037390148024209592 -0.000961060167537917 0.0008265108094785958 0.0041810295150319305 0.003066954580220854 0.00021012403434435297" pbc="T T T"
Si       3.38959286       3.16390495       3.70971234       0.04979040       0.01470481       0.85282231
Si       3.97668548      -0.02257734       6.15726751       0.00436512      -0.78473926      -0.11015989
Si       2.68196419       0.90846724       4.38195554      -0.01281369      -0.66259027      -0.90750559
Si       2.72515130       2.06933686       6.40276720       0.48673543       0.33746935      -0.03075469
Si       5.18989763       1.30509694       4.36698117       0.01719159       1.29627196       0.38525586
Si       4.42545843       3.74863025      -0.87176133      -0.54526884      -0.20111659      -0.18965800
6
Lattice="4.899476014872993 0.23719914682698715 -0.35068195162058474 2.082967576375545 4.31629466957035 -1.1401412502788009 1.0271993029093276 -0.9954866198335857 7.705615114806668" Properties=species:S:1:pos:R:3:forces:R:3 unique_starting_index=260 config_type=initial n_minim_iter=21 energy=-974.0402246017514 stress="0.002524068250130954 -0.0004443062644190201 0.0010994658675855136 0.004247282842136915 0.0029088427840765203 0.00032497472480871013" pbc="T T T"
Si       3.34701435       3.14245391       3.67867127       0.02002625       0.08038798       0.85969652
Si       3.91930619      -0.06726508       6.13490572      -0.03486632      -0.81649783      -0.14328091
Si       2.64283680       0.88114243       4.34971750       0.03313973      -0.67684515      -0.94600169
Si       2.68129367       2.03844275       6.36483202       0.50554260       0.33142434       0.05854977
Si       5.13662237       1.29158285       4.32865560       0.01289297       1.27643483       0.40593422
Si       4.39429557       3.75716392      -0.91660355      -0.53673523      -0.19490417      -0.23489791
6
Lattice="4.86487768100447 0.2389467673006162 -0.3914696810262129 2.0719179705755235 4.335618111310316 -1.214114466042709 0.944129444271265 -1.0892278018632184 7.6857321813173565" Properties=species:S:1:pos:R:3:forces:R:3 unique_starting_index=260 config_type=initial n_minim_iter=22 energy=-974.1610096762238 stress="0.0003487397439361023 -0.00028396572528500286 0.001186240255414584 0.0037837467999186645 0.0021081126679846187 0.00012701892278831498" pbc="T T T"
Si       3.27702768       3.09495193       3.61652365      -0.03129597       0.20508001       0.83190187
Si       3.82541750      -0.15758702       6.08894507      -0.09280369      -0.85171081      -0.20794256
Si       2.58109466       0.82536261       4.28389414       0.03714719      -0.73901325      -1.03921082
Si       2.60970935       1.97216068       6.28919687       0.49889531       0.35224669       0.23524649
Si       5.05447783       1.26093860       4.25290536       0.04793305       1.21126531       0.42525491
Si       4.34897889       3.76845426      -1.00328552      -0.45987588      -0.17786795      -0.24524989
6
Lattice="4.859987518368923 0.24696238412758623 -0.4505357054803137 2.0786625812462125 4.3699978995523425 -1.3365955553218951 0.8395149705601649 -1.247907108759446 7.648003730524289" Properties=species:S:1:pos:R:3:forces:R:3 unique_starting_index=260 config_type=initial n_minim_iter=23 energy=-974.3495978859673 stress="0.006376865455575568 0.003510848532829997 0.004722243120246287 0.0004399625908392429 -0.0004041114267604243 0.0002603123201200552" pbc="T T T"
Si       3.20876477       3.01860828       3.51546967       0.01874791       0.39118691       0.70345249
Si       3.72700878      -0.31235465       6.01455693      -0.10246725      -0.82866151      -0.29545116
Si       2.52462130       0.73264249       4.16605974      -0.11447181      -0.79969774      -1.07429544
Si       2.54467440       1.86087810       6.16603155       0.35320436       0.43332701       0.39422480
Si       4.99092830       1.21686685       4.12952688       0.08573095       0.92579556       0.47968129
Si       4.32439246       3.79229678      -1.14356811      -0.24074416      -0.12195024      -0.20761199
6
Lattice="4.757416431320215 0.2387358749026843 -0.43591296328443463 2.03156898346362 4.318539181079031 -1.3213588070656044 0.8303681928824593 -1.2412516409594403 7.532350806451097" Properties=species:S:1:pos:R:3:forces:R:3 unique_starting_index=260 config_type=initial n_minim_iter=24 energy=-974.4002221054899 stress="-0.023503437413875856 -0.011406658067228749 -0.004184483682720882 0.002421614254621 0.001607944807925459 0.002795453572275763" pbc="T T T"
Si       3.14145115       2.97731064       3.47457022      -0.31045866       0.34141397       0.57406295
Si       3.65080317      -0.33393058       5.92973372      -0.29876224      -0.68739868      -0.30467707
Si       2.47549208       0.71236808       4.08352909      -0.00608813      -1.07809795      -1.33007896
Si       2.50690208       1.83729366       6.07371174       0.66856566       0.39916819       0.62625010
Si       4.89293939       1.20870730       4.07239788       0.28020515       0.97130596       0.32160773
Si       4.22395763       3.74359203      -1.12940317      -0.33346177       0.05360851       0.11283524
6
Lattice="4.836702374803186 0.23397620440584585 -0.4445166153493091 2.056083335480086 4.35212420459106 -1.3383084778904757 0.8405370919030147 -1.2605331984603958 7.555355856084734" Properties=species:S:1:pos:R:3:forces:R:3 unique_starting_index=260 config_type=initial n_minim_iter=25 energy=-974.4545463990335 stress="0.0016965088362059376 0.0013532261161747186 0.003766045110659792 0.0013695053469175201 0.0003349398228958728 -0.0002922050998683604" pbc="T T T"
Si       3.18089455       2.99315265       3.47580590      -0.06906887       0.39075072       0.64063808
Si       3.70511862      -0.35121523       5.94237739      -0.15556235      -0.70607767      -0.36387451
Si       2.51228367       0.70840236       4.08443222      -0.11171573      -0.85654820      -1.03865298
Si       2.54291550       1.84294100       6.08482345       0.43097322       0.38932789       0.38540706
Si       4.97031090       1.21114636       4.07298187       0.14682558       0.85649922       0.39924794
Si       4.28394658       3.76868856      -1.14658932      -0.24145185      -0.07395197      -0.02276559
6
Lattice="4.831309234365688 0.2348983839309968 -0.44498427135614516 2.05505567962108 4.349600576070377 -1.340678781921338 0.838077398908277 -1.264254463082533 7.537082235147584" Properties=species:S:1:pos:R:3:forces:R:3 unique_starting_index=260 config_type=initial n_minim_iter=26 energy=-974.4707382756185 stress="0.00016110887234903755 0.0006426083747904375 0.003119743184879767 0.0012567489034541828 0.00043865063518781826 0.00017540151333450348" pbc="T T T"
Si       3.17653590       2.98898317       3.46512554      -0.08732504       0.38302487       0.62495226
Si       3.69880261      -0.35667828       5.92626999      -0.16207469      -0.69331948      -0.36210032
Si       2.50888520       0.70409985       4.06857085      -0.10468613      -0.87634313      -1.06465597
Si       2.54214655       1.83894816       6.06686079       0.43759671       0.39654000       0.40958972
Si       4.96538593       1.21140808       4.05954341       0.15695258       0.84434958       0.38515004
Si       4.27860059       3.76646522      -1.14901569      -0.24046343      -0.05425183       0.00706427
6
Lattice="4.8306576866681175 0.23450775785113032 -0.44638591070565503 2.0543947406795735 4.347968215610367 -1.3447266596116365 0.8353319520797283 -1.2704064929947403 7.514176676930755" Properties=species:S:1:pos:R:3:forces:R:3 unique_starting_index=260 config_type=initial n_minim_iter=27 energy=-974.4944329865048 stress="0.0001774029336648768 0.0005096226128771986 0.002872906620102557 0.001150592548592405 0.00040298947846014105 0.0004007669796516549" pbc="T T T"
Si       3.17252834       2.98387767       3.45132418      -0.09020772       0.37930129       0.60972439
Si       3.69434766      -0.36604780       5.90544377      -0.15848234      -0.67327445      -0.36482382
Si       2.50679064       0.69745264       4.04698675      -0.10903026      -0.88097867      -1.07190974
Si       2.54309862       1.83377653       6.04389624       0.43107325       0.40006431       0.41822641
Si       4.96457319       1.21110942       4.04150622       0.15746855       0.81559506       0.37138316
Si       4.27516529       3.76402527      -1.15311007      -0.23082147      -0.04070755       0.03739960
6