24
Lattice="7.797632338078774 -0.8768518915211189 -0.9201678353983603 2.093115568037553 8.349367034518677 0.4043615659521387 0.9552648540008122 2.176696120222477 7.845855478239186" Properties=species:S:1:pos:R:3:forces:R:3 unique_starting_index=364 config_type=initial n_minim_iter=1 energy=-3908.974136964305 stress="8.712561324864364e-06 -2.18238913903559e-06 -3.706739468268176e-06 -2.18238913903559e-06 1.1565626636441735e-05 -4.991388576894257e-07 -3.706739468268176e-06 -4.991388576894257e-07 8.127724834486385e-07" free_energy=-3908.974136964305 pbc="T T T"
Si       1.73041747       0.53691612       2.04505313      -0.00424445      -0.00415892      -0.00403906
Si       8.78024934       8.16161626       7.05809093       0.00098089       0.00209293       0.00223273
Si       8.47859221       6.60564265       3.60456465       0.00089695       0.00190319       0.00002835
Si       2.48775001       4.00590202       1.12546497      -0.00467584      -0.00204759      -0.00288841
Si       2.10153209       5.47310841       7.22736093      -0.00334907       0.00191376       0.00012227
Si       8.78375152       2.59310659       3.57849096       0.00403824      -0.00157243      -0.00203166
Si       4.60041020       5.76251028       3.93715516       0.00628193       0.00348686      -0.00153377
Si       5.47259058       4.11181270       2.40964494      -0.00288169       0.00079476       0.00281888
Si       2.97721430       4.46885548       5.29525512       0.00222640       0.00276057      -0.00030013
Si       7.75799768       4.49312010       2.63444757       0.00486746       0.00361760       0.00115315
Si       9.83523601      10.08135746       6.06309591       0.00056046       0.00145611       0.00270110
Si       0.89645218       1.04568295      -0.05168899       0.00195103       0.00080798       0.00662992
Si       5.54343388       6.57408132       8.06546296       0.00194788      -0.00301402       0.00292847
Si       5.57479404       0.25473755       2.23343613      -0.00287325      -0.00349689      -0.00011071
Si       4.86553913       2.14272083       3.54643992      -0.00017761      -0.00101042      -0.00100418
Si       5.99358421       5.47741031       5.94410239       0.00045073       0.00047756      -0.00022226
Si       5.79661374       3.08624994       5.70210017      -0.00131127      -0.00545163      -0.00656508
Si       3.72516247       2.33952042       6.52255384      -0.00499502       0.00287696      -0.00080245
Si       2.71890174       7.13705986       3.43886419      -0.00107647      -0.00133633       0.00102594
Si       9.23431029       5.09122056       0.88303626       0.00322469      -0.00225613       0.00235111
Si       8.24662440       6.18894562       5.85384674      -0.00287984       0.00175428       0.00239594
Si       2.54003648       2.49775591       2.97756988       0.00230809      -0.00036355      -0.00267832
Si       5.67960000       7.48713432       2.21066602       0.00042556       0.00138756      -0.00048822
Si       5.65604080       6.51056572       0.07212938      -0.00169578      -0.00062221      -0.00172362
