18
Lattice="5.267370543461554 0.0 0.0 0.0 5.5960967225866804 -2.1244570464366274e-19 0.0 4.2657904176704134e-19 11.236647884035794" Properties=species:S:1:pos:R:3:forces:R:3 unique_starting_index=36 config_type=initial n_minim_iter=1 energy=-2927.144170206631 stress="0.00908421884714187 4.245280034370932e-12 -5.699045296391053e-12 4.245280034370932e-12 0.01803089057893719 1.343520822109365e-11 -5.699045296391053e-12 1.343520822109365e-11 0.00809564197201596" free_energy=-2927.144170206631 pbc="T T T"
Si       3.61076477       5.38997400      10.58230741      -0.25668091      -0.06097578      -0.27653743
Si       1.65660577       5.38997400       0.65434047       0.25668091      -0.06097578       0.27653743
Si       4.29029105       5.38997400       4.96398347       0.25668091      -0.06097578      -0.27653743
Si       0.97707950       5.38997400       6.27266441      -0.25668091      -0.06097578       0.27653743
Si       0.27766255       1.66173641       1.41320780       0.30332581      -0.11754054       0.18360848
Si       4.98970800       1.66173641       9.82344009      -0.30332581      -0.11754054      -0.18360848
Si       2.35602272       1.66173641       7.03153174      -0.30332581      -0.11754054       0.18360848
Si       2.91134782       1.66173641       4.20511614       0.30332581      -0.11754054      -0.18360848
Si       2.00830649       3.77457868       3.01328140      -0.08065377       0.26261381      -0.29778600
Si       3.25906406       3.77457868       8.22336649       0.08065377       0.26261380       0.29778600
Si       0.62537878       3.77457868       8.63160534       0.08065377       0.26261380      -0.29778600
Si       4.64199176       3.77457868       2.60504255      -0.08065377       0.26261381       0.29778600
Si       3.64026448       0.38551757       2.11335156      -0.08098642      -0.07107260      -0.29608849
Si       1.62710607       0.38551757       9.12329632       0.08098642      -0.07107260       0.29608849
Si      -1.00657921       0.38551757       7.73167550       0.08098642      -0.07107260      -0.29608849
Si       6.27394975       0.38551757       3.50497238      -0.08098642      -0.07107260       0.29608849
Si      -0.00000000       3.70994793       0.00000000       0.00000000      -0.02604977       0.00000000
Si       2.63368527       3.70994793       5.61832394      -0.00000000      -0.02604977      -0.00000000
18
Lattice="5.227320753719523 0.0 0.0 0.0 5.511958757453836 -2.140262942386429e-19 0.0 4.1408983929550804e-19 11.16047735191227" Properties=species:S:1:pos:R:3:forces:R:3 unique_starting_index=36 config_type=initial n_minim_iter=2 energy=-2927.2166330813166 stress="-0.005800043894792462 7.814423556194395e-12 -5.509318464909683e-12 7.814423556194395e-12 0.005226929944154026 2.016569097737512e-13 -5.509318464909683e-12 2.016569097737512e-13 -0.005826361989406723" free_energy=-2927.2166330813166 pbc="T T T"
Si       3.58266462       5.30878277      10.50987577      -0.22094453      -0.08666518      -0.29046017
Si       1.64465614       5.30878277       0.65060158       0.22094453      -0.08666518       0.29046017
Si       4.25831651       5.30878277       4.92963710       0.22094453      -0.08666518      -0.29046017
Si       0.96900424       5.30878277       6.23084025      -0.22094453      -0.08666518       0.29046017
Si       0.27631495       1.63645833       1.40409059       0.39844751      -0.00573545       0.15626120
Si       4.95100580       1.63645833       9.75638676      -0.39844751      -0.00573545      -0.15626119
Si       2.33734542       1.63645833       6.98432927      -0.39844751      -0.00573545       0.15626119
Si       2.88997533       1.63645833       4.17614808       0.39844751      -0.00573544      -0.15626120
Si       1.99283355       3.71848360       2.99210483      -0.09237121       0.14129318      -0.35459252
Si       3.23448721       3.71848360       8.16837252       0.09237121       0.14129318       0.35459252
Si       0.62082683       3.71848360       8.57234351       0.09237121       0.14129318      -0.35459252
Si       4.60649392       3.71848360       2.58813385      -0.09237121       0.14129318       0.35459252
Si       3.61238231       0.37954369       2.09827968      -0.14249547       0.01480677      -0.32840201
Si       1.61493844       0.37954369       9.06219767       0.14249547       0.01480678       0.32840201
Si      -0.99872194       0.37954369       7.67851836       0.14249547       0.01480677      -0.32840201
Si       6.22604269       0.37954369       3.48195900      -0.14249547       0.01480677       0.32840201
Si      -0.00000000       3.65410335       0.00000000      -0.00000000      -0.12739866      -0.00000000
Si       2.61366038       3.65410335       5.58023868       0.00000000      -0.12739866      -0.00000000
18
Lattice="5.316775838177733 0.0 0.0 0.0 5.2958317632048075 -1.9789724203999725e-19 0.0 4.377542018675778e-19 11.363363582188628" Properties=species:S:1:pos:R:3:forces:R:3 unique_starting_index=36 config_type=initial n_minim_iter=3 energy=-2927.295509845613 stress="-0.00014525526249294774 6.23454473544226e-12 -1.7927390336970635e-12 6.23454473544226e-12 -0.007455397693940357 -1.0967498920932308e-12 -1.7927390336970635e-12 -1.0967498920932308e-12 -0.00326766093803164" free_energy=-2927.295509845613 pbc="T T T"
Si       3.64020804       5.09935248      10.69614556      -0.61657994      -0.18954578      -0.12921578
Si       1.67656780       5.09935248       0.66721802       0.61657994      -0.18954578       0.12921578
Si       4.33495572       5.09935248       5.01446377       0.61657994      -0.18954578      -0.12921578
Si       0.98182012       5.09935248       6.34889981      -0.61657994      -0.18954578       0.12921578
Si       0.28737800       1.57190220       1.43229225       0.30398467       0.06652387       0.33518822
Si       5.02939784       1.57190220       9.93107133      -0.30398467       0.06652388      -0.33518822
Si       2.37100992       1.57190220       7.11397404      -0.30398467       0.06652388       0.33518822
Si       2.94576592       1.57190220       4.24938954       0.30398467       0.06652387      -0.33518822
Si       2.02543870       3.57518966       3.04076624      -0.05440860       0.01953642      -0.58555102
Si       3.29133714       3.57518966       8.32259734       0.05440860       0.01953643       0.58555102
Si       0.63294922       3.57518966       8.72244803       0.05440860       0.01953643      -0.58555102
Si       4.68382662       3.57518966       2.64091555      -0.05440860       0.01953642       0.58555102
Si       3.67201455       0.36465911       2.13105722      -0.27392261       0.19441955      -0.42787798
Si       1.64476128       0.36465911       9.23230636       0.27392261       0.19441955       0.42787798
Si      -1.01362663       0.36465911       7.81273901       0.27392261       0.19441955      -0.42787798
Si       6.33040247       0.36465911       3.55062457      -0.27392261       0.19441955       0.42787798
Si      -0.00000000       3.50912829       0.00000000       0.00000000      -0.18186815       0.00000000
Si       2.65838792       3.50912829       5.68168179       0.00000000      -0.18186815       0.00000000
18
Lattice="5.2278321223180955 0.0 0.0 0.0 5.269796575866123 -2.349384001215934e-19 0.0 3.837694004987166e-19 11.919314307756686" Properties=species:S:1:pos:R:3:forces:R:3 unique_starting_index=36 config_type=initial n_minim_iter=4 energy=-2927.5483421476943 stress="-0.0007928796540748241 -2.5693281146429806e-12 8.403575647813066e-12 -2.5693281146429806e-12 0.009427399580475159 2.643118660271214e-12 8.403575647813066e-12 2.643118660271214e-12 0.01205019461175046" free_energy=-2927.5483421476943 pbc="T T T"
Si       3.53421299       5.06177000      11.19989193      -0.13211864      -0.20850662      -0.19807080
Si       1.69361914       5.06177000       0.71942238       0.13211864      -0.20850662       0.19807080
Si       4.30753520       5.06177000       5.24023477       0.13211864      -0.20850662      -0.19807080
Si       0.92029692       5.06177000       6.67907953      -0.13211864      -0.20850662       0.19807080
Si       0.31366096       1.56546960       1.53022880       0.21435491       0.33190111       0.27431043
Si       4.91417116       1.56546960      10.38908551      -0.21435491       0.33190111      -0.27431043
Si       2.30025510       1.56546960       7.48988596      -0.21435491       0.33190111       0.27431043
Si       2.92757702       1.56546960       4.42942835       0.21435491       0.33190111      -0.27431043
Si       1.98509660       3.56580870       3.13963283      -0.06292372       0.00244545      -0.38452471
Si       3.24273552       3.56580870       8.77968148       0.06292372       0.00244545       0.38452471
Si       0.62881946       3.56580870       9.09928998       0.06292372       0.00244545      -0.38452471
Si       4.59901266       3.56580870       2.82002433      -0.06292372       0.00244545       0.38452470
Si       3.59030679       0.37200924       2.19587160      -0.17543794       0.12048686      -0.11882135
Si       1.63752534       0.37200924       9.72344271       0.17543794       0.12048686       0.11882135
Si      -0.97639072       0.37200924       8.15552875       0.17543794       0.12048686      -0.11882135
Si       6.20422285       0.37200924       3.76378556      -0.17543794       0.12048686       0.11882135
Si      -0.00000000       3.47963678       0.00000000      -0.00000000      -0.49265359       0.00000000
Si       2.61391606       3.47963678       5.95965715      -0.00000000      -0.49265359       0.00000000
18
Lattice="5.385446661820162 0.0 0.0 0.0 5.042443384820146 -3.515773011293114e-19 0.0 1.4909454928706103e-19 12.08547058629455" Properties=species:S:1:pos:R:3:forces:R:3 unique_starting_index=36 config_type=initial n_minim_iter=5 energy=-2927.8316059813565 stress="0.008776966946192595 1.1306176218287838e-11 5.3534282067366004e-12 1.1306176218287838e-11 0.005585818115462315 -1.6082027159298696e-11 5.3534282067366004e-12 -1.6082027159298696e-11 0.011482909524953781" free_energy=-2927.8316059813565 pbc="T T T"
Si       3.57099410       4.82153247      11.32164727       0.54969647      -0.41084784       0.01711982
Si       1.81445256       4.82153247       0.76382332      -0.54969647      -0.41084784      -0.01711982
Si       4.50717589       4.82153247       5.27891198      -0.54969647      -0.41084783       0.01711982
Si       0.87827077       4.82153247       6.80655861       0.54969647      -0.41084784      -0.01711982
Si       0.37559896       1.50772626       1.59972421      -0.09793601       0.28076426       0.39086502
Si       5.00984770       1.50772626      10.48574638       0.09793601       0.28076426      -0.39086501
Si       2.31712437       1.50772626       7.64245950       0.09793601       0.28076426       0.39086501
Si       3.06832229       1.50772626       4.44301109      -0.09793601       0.28076426      -0.39086501
Si       2.03365147       3.42226127       3.09907051      -0.11014209      -0.07774190      -0.54074937
Si       3.35179519       3.42226127       8.98640007       0.11014209      -0.07774190       0.54074937
Si       0.65907186       3.42226127       9.14180581       0.11014209      -0.07774190      -0.54074937
Si       4.72637480       3.42226127       2.94366478      -0.11014209      -0.07774190       0.54074937
Si       3.66345594       0.37182392       2.16522400       0.38520505       0.33435401       0.14619423
Si       1.72199072       0.37182392       9.92024658      -0.38520505       0.33435401      -0.14619423
Si      -0.97073261       0.37182392       8.20795930      -0.38520505       0.33435401       0.14619423
Si       6.35617927       0.37182392       3.87751129       0.38520505       0.33435401      -0.14619423
Si      -0.00000000       3.30133315       0.00000000      -0.00000000      -0.25305708       0.00000000
Si       2.69272333       3.30133315       6.04273529       0.00000000      -0.25305708       0.00000000
18
Lattice="5.4119151669315775 0.0 0.0 0.0 5.005416749096217 -3.743147870130891e-19 0.0 6.65586038477747e-20 11.527432457205292" Properties=species:S:1:pos:R:3:forces:R:3 unique_starting_index=36 config_type=initial n_minim_iter=6 energy=-2928.0482372229103 stress="-0.010657658645020097 4.411721131939872e-12 5.450221735920663e-12 4.411721131939872e-12 -0.007938766711619907 -1.2003684517086853e-12 5.450221735920663e-12 -1.2003684517086853e-12 -0.015713353993056366" free_energy=-2928.0482372229103 pbc="T T T"
Si       3.57834189       4.76179539      10.78310661       1.09835794      -0.41810857       0.22469990
Si       1.83357327       4.76179539       0.74432585      -1.09835794      -0.41810857      -0.22469990
Si       4.53953086       4.76179539       5.01939038      -1.09835794      -0.41810857       0.22469990
Si       0.87238431       4.76179539       6.50804208       1.09835794      -0.41810857      -0.22469990
Si       0.40134743       1.51264637       1.56495151       0.06642306      -0.03427848       0.37389711
Si       5.01056773       1.51264637       9.96248095      -0.06642306      -0.03427848      -0.37389711
Si       2.30461015       1.51264637       7.32866774      -0.06642306      -0.03427848       0.37389711
Si       3.10730502       1.51264637       4.19876472       0.06642306      -0.03427848      -0.37389711
Si       2.03316654       3.39736109       2.89154880      -0.26831364      -0.02490952      -0.39768533
Si       3.37874863       3.39736109       8.63588366       0.26831364      -0.02490952       0.39768533
Si       0.67279105       3.39736109       8.65526503       0.26831364      -0.02490952      -0.39768533
Si       4.73912412       3.39736109       2.87216743      -0.26831364      -0.02490952       0.39768533
Si       3.67906802       0.38913926       2.04243013       0.72150365       0.40854776       0.02174342
Si       1.73284715       0.38913926       9.48500233      -0.72150365       0.40854776      -0.02174342
Si      -0.97311043       0.38913926       7.80614636      -0.72150365       0.40854776       0.02174342
Si       6.38502560       0.38913926       3.72128610       0.72150365       0.40854776      -0.02174342
Si      -0.00000000       3.25322377       0.00000000      -0.00000000       0.13749763       0.00000000
Si       2.70595758       3.25322377       5.76371623       0.00000000       0.13749763       0.00000000
18
Lattice="5.4556080172949395 0.0 0.0 0.0 4.951573878987861 -3.8442016252843343e-19 0.0 5.1335615420310955e-20 11.61106747988948" Properties=species:S:1:pos:R:3:forces:R:3 unique_starting_index=36 config_type=initial n_minim_iter=7 energy=-2928.4490733667644 stress="-0.000534862725284032 -4.069411538508314e-12 -3.2261433197650236e-12 -4.069411538508314e-12 -0.00977312927695108 1.2854125870615519e-11 -3.2261433197650236e-12 1.2854125870615519e-11 -0.007334720353088488" free_energy=-2928.4490733667644 pbc="T T T"
Si       3.65358806       4.68012891      10.86227686       0.13098868      -0.16260450       0.45613245
Si       1.80201995       4.68012891       0.74879062      -0.13098868      -0.16260450      -0.45613245
Si       4.52982396       4.68012891       5.05674312      -0.13098868      -0.16260450       0.45613245
Si       0.92578406       4.68012891       6.55432436       0.13098868      -0.16260450      -0.45613245
Si       0.41685226       1.50718045       1.62011941       0.08290582       0.05753790       0.17677003
Si       5.03875576       1.50718045       9.99094807      -0.08290582       0.05753790      -0.17677003
Si       2.31095175       1.50718045       7.42565315      -0.08290582       0.05753790       0.17677003
Si       3.14465626       1.50718045       4.18541433       0.08290582       0.05753790      -0.17677003
Si       2.03167370       3.36042592       2.85313192      -0.27255992       0.02503749      -0.25241873
Si       3.42393432       3.36042592       8.75793556       0.27255992       0.02503749       0.25241873
Si       0.69613031       3.36042592       8.65866566       0.27255992       0.02503749      -0.25241873
Si       4.75947770       3.36042592       2.95240182      -0.27255992       0.02503749       0.25241873
Si       3.74270973       0.41100727       2.04917704       0.26823217       0.13929396      -0.22495945
Si       1.71289828       0.41100727       9.56189044      -0.26823217       0.13929396       0.22495945
Si      -1.01490573       0.41100727       7.85471078      -0.26823217       0.13929396      -0.22495945
Si       6.47051374       0.41100727       3.75635670       0.26823217       0.13929396       0.22495945
Si      -0.00000000       3.20617873       0.00000000      -0.00000000      -0.11852968      -0.00000000
Si       2.72780401       3.20617873       5.80553374      -0.00000000      -0.11852968       0.00000000
18
Lattice="5.42598428299007 0.0 0.0 0.0 4.9544639667209465 -3.993315993342695e-19 0.0 3.268621718287378e-20 11.776937874544876" Properties=species:S:1:pos:R:3:forces:R:3 unique_starting_index=36 config_type=initial n_minim_iter=8 energy=-2928.5974598877465 stress="-0.0006897217490435685 -2.0760832092443544e-12 -1.878799963979866e-12 -2.0760832092443544e-12 -0.0015089464917911115 -2.686167385058877e-12 -1.878799963979866e-12 -2.686167385058877e-12 -0.0022447453533408932" free_energy=-2928.5974598877465 pbc="T T T"
Si       3.64766675       4.64952437      11.01583185      -0.08109347       0.11412282       0.60710655
Si       1.77831753       4.64952437       0.76110602       0.08109348       0.11412282      -0.60710655
Si       4.49130967       4.64952437       5.12736291       0.08109348       0.11412282       0.60710655
Si       0.93467461       4.64952437       6.64957496      -0.08109348       0.11412282      -0.60710655
Si       0.44329616       1.52190134       1.69722784       0.08873073       0.07331244      -0.08930256
Si       4.98268812       1.52190134      10.07971004      -0.08873073       0.07331244       0.08930256
Si       2.26969598       1.52190134       7.58569677      -0.08873073       0.07331244      -0.08930256
Si       3.15628831       1.52190134       4.19124110       0.08873073       0.07331244       0.08930256
Si       1.99731302       3.36615847       2.81359761      -0.26649917       0.06701060       0.12821777
Si       3.42867126       3.36615847       8.96334027       0.26649917       0.06701060      -0.12821777
Si       0.71567912       3.36615847       8.70206655       0.26649917       0.06701060       0.12821777
Si       4.71030516       3.36615847       3.07487133      -0.26649917       0.06701060      -0.12821777
Si       3.74158636       0.43817577       2.04791575       0.12738461      -0.05734340      -0.09677773
Si       1.68439792       0.43817577       9.72902213      -0.12738461      -0.05734340       0.09677773
Si      -1.02859422       0.43817577       7.93638468      -0.12738461      -0.05734340      -0.09677773
Si       6.45457850       0.43817577       3.84055319       0.12738461      -0.05734340       0.09677773
Si      -0.00000000       3.18564050       0.00000000       0.00000000      -0.39420493      -0.00000000
Si       2.71299214       3.18564050       5.88846894      -0.00000000      -0.39420493      -0.00000000
18
Lattice="5.397220987390071 0.0 0.0 0.0 4.99340161931864 -4.0704259841186046e-19 0.0 2.212402507033709e-20 11.845775602160836" Properties=species:S:1:pos:R:3:forces:R:3 unique_starting_index=36 config_type=initial n_minim_iter=9 energy=-2928.624107975219 stress="-0.0008651841942979197 9.907384359594373e-13 3.943075192060716e-12 9.907384359594373e-13 0.005301665454684268 -2.305009135653331e-12 3.943075192060716e-12 -2.305009135653331e-12 0.005283017940667526" free_energy=-2928.624107975219 pbc="T T T"
Si       3.63867112       4.68967887      11.09637494      -0.17955835       0.09493276       0.39252630
Si       1.75854987       4.68967887       0.74940066       0.17955835       0.09493276      -0.39252630
Si       4.45716036       4.68967887       5.17348714       0.17955835       0.09493276       0.39252630
Si       0.94006062       4.68967887       6.67228846      -0.17955835       0.09493276      -0.39252630
Si       0.43542353       1.53335719       1.70030230       0.17691567       0.08988426      -0.09188843
Si       4.96179746       1.53335719      10.14547330      -0.17691567       0.08988426       0.09188843
Si       2.26318697       1.53335719       7.62319010      -0.17691567       0.08988427      -0.09188843
Si       3.13403402       1.53335719       4.22258550       0.17691567       0.08988426       0.09188843
Si       1.98287547       3.39243067       2.84267503      -0.27322137       0.15050605      -0.01605991
Si       3.41434552       3.39243067       9.00310057       0.27322137       0.15050605       0.01605991
Si       0.71573502       3.39243067       8.76556283       0.27322137       0.15050605      -0.01605991
Si       4.68148597       3.39243067       3.08021277      -0.27322137       0.15050605       0.01605991
Si       3.73035706       0.43913504       2.06586824      -0.01133008      -0.10366446      -0.05630867
Si       1.66686393       0.43913504       9.77990736       0.01133008      -0.10366446       0.05630867
Si      -1.03174657       0.43913504       7.98875605       0.01133008      -0.10366446      -0.05630867
Si       6.42896755       0.43913504       3.85701956      -0.01133008      -0.10366446       0.05630867
Si      -0.00000000       3.20979425       0.00000000       0.00000000      -0.46331724      -0.00000000
Si       2.69861049       3.20979425       5.92288780       0.00000000      -0.46331724      -0.00000000
18
Lattice="5.49652814911173 0.0 0.0 0.0 4.927001426003947 -4.107537526101962e-19 0.0 1.0901894018124567e-20 11.794041099879584" Properties=species:S:1:pos:R:3:forces:R:3 unique_starting_index=36 config_type=initial n_minim_iter=10 energy=-2928.7518354461927 stress="0.009639838510558114 1.2403376323773083e-11 5.945744972390302e-12 1.2403376323773083e-11 0.003231294291158401 3.1934364140967717e-12 5.945744972390302e-12 3.1934364140967717e-12 0.004581234506954077" free_energy=-2928.7518354461927 pbc="T T T"
Si       3.70573502       4.61856147      11.10817650       0.17363252       0.10970560       0.11655054
Si       1.79079313       4.61856147       0.68586460      -0.17363252       0.10970560      -0.11655054
Si       4.53905720       4.61856147       5.21115595      -0.17363252       0.10970560       0.11655054
Si       0.95747094       4.61856147       6.58288515       0.17363252       0.10970560      -0.11655054
Si       0.46871831       1.52546409       1.70978308       0.10722434      -0.05577662       0.00327765
Si       5.02780984       1.52546409      10.08425802      -0.10722434      -0.05577662      -0.00327765
Si       2.27954577       1.52546409       7.60680363      -0.10722434      -0.05577662       0.00327765
Si       3.21698238       1.52546409       4.18723747       0.10722434      -0.05577662      -0.00327765
Si       1.97779990       3.35647412       2.79855530      -0.12582960       0.09380903       0.11971991
Si       3.51872825       3.35647412       8.99548580       0.12582960       0.09380903      -0.11971991
Si       0.77046417       3.35647412       8.69557585       0.12582960       0.09380903       0.11971991
Si       4.72606398       3.35647412       3.09846525      -0.12582960       0.09380903      -0.11971991
Si       3.82089529       0.44161006       2.03509641      -0.04346843      -0.11734226      -0.21599538
Si       1.67563286       0.44161006       9.75894469       0.04346843      -0.11734226       0.21599538
Si      -1.07263121       0.44161006       7.93211696       0.04346843      -0.11734226      -0.21599538
Si       6.56915936       0.44161006       3.86192414      -0.04346843      -0.11734226       0.21599538
Si      -0.00000000       3.12469188       0.00000000       0.00000000      -0.06079150      -0.00000000
Si       2.74826407       3.12469188       5.89702055      -0.00000000      -0.06079150      -0.00000000
18
Lattice="5.457020146782214 0.0 0.0 0.0 4.918537659843278 -4.104541786181716e-19 0.0 7.480978575510003e-21 11.736963045486549" Properties=species:S:1:pos:R:3:forces:R:3 unique_starting_index=36 config_type=initial n_minim_iter=11 energy=-2928.7914879501477 stress="-0.0013462160915226201 -2.50449134182657e-12 9.900849100008099e-13 -2.50449134182657e-12 -0.0037006203136893496 -7.678449987040804e-12 9.900849100008099e-13 -7.678449987040804e-12 -0.0009128086743532569" free_energy=-2928.7914879501477 pbc="T T T"
Si       3.69089902       4.61029921      11.08406973       0.27348070       0.14763894      -0.04070088
Si       1.76612113       4.61029921       0.65289332      -0.27348070       0.14763894       0.04070088
Si       4.49463120       4.61029921       5.21558821      -0.27348070       0.14763894      -0.04070088
Si       0.96238895       4.61029921       6.52137484       0.27348070       0.14763894       0.04070088
Si       0.47287643       1.52723845       1.70348669       0.19650001      -0.11250179       0.00237742
Si       4.98414372       1.52723845      10.03347636      -0.19650001      -0.11250179      -0.00237742
Si       2.25563364       1.52723845       7.57196821      -0.19650001      -0.11250179       0.00237742
Si       3.20138650       1.52723845       4.16499483       0.19650001      -0.11250179      -0.00237742
Si       1.94533227       3.35403625       2.78222854      -0.07644038       0.07935141       0.10716759
Si       3.51168788       3.35403625       8.95473450       0.07644038       0.07935141      -0.10716759
Si       0.78317781       3.35403625       8.65071006       0.07644038       0.07935141       0.10716759
Si       4.67384234       3.35403625       3.08625298      -0.07644038       0.07935141      -0.10716759
Si       3.80513455       0.44164145       2.01903193      -0.14645471      -0.12303204      -0.27733863
Si       1.65188559       0.44164145       9.71793111       0.14645471      -0.12303204       0.27733863
Si      -1.07662448       0.44164145       7.88751345       0.14645471      -0.12303204      -0.27733863
Si       6.53364463       0.44164145       3.84944959      -0.14645471      -0.12303204       0.27733863
Si      -0.00000000       3.10295520       0.00000000       0.00000000       0.01708697      -0.00000000
Si       2.72851007       3.10295520       5.86848152      -0.00000000       0.01708697      -0.00000000
18
Lattice="5.447155960768664 0.0 0.0 0.0 5.002833395545599 -4.042391576428958e-19 0.0 4.928379848655767e-21 11.52251274084453" Properties=species:S:1:pos:R:3:forces:R:3 unique_starting_index=36 config_type=initial n_minim_iter=12 energy=-2928.8259403160814 stress="-0.0026755842532096797 -6.8638385229452126e-12 5.4156725759761195e-12 -6.8638385229452126e-12 0.003464198464100367 -3.3872319006871074e-12 5.4156725759761195e-12 -3.3872319006871074e-12 -0.0058228980858863015" free_energy=-2928.8259403160814 pbc="T T T"
Si       3.71069151       4.69626395      10.92063850       0.36401582       0.16028921      -0.14229747
Si       1.73646445       4.69626395       0.60187424      -0.36401582       0.16028921       0.14229747
Si       4.46004243       4.69626395       5.15938213      -0.36401582       0.16028921      -0.14229747
Si       0.98711353       4.69626395       6.36313061       0.36401582       0.16028921       0.14229747
Si       0.48435995       1.55451756       1.66882617       0.21312817      -0.25783730       0.07222656
Si       4.96279601       1.55451756       9.85368657      -0.21312817      -0.25783730      -0.07222656
Si       2.23921803       1.55451756       7.43008254      -0.21312817      -0.25783730       0.07222656
Si       3.20793793       1.55451756       4.09243020       0.21312817      -0.25783730      -0.07222656
Si       1.91691728       3.41814314       2.74087357      -0.01581949       0.11937782       0.08906146
Si       3.53023868       3.41814314       8.78163917       0.01581949       0.11937782      -0.08906146
Si       0.80666070       3.41814314       8.50212994       0.01581949       0.11937782       0.08906146
Si       4.64049526       3.41814314       3.02038280      -0.01581949       0.11937782      -0.08906146
Si       3.80900846       0.44387296       1.96961361      -0.14988651      -0.12905567      -0.34842787
Si       1.63814750       0.44387296       9.55289913       0.14988651      -0.12905567       0.34842787
Si      -1.08543048       0.44387296       7.73086998       0.14988651      -0.12905567      -0.34842787
Si       6.53258644       0.44387296       3.79164276      -0.14988651      -0.12905567       0.34842787
Si      -0.00000000       3.13744861       0.00000000      -0.00000000       0.21445188       0.00000000
Si       2.72357798       3.13744861       5.76125637       0.00000000       0.21445188       0.00000000
18
Lattice="5.421077637968276 0.0 0.0 0.0 4.992768426231452 -4.0784517900955744e-19 0.0 4.253598369402693e-21 11.615703193703355" Properties=species:S:1:pos:R:3:forces:R:3 unique_starting_index=36 config_type=initial n_minim_iter=13 energy=-2928.8853603532125 stress="-0.004818174771017737 1.328178349380112e-11 2.8165343858480892e-12 1.328178349380112e-11 0.0028106220005509855 4.917956666174328e-12 2.8165343858480892e-12 4.917956666174328e-12 0.0004112565846864788" free_energy=-2928.8853603532125 pbc="T T T"
Si       3.70952079       4.69211673      11.03565841       0.33759002       0.14373203      -0.20581812
Si       1.71155685       4.69211673       0.58004478      -0.33759002       0.14373203       0.20581812
Si       4.42209567       4.69211673       5.22780681      -0.33759001       0.14373202      -0.20581812
Si       0.99898197       4.69211673       6.38789638       0.33759001       0.14373203       0.20581812
Si       0.50465133       1.54983095       1.68715369       0.12093315      -0.24704105       0.07853293
Si       4.91642630       1.54983095       9.92854950      -0.12093315      -0.24704105      -0.07853293