22
Lattice="5.509261183189611 1.0873507419302424 -0.2719451489276786 3.885610961748787 6.296078239269765 -0.8150829517999265 0.7083426583829062 -1.2150720411967653 13.382628481699921" Properties=species:S:1:pos:R:3:forces:R:3 unique_starting_index=40 config_type=initial n_minim_iter=1 energy=-3582.3562959257542 stress="0.0009526929965626712 -4.55014889775449e-05 0.0007567926854012211 -4.55014889775449e-05 -0.000407304330507343 0.0009203406420910863 0.0007567926854012211 0.0009203406420910863 0.0002093805046371106" free_energy=-3582.3562959257542 pbc="T T T"
Si       7.29284411       2.38557897      10.43094679      -0.03030685       0.03124497       0.00654306
Si       1.31566550       2.15498947       3.84497627       0.09156880      -0.25855407      -0.11598477
Si       4.85568564       2.00960337       5.88989013      -0.05098257       0.08644238      -0.11464791
Si       3.64246499       2.19310711       9.38154262      -0.12235751      -0.01857198      -0.06196827
Si       3.85700302       0.64952562      11.93446494       0.09394580      -0.05675032       0.02330093
Si       7.99186241       5.07457920       4.55145336      -0.09667383      -0.07155360       0.01359365
Si       6.89631293       2.99173526       1.19876655      -0.02031900       0.09432609       0.02667046
Si       5.46846917       3.98540905       7.10753552       0.17178280       0.13188051      -0.10282073
Si       4.93520328       4.02985536       0.30178498      -0.18130997      -0.10824176      -0.07706230
Si       6.08146106       4.04918759      11.73096146       0.13502649      -0.05793355       0.01693694
Si       5.88147203       1.75341072       8.57454560       0.03964848      -0.14056023       0.04422765
Si       3.85967784       4.50581442       8.68578181      -0.21888992       0.08904273       0.19040856
Si       2.64468092       3.51889942       0.21130470       0.10239682       0.09762004       0.00755501
Si       1.36536473      -0.23670138       6.62780365      -0.07644077       0.26353499      -0.12686760
Si       3.73482982      -0.85346405      13.78118947      -0.14260394      -0.04946164       0.03408014
Si       7.67113087       4.77619798       6.93302383       0.05839063      -0.03108358      -0.01586095
Si       4.42778669       3.06614454       3.70187676      -0.01123700      -0.12494719      -0.03459493
Si       6.28165587       6.34764578       3.37887093      -0.02862169      -0.13586552       0.05144203
Si       4.53640266       5.07783460       2.31874344       0.04348384       0.20398715       0.13362153
Si       2.98544803       1.39689878       7.23545050       0.15101984       0.06136704       0.05277760
Si       6.14171689       0.35679930      11.26828585      -0.05547591       0.01519138      -0.02308848
Si       4.03693230       0.94993430       2.60125086       0.14795545      -0.02111384       0.07173838
22
Lattice="5.496976218334037 1.0896926017898205 -0.28453976117970864 3.8787395115668377 6.304714250252211 -0.8361968909827098 0.6816065957378078 -1.2465909001373998 13.37721747496578" Properties=species:S:1:pos:R:3:forces:R:3 unique_starting_index=40 config_type=initial n_minim_iter=2 energy=-3582.360482024522 stress="-0.0015407776190730323 -0.00019401356067438278 -0.0006654269384802729 -0.00019401356067438278 -0.00042607949342352025 -0.0007448460256859062 -0.0006654269384802729 -0.0007448460256859062 -0.0006698239664968424" free_energy=-3582.360482024522 pbc="T T T"
Si       7.25639814       2.36532964      10.40664422       0.00847655       0.02764405       0.02006835
Si       1.30622120       2.14700564       3.83496071       0.09580521      -0.27247975      -0.10891698
Si       4.83324757       1.99934300       5.87256667      -0.08736075       0.08108397      -0.12591113
Si       3.61595078       2.17432548       9.36459987      -0.10607401       0.02299415      -0.02432293
Si       3.82636826       0.62318480      11.91983758       0.07624849      -0.09283051       0.04453313
Si       7.96463626       5.06983559       4.52279902      -0.07497658      -0.05429276       0.03502748
Si       6.87812930       2.99339140       1.17867369      -0.00367548       0.10665452      -0.00533592
Si       5.44390724       3.97472264       7.08403134       0.13460588       0.15411953      -0.07941136
Si       4.92242827       4.03313322       0.28282112      -0.14572584      -0.08296561      -0.12964008
Si       6.04662897       4.02698017      11.70453749       0.08916783      -0.09838611       0.04391072
Si       5.85214711       1.73552720       8.55548930       0.02602336      -0.15073408       0.01355580
Si       3.83362460       4.49162018       8.66507978      -0.18285383       0.06392645       0.16442339
Si       2.63911227       3.52286273       0.19832495       0.03895530       0.06580620       0.04252292
Si       1.34932305      -0.25021626       6.62162822      -0.06822319       0.21100934      -0.10518465
Si       3.69942859      -0.88548028      13.76932443      -0.11589860      -0.00178568       0.00962385
Si       7.64112916       4.76595920       6.90424357       0.05860001      -0.03814647      -0.03615869
Si       4.41079041       3.06057367       3.68456299      -0.01940616      -0.08812458      -0.04011769
Si       6.26118327       6.34625743       3.35134477       0.01123184      -0.09063844       0.05408317
Si       4.52229023       5.07944877       2.29838974       0.03895054       0.14438288       0.13658456
Si       2.96604505       1.38259812       7.22333315       0.15395438       0.07678483       0.01761217
Si       6.10602473       0.33237662      11.25012440      -0.04279148       0.04151762      -0.00333604
Si       4.02362941       0.94531814       2.59067728       0.11496652      -0.02553954       0.07638992
22
Lattice="5.508501640358017 1.097636659305994 -0.2879778832295143 3.891713880904766 6.326898091435542 -0.8435559593528488 0.6765203600467687 -1.2591373546624884 13.398677562408857" Properties=species:S:1:pos:R:3:forces:R:3 unique_starting_index=40 config_type=initial n_minim_iter=3 energy=-3582.3664566375915 stress="0.0019658165800054274 0.00021483336157915992 -0.0011024203985067489 0.00021483336157915992 0.0034887532691726124 -0.001285202058164697 -0.0011024203985067489 -0.001285202058164697 0.0025579812450383065" free_energy=-3582.3664566375915 pbc="T T T"
Si       7.26786896       2.37138560      10.41847550       0.01824798       0.00089208       0.00878176
Si       1.31058080       2.14702657       3.83694704       0.08474868      -0.25395837      -0.08607143
Si       4.84061155       2.00648530       5.87626150      -0.08333255       0.10470097      -0.08664641
Si       3.61894295       2.17706143       9.37543939      -0.07806336       0.03851534      -0.04038453
Si       3.83089560       0.61843600      11.93701082       0.06122443      -0.07921584       0.08002277
Si       7.98076463       5.08691987       4.52344875      -0.08499273      -0.09197295       0.01179660
Si       6.89307857       3.00873590       1.17578487       0.00763098       0.12884409      -0.03515069
Si       5.45742992       3.98829582       7.08844411       0.07369715       0.17117761      -0.05747582
Si       4.93224280       4.04711391       0.27663605      -0.12280213      -0.04457580      -0.08870026
Si       6.05877807       4.03408820      11.71799254       0.05516228      -0.08386603       0.06845165
Si       5.86191230       1.73685239       8.56573739       0.00494806      -0.14360458       0.01255257
Si       3.83772353       4.50306655       8.67691760      -0.12301097       0.01442510       0.09813716
Si       2.64822683       3.53660155       0.19547949       0.00152872       0.03299970       0.05200176
Si       1.34780390      -0.25038116       6.62955721      -0.04621534       0.21464604      -0.05640056
Si       3.69801633      -0.89519991      13.79031032      -0.10313270       0.01083493      -0.00753897
Si       7.65793275       4.78070297       6.90807666       0.05220836      -0.05779621      -0.03820423
Si       4.42002027       3.06869079       3.68570725      -0.00730178      -0.05797457      -0.03934117
Si       6.27690906       6.36559668       3.35044130       0.02743397      -0.07720429       0.03602903
Si       4.53493240       5.09940114       2.29885289       0.05344629       0.07881772       0.09122950
Si       2.97260118       1.38516986       7.23300890       0.13550931       0.07650642      -0.00398747
Si       6.11261916       0.33093436      11.26472463      -0.02153093       0.03493660       0.01167847
Si       4.03333789       0.94917180       2.59369359       0.09459627      -0.01712798       0.06922028
22
Lattice="5.511191167378533 1.1086499197163706 -0.27107094302469725 3.905396405460058 6.324554088161614 -0.8184714833457847 0.7072260646230077 -1.2287781999521998 13.352323708469166" Properties=species:S:1:pos:R:3:forces:R:3 unique_starting_index=40 config_type=initial n_minim_iter=4 energy=-3582.3898600196767 stress="-0.0002665237391082072 0.0014889466200896052 -7.760150657766997e-05 0.0014889466200896052 0.0006724440422641165 0.000365646181325012 -7.760150657766997e-05 0.000365646181325012 -0.0011673933534648386" free_energy=-3582.3898600196767 pbc="T T T"
Si       7.30018076       2.40796105      10.40684708       0.02018645      -0.07566217      -0.01633040
Si       1.33255626       2.13429303       3.82314700       0.03238695      -0.05702735       0.06990013
Si       4.85554201       2.03332034       5.86349803       0.00155470       0.17053654      -0.04963459
Si       3.63987598       2.20150265       9.35363015      -0.00433769       0.04828976       0.01601864
Si       3.86914014       0.64480156      11.91020916      -0.03323275      -0.00121167       0.07491868
Si       7.99894906       5.10204206       4.53978861      -0.07095606      -0.18615097      -0.06802243
Si       6.90353140       3.03090493       1.19534008      -0.01041888       0.08260908      -0.14431055
Si       5.49660586       4.02051165       7.07918620      -0.15704835       0.15159893       0.00999617
Si       4.93127921       4.04628169       0.28833971       0.01499842       0.00721347       0.13469981
Si       6.10678944       4.05970656      11.70390489      -0.01433023       0.06105071      -0.01320439
Si       5.89064007       1.75425269       8.55677449      -0.01951844      -0.07956885       0.04915287
Si       3.85632403       4.52769238       8.67866994      -0.00917470      -0.06214891      -0.09286844
Si       2.66241716       3.54359090       0.21053009      -0.11088457      -0.01326346       0.01085214
Si       1.35883510      -0.21554850       6.60156599       0.05002539       0.20248764      -0.02207299
Si       3.72138730      -0.85900942      13.75230646      -0.06616546      -0.01299117       0.04357832
Si       7.69226101       4.80256474       6.91108646       0.06552820       0.00665989       0.06378710
Si       4.43618001       3.07413641       3.68744002       0.01847652       0.02142402      -0.05018205
Si       6.30116070       6.36896955       3.37117191       0.04543648      -0.10918800       0.02362212
Si       4.55691950       5.11929502       2.32227343       0.11461939      -0.09651863      -0.04123052
Si       3.00598200       1.40995580       7.22089182       0.02817728      -0.05510815      -0.07429906
Si       6.13906975       0.36986809      11.24155326       0.11463225       0.00124996       0.06983964
Si       4.05237475       0.96089255       2.60240319      -0.00995491      -0.00428067       0.00578979
22
Lattice="5.51038614853265 1.0919789466145287 -0.26899622400067713 3.8895615991625805 6.303295661500716 -0.8205772041136794 0.7181755230477747 -1.2345505725731505 13.376576520559366" Properties=species:S:1:pos:R:3:forces:R:3 unique_starting_index=40 config_type=initial n_minim_iter=5 energy=-3582.3935508805916 stress="6.763069059486306e-05 -0.0006036307352626578 5.7559590504071987e-05 -0.0006036307352626578 -0.00025157700050226545 -0.00011069632990432151 5.7559590504071987e-05 -0.00011069632990432151 0.0001083014864612291" free_energy=-3582.3935508805916 pbc="T T T"
Si       7.30250830       2.37930149      10.42804082       0.02857167      -0.05750764      -0.01521199
Si       1.33076780       2.12170185       3.82862809       0.00936687      -0.06958116       0.03590423
Si       4.85449121       2.01596201       5.87382889       0.03925483       0.14811612      -0.05883685
Si       3.63925965       2.18393361       9.37053435       0.01589102       0.03614440      -0.00026482
Si       3.87642560       0.62694399      11.93371804      -0.03814549       0.00311208       0.07952323
Si       7.98966284       5.06770975       4.54978043      -0.04941272      -0.15940561      -0.05582045
Si       6.89877275       3.00814586       1.19920929      -0.04370851       0.06296409      -0.11677811
Si       5.49295653       3.99802191       7.09175449      -0.20282414       0.17339470       0.03542845
Si       4.92075376       4.02469963       0.28920769       0.07455032       0.02057660       0.17494451
Si       6.10609119       4.03019478      11.72625441      -0.05786144       0.06944206      -0.04363799
Si       5.89336906       1.72924973       8.57477190      -0.03859388      -0.07052316       0.05830281
Si       3.84813393       4.50595953       8.69550612       0.02862225      -0.05444610      -0.12558271
Si       2.65431853       3.53096304       0.21117555      -0.12887241       0.00364539      -0.00902022
Si       1.36303389      -0.21788131       6.61248303      -0.00104412       0.17525253      -0.02996212
Si       3.73094942      -0.87406771      13.77920604      -0.02750808      -0.00559639       0.07308802
Si       7.68741807       4.76986667       6.92524179       0.08653225       0.01122840       0.03318058
Si       4.43172203       3.05399564       3.69423879       0.02147655       0.05766970      -0.02761674
Si       6.28869307       6.33738618       3.37842969       0.08054219      -0.08032808       0.03697150
Si       4.54744171       5.09848765       2.32792556       0.05956059      -0.13553871      -0.08512858
Si       3.00940943       1.39670098       7.23452419       0.03031955      -0.03984764      -0.05408885
Si       6.14687314       0.34796971      11.26463333       0.12920647      -0.03743568       0.10104482
Si       4.05443892       0.94681463       2.60968421      -0.01592380      -0.05133590      -0.00643873
22
Lattice="5.508450199983997 1.1057621490231666 -0.26550632435974875 3.9040882386170526 6.300372336943628 -0.8189623505494736 0.7245405316990412 -1.2246240868757898 13.440100121705456" Properties=species:S:1:pos:R:3:forces:R:3 unique_starting_index=40 config_type=initial n_minim_iter=6 energy=-3582.410671372942 stress="-0.0005400523542236653 0.001626472033929938 -0.0001950697476689299 0.001626472033929938 -0.002259995418419816 1.2580731638077906e-05 -0.0001950697476689299 1.2580731638077906e-05 0.0038811662511676432" free_energy=-3582.410671372942 pbc="T T T"
Si       7.31312114       2.39554472      10.48354466       0.04413210      -0.05583126      -0.04144530
Si       1.34574876       2.10068483       3.84615517      -0.03463465       0.01959598      -0.06512152
Si       4.85924149       2.04694029       5.89427040       0.03525125       0.19169108       0.01634111
Si       3.64428554       2.19717337       9.41640267       0.00419590      -0.01477287      -0.06289577
Si       3.88598873       0.63720642      12.00295579      -0.04153291       0.00456038       0.09640249
Si       7.99094510       5.06287365       4.57570864      -0.00939625      -0.17783166       0.04736996
Si       6.89880096       3.03459486       1.20073002       0.02248476      -0.04905368       0.10544184
Si       5.49735597       4.03156901       7.12844867      -0.14578263       0.17339933      -0.05445806
Si       4.92414334       4.02645934       0.30461680       0.02340308       0.13330906       0.01618334
Si       6.12416514       4.04496296      11.78716435      -0.06248096      -0.03226219       0.10106795
Si       5.89878706       1.73086434       8.62741759      -0.03846478      -0.03995044       0.06154617
Si       3.85507680       4.50961342       8.74123659       0.11496703       0.03968956       0.00540882
Si       2.65538013       3.53542815       0.21694395      -0.04749520      -0.01766750      -0.00939891
Si       1.36356053      -0.18050737       6.63572370       0.04108396       0.05314035       0.01385842
Si       3.72504218      -0.85793769      13.85406730       0.00461874       0.03750008       0.04248111
Si       7.71079009       4.78323984       6.96807978      -0.06885875       0.02507716      -0.03857662
Si       4.44071416       3.05985854       3.71117671       0.01568250       0.05104516      -0.03839198
Si       6.31044578       6.32868075       3.40791906       0.06255428      -0.06400700      -0.06037040
Si       4.56947552       5.10015708       2.34581501       0.06166243      -0.14683297      -0.06616418
Si       3.02823120       1.40553054       7.26832024       0.07937019      -0.04905200      -0.01757156
Si       6.15973737       0.36898988      11.33066663       0.01143240      -0.03147261      -0.02953783
Si       4.06203373       0.95294213       2.62977397      -0.07219247      -0.05027393      -0.02216908
22
Lattice="5.515609334583195 1.1011145769324613 -0.2562126614786502 3.898436943540729 6.323844434302397 -0.8064344062305256 0.7456047855428641 -1.225872531458717 13.36508163330096" Properties=species:S:1:pos:R:3:forces:R:3 unique_starting_index=40 config_type=initial n_minim_iter=7 energy=-3582.425601146408 stress="0.0008233130704118224 4.61160097993015e-05 0.000491706653578672 4.61160097993015e-05 0.00031522673739438074 -0.0001486520550752274 0.000491706653578672 -0.0001486520550752274 -1.5471936639029596e-05" free_energy=-3582.425601146408 pbc="T T T"
Si       7.33705167       2.39496012      10.43463591       0.02193273      -0.02167143       0.00575296
Si       1.35488452       2.09212472       3.82486428      -0.05737893      -0.00466104      -0.00274065
Si       4.87063943       2.06833004       5.85853188       0.13382903       0.21163120       0.10541995
Si       3.65429478       2.20883734       9.36705746       0.08674238       0.02010230      -0.02610297
Si       3.90832296       0.63513735      11.94958719       0.00006662       0.05000970       0.02914961
Si       7.99296932       5.05798378       4.55978512       0.04504451      -0.19384980       0.02365597
Si       6.90382079       3.04768490       1.19596445       0.00503840      -0.15481309       0.12232231
Si       5.50066374       4.06592932       7.09485929      -0.04284981       0.17801630      -0.16642958
Si       4.92250852       4.03511687       0.31879308      -0.00589611       0.11703426      -0.12652469
Si       6.14426823       4.06006690      11.73059817      -0.04226577      -0.09340663       0.07790782
Si       5.91581095       1.71941985       8.59363043      -0.11242528      -0.02570713       0.06620000
Si       3.85764530       4.52810146       8.69877542       0.15173750       0.07058586       0.09886498
Si       2.64726500       3.55167069       0.22180623       0.03742094       0.03120469      -0.07542289
Si       1.37278224      -0.15466913       6.59268602      -0.00148116      -0.03024222       0.04290048
Si       3.74198280      -0.86408890      13.78702643       0.05340501       0.02318309       0.06322723
Si       7.73324018       4.79499229       6.94287085      -0.19809669      -0.08743963      -0.00246752
Si       4.44870442       3.06746193       3.69288264      -0.00818783       0.04866001      -0.08096552
Si       6.32000673       6.33716967       3.40463686       0.01395879       0.01972634      -0.08796624
Si       4.57949412       5.11563156       2.34141968      -0.04255890      -0.10603673       0.04304804
Si       3.05075177       1.41005807       7.22906586       0.02645407       0.02055574      -0.04815359
Si       6.19192009       0.36396685      11.28177177      -0.06086463      -0.04745721      -0.03175033
Si       4.07555755       0.94704440       2.62411563      -0.00362490      -0.02542459      -0.02992538
22
Lattice="5.507736700971087 1.0980615093954431 -0.2644577064499522 3.890241765855711 6.326739756455008 -0.8024232873096133 0.7208433761426946 -1.2034800084891168 13.365591492361814" Properties=species:S:1:pos:R:3:forces:R:3 unique_starting_index=40 config_type=initial n_minim_iter=8 energy=-3582.431410998481 stress="-0.0004857795957795323 -0.0003704291605820454 -0.0007008356665189218 -0.0003704291605820454 0.0005606418452069791 0.0009843669421786487 -0.0007008356665189218 0.0009843669421786487 0.00010252143576844972" free_energy=-3582.431410998481 pbc="T T T"
Si       7.30706237       2.41002927      10.42847658       0.01369949       0.02103458       0.03742855
Si       1.34477147       2.09682557       3.82717566      -0.03770776      -0.01900221      -0.02065217
Si       4.85371957       2.08523373       5.85447197       0.10532611       0.22206027       0.13131675
Si       3.63109801       2.22697734       9.36650897       0.08236049       0.02069493      -0.04388568
Si       3.88037347       0.65492153      11.94974940       0.01411350       0.07303674       0.04194126
Si       7.96893343       5.05928232       4.55506270       0.06411316      -0.19246238       0.03580392
Si       6.88937428       3.04843922       1.18853349       0.01914227      -0.17155931       0.13509685
Si       5.47363878       4.08715893       7.09165580      -0.06191221       0.15312695      -0.15770909
Si       4.91229390       4.03835174       0.31778279      -0.02957580       0.13506932      -0.09938323
Si       6.11062778       4.08090718      11.73110523      -0.00480355      -0.13034247       0.05326992
Si       5.88856047       1.72965153       8.59086708      -0.11402195      -0.03743367       0.04438893
Si       3.83445397       4.54679103       8.70295846       0.16556746       0.07299637       0.09787835
Si       2.63912080       3.55520826       0.22252905       0.03967272       0.00070758      -0.09016802
Si       1.35863176      -0.13848315       6.59105577       0.00159729      -0.04354498       0.02739134
Si       3.71105849      -0.84246592      13.78526129       0.04669360       0.03532718       0.06739542
Si       7.70574529       4.80628847       6.93990947      -0.16711669      -0.09941553      -0.00848672
Si       4.43389655       3.07550343       3.68912720      -0.03611876       0.00364850      -0.08989136
Si       6.30251789       6.34353771       3.40526430       0.00394499       0.03687205      -0.08753653
Si       4.56676572       5.11933701       2.34304718      -0.04523816      -0.10135601       0.01713918
Si       3.03470492       1.42255205       7.22648614       0.04615096       0.05548642      -0.03467583
Si       6.16376762       0.37956563      11.27582270      -0.10517629      -0.03558363      -0.04783188
Si       4.06500301       0.94857721       2.61921275      -0.00071086       0.00063928      -0.00882997
22
Lattice="5.496902505330014 1.1007584679824984 -0.28045925452754183 3.884906663191071 6.3379789799587245 -0.8211655888039063 0.6835997222006601 -1.2245104921902854 13.354712702728518" Properties=species:S:1:pos:R:3:forces:R:3 unique_starting_index=40 config_type=initial n_minim_iter=9 energy=-3582.4629399977757 stress="-0.0028284322620218375 -0.00019708204144222398 -0.002183878890789042 -0.00019708204144222398 -0.003052509388108988 -0.0009351606292773497 -0.002183878890789042 -0.0009351606292773497 -0.002535966186444493" free_energy=-3582.4629399977757 pbc="T T T"
Si       7.27184443       2.38847235      10.39709264       0.05060066       0.11906639       0.06686743
Si       1.33361906       2.06262260       3.81510954      -0.08325647      -0.11975166      -0.09119328
Si       4.84595289       2.14665697       5.83132907      -0.04599511       0.08329063       0.15325541
Si       3.60458245       2.22755902       9.33898381      -0.04919024       0.04577901      -0.03334163
Si       3.83992207       0.64138806      11.95123953       0.07884595      -0.03156326      -0.02486022
Si       7.93184874       4.99800275       4.51957791       0.03833678       0.02024753       0.16070243
Si       6.86704271       3.04829073       1.16318554       0.01926538      -0.11516553       0.08549450
Si       5.41283734       4.15047868       7.04034382       0.07956132       0.15463114      -0.18378195
Si       4.89889866       4.06028962       0.30200874      -0.08200982      -0.08613294      -0.22288341
Si       6.06094077       4.06099727      11.70786885       0.11362679      -0.14148230      -0.00451655
Si       5.83340394       1.69235538       8.58648701      -0.04306182      -0.07795729      -0.01718395
Si       3.81645613       4.54777577       8.68573661      -0.00992278       0.00300893       0.07110349
Si       2.62090025       3.56887773       0.20079214       0.10025240      -0.07650810       0.06634733
Si       1.33593408      -0.10382169       6.57517910      -0.02826048      -0.11270513      -0.02857199
Si       3.65825171      -0.86134628      13.78756269       0.05108327       0.08243445      -0.09877149
Si       7.66188060       4.79103547       6.91062224      -0.02117564      -0.05951410       0.04785912
Si       4.41548888       3.08246041       3.64920060      -0.08938496      -0.19120418      -0.03495620
Si       6.29550478       6.32866740       3.37306137       0.03281525       0.04401307      -0.06088072
Si       4.56193975       5.09740569       2.32304343      -0.12388621       0.16812404       0.14584358
Si       3.03107677       1.41590127       7.19591516       0.15826159       0.19037791      -0.03271294
Si       6.12876653       0.35564551      11.25954041      -0.21500847       0.05973620      -0.02302943
Si       4.05455323       0.93485237       2.60611775       0.06850262       0.04127520       0.05921047
22
Lattice="5.470419755031487 1.1062494883047507 -0.2569445359508916 3.8627503302905764 6.375436362546932 -0.7985121034047883 0.7357279629535355 -1.213578203306681 13.390813476178204" Properties=species:S:1:pos:R:3:forces:R:3 unique_starting_index=40 config_type=initial n_minim_iter=10 energy=-3582.475153175445 stress="-0.006075824847875095 -0.0005941932693793939 0.0008056201368575266 -0.0005941932693793939 0.0007486304957554492 0.0001294352506094231 0.0008056201368575266 0.0001294352506094231 2.8525721548693243e-05" free_energy=-3582.475153175445 pbc="T T T"
Si       7.28457474       2.41341039      10.45843979       0.03142645       0.08603233       0.05090185
Si       1.34543094       2.05686560       3.82831403      -0.06425606      -0.04885173      -0.05446700
Si       4.85305653       2.20054708       5.86668222      -0.02680348       0.12952591       0.13169332
Si       3.62490712       2.25888267       9.37630521      -0.12531021       0.08235864      -0.11401288
Si       3.87465768       0.65998434      12.01014656      -0.02695937       0.01377411       0.03473285
Si       7.90695022       5.00339762       4.57148278      -0.03900073       0.01866756       0.15116897
Si       6.83747035       3.06815405       1.19878642       0.00762653      -0.10712724       0.06943011
Si       5.40781912       4.22118057       7.07104389      -0.01216345       0.10757631      -0.24170950
Si       4.87022377       4.08803895       0.32551516       0.03751353      -0.07705574      -0.04794113
Si       6.08270947       4.09382191      11.77362684       0.11837930      -0.02212521      -0.06066623
Si       5.83352750       1.69594758       8.64551811       0.02546119      -0.09064176       0.02298881
Si       3.83362315       4.59207655       8.73886942      -0.08557846      -0.08087500       0.05583555
Si       2.60672865       3.59616611       0.21433297       0.01411413      -0.14918906       0.06002687
Si       1.35360886      -0.06895860       6.59098329       0.03357119      -0.13843250       0.00187933
Si       3.69142383      -0.84739945      13.84695688       0.07467151       0.05667460      -0.13072252
Si       7.65202263       4.82132408       6.96862028       0.17827130      -0.05148027       0.05824591
Si       4.40883282       3.10378357       3.67057027      -0.11074688      -0.26786463      -0.01934860
Si       6.28615646       6.35900822       3.41595490      -0.00143846       0.01362612      -0.05330948
Si       4.55470825       5.12646901       2.36091310      -0.07935259       0.11527857       0.08994264
Si       3.06236836       1.43870701       7.22336428       0.07604017       0.25304311       0.04415453
Si       6.14735758       0.36981978      11.31877678      -0.10347246       0.01531873      -0.05927407
Si       4.05358414       0.93806193       2.63429670       0.07800684       0.14176716       0.01045068
22
Lattice="5.5015909274471735 1.1103709429551156 -0.26033723075082216 3.8895543418206984 6.379161702346701 -0.7915707278370696 0.7256474616163703 -1.1921813259157168 13.37632880162744" Properties=species:S:1:pos:R:3:forces:R:3 unique_starting_index=40 config_type=initial n_minim_iter=11 energy=-3582.4922192652557 stress="-0.0003055757598707662 -0.00029777674206729257 -8.050900017222515e-05 -0.00029777674206729257 0.00011204167536649291 0.0009868949904535255 -8.050900017222515e-05 0.0009868949904535255 0.0005337090540671814" free_energy=-3582.4922192652557 pbc="T T T"
Si       7.31934425       2.43460644      10.44700196       0.02375718       0.08244652       0.04459198
Si       1.35366604       2.03847855       3.81995226      -0.13848172       0.04837617       0.00505314
Si       4.87937221       2.24656473       5.85690435      -0.02723230       0.08942509       0.19306985
Si       3.63313782       2.28248853       9.36169932      -0.07441686       0.04945214      -0.08009466
Si       3.88872294       0.67977632      12.00724267      -0.00845105       0.05302448      -0.01809293
Si       7.94188136       4.98994354       4.56939043      -0.03579323      -0.01206634       0.09907984