12
Lattice="7.289767775092742 -1.2585236647880917 -0.8981166341154415 2.4094665033902007 6.9942166965753145 -0.898116634115441 2.409466503390204 1.4248506466617177 6.906191520790263" Properties=species:S:1:pos:R:3:forces:R:3 unique_starting_index=234 config_type=initial n_minim_iter=14 energy=-1945.460577910036 stress="-1.2363608482702718e-05 1.1127505293915988e-05 7.940892201472403e-06 1.1127505293915988e-05 -2.460025811200341e-05 4.6958936722220405e-06 7.940892201472403e-06 4.6958936722220405e-06 -2.7829446498063864e-05" free_energy=-1945.460577910036 pbc="T T T"
Si       8.47261542       6.20658631       4.77535809      -0.00060286       0.00010721       0.00049016
Si       9.52086991       5.95757607       2.64032083      -0.00019652       0.00027496      -0.00070778
Si       9.80772736       4.27623048       4.31663149       0.00014626      -0.00076839      -0.00005799
Si       3.46651951       0.85368372       2.22037896      -0.00019652      -0.00057992       0.00049016
Si       3.75337697       1.89221940       0.08534171       0.00014626      -0.00030468      -0.00070778
Si       2.41826503       2.95367422       1.76165236      -0.00060286       0.00049838      -0.00005799
Si       5.56590813       7.00783151       3.44847703       0.00048000      -0.00061168       0.00050788
Si       8.82250215       3.74909008       0.29800861      -0.00030473       0.00071287       0.00051132
Si       7.53600398       2.20819571       5.50577383       0.00047785       0.00028503      -0.00074358
Si       5.17761826       4.91477519      -0.00461873      -0.00030473       0.00071532       0.00050788
Si       3.89112009       3.76917708       4.64922100       0.00047785      -0.00061050       0.00051132
Si       6.80132552       0.70089319       2.05267807       0.00048000       0.00028140      -0.00074358
