14
Lattice="7.154809999999996 -8.031901127929231e-08 -2.6241995490439765e-07 -2.936364167120835 6.524497805513365 -2.6241996506425864e-07 -2.9363642769856253 -2.7274561040861243 5.927061444416822" Properties=species:S:1:pos:R:3:forces:R:3 unique_starting_index=10 config_type=initial n_minim_iter=1 energy=-2266.789362150192 stress="-0.06414942637702963 -0.18201889405324573 0.005077021491574519 -0.009072193209741496 0.014031624180657563 -0.13095090499633963" pbc="T T T"
Si       2.32869203       3.33949300       3.07102350       0.63748831      -0.91531654       0.75220887
Si      -0.84677342       0.76662844       2.85603740      -1.09630849       0.20567812      -0.75220881
Si       0.55959687       2.17032154       3.60741082       0.63815750       1.42126444       0.88186877
Si       3.03154466       5.19804876       2.31964982       1.03415375       1.16523100      -0.88186898
Si       0.00800092      -2.53730389       5.81956815      -0.63748831       0.91531654      -0.75220887
Si      -1.03497934       2.76301686       0.10749306       1.09630849      -0.20567812       0.75220881
Si       1.77709609      -1.36813243       5.28318083      -0.63815750      -1.42126444      -0.88186877
Si      -0.69485159       4.85609425       0.64388012      -1.03415375      -1.16523100       0.88186898
Si       3.18147043       4.92065027      -0.00000040       3.74647290       5.79451649      -0.00000047
Si      -1.89938888      -1.12360864       5.92706132      -3.30668264      -5.11431087       0.00000041
Si      -0.84477736       5.13349275       2.96353033      -3.74647290      -5.79451649       0.00000047
Si      -2.91872816       1.92579783       2.96353059       3.30668264       5.11431087      -0.00000041
Si       3.16383432       0.26739634       2.96353046       0.25791357       0.39890438      -0.00000003
Si       2.10922292       3.26224887      -0.00000026      -0.25791357      -0.39890438       0.00000003
14
Lattice="7.167568087268272 0.026011428152563625 -0.002777013148717957 -2.917880148272741 6.546807185435755 0.0027764844217966766 -2.953816258713169 -2.7504327524503607 5.926684747165094" Properties=species:S:1:pos:R:3:forces:R:3 unique_starting_index=10 config_type=initial n_minim_iter=2 energy=-2267.33820693549 stress="-0.05496568141102821 -0.16474189172521247 0.00872356371196323 -0.008846388519568735 0.0136823788863043 -0.121959438314589" pbc="T T T"
Si       2.34385691       3.36552069       3.07060182       0.55752235      -0.80721046       0.66573121
Si      -0.84671439       0.76816256       2.85608237      -0.96490779       0.17712406      -0.66573115
Si       0.56714937       2.18437632       3.60732009       0.63397344       1.32999346       0.73893589
Si       3.05505181       5.23604830       2.31936384       0.95264056       1.12395756      -0.73893609
Si      -0.00353130      -2.54855013       5.81803639      -0.55752235       0.80721046      -0.66573121
Si      -1.02671183       2.77322932       0.10864812       0.96490779      -0.17712406       0.66573115
Si       1.77317624      -1.36740577       5.28131813      -0.63397344      -1.32999346      -0.73893589
Si      -0.67879009       4.87816220       0.64536611      -0.95264056      -1.12395756       0.73893609
Si       3.20541005       4.95767669      -0.00000040       3.48733196       5.39371378      -0.00000043
Si      -1.90949406      -1.13522230       5.92668462      -3.05158412      -4.71976042       0.00000038
Si      -0.82914833       5.15653380       2.96473035      -3.48733196      -5.39371378       0.00000043
Si      -2.91774841       1.92618143       2.96473061       3.05158412       4.71976042      -0.00000038
Si       3.16932388       0.28103418       2.96195373       0.24485093       0.37870093      -0.00000003
Si       2.12481799       3.28636913      -0.00000026      -0.24485093      -0.37870093       0.00000003
14
Lattice="7.303366711281408 0.3211907925997295 -0.034323331725628646 -2.7044373121520007 6.791785310845897 0.03432275954766733 -3.148205764514697 -3.0077298999118183 5.91521529515259" Properties=species:S:1:pos:R:3:forces:R:3 unique_starting_index=10 config_type=initial n_minim_iter=3 energy=-2270.739153125232 stress="0.018592894750706145 -0.02501469290458753 0.03930993660553575 -0.007527320045903104 0.011642210112208475 -0.04844726145504963" pbc="T T T"
Si       2.51290042       3.65677277       3.06199732       0.07555125      -0.04392567      -0.03864553
Si      -0.84488621       0.78454790       2.85321738      -0.07106253       0.05086819       0.03864553
Si       0.65223659       2.34123516       3.60177020       0.54339298       0.51612549      -0.11833134
Si       3.31802377       5.66087552       2.31344421       0.24764600       0.70734216       0.11833125
Si      -0.13432866      -2.67304013       5.79366353      -0.07555125       0.04392567       0.03864553
Si      -0.93170298       2.88572384       0.12155150       0.07106253      -0.05086819      -0.03864553
Si       1.72633517      -1.35750253       5.25389065      -0.54339298      -0.51612549       0.11833134
Si      -0.49568356       5.12237233       0.66132410      -0.24764600      -0.70734216      -0.11833124
Si       3.47329041       5.37199630      -0.00000043       1.12651085       1.74232829      -0.00000014
Si      -2.02196178      -1.26581436       5.91521515      -0.72496357      -1.12127152       0.00000009
Si      -0.65095020       5.41125154       2.97476874      -1.12651085      -1.74232829       0.00000014
Si      -2.90283318       1.92835620       2.97476902       0.72496357       1.12127152      -0.00000009
Si       3.22765395       0.43550209       2.94044584       0.13974102       0.21613172      -0.00000002
Si       2.29912357       3.55596044      -0.00000029      -0.13974102      -0.21613172       0.00000002
14
Lattice="7.253957287182294 0.4762551916387808 -0.06846533685496858 -2.542755672374304 6.810367758256331 0.06846475070860664 -3.2153227203511094 -3.087453609754777 5.822489979093202" Properties=species:S:1:pos:R:3:forces:R:3 unique_starting_index=10 config_type=initial n_minim_iter=4 energy=-2271.6704214278 stress="0.025319267483279905 -0.01054354342367494 0.04360129220659452 -0.007935441043103179 0.012273432222971052 -0.03984295043662132" pbc="T T T"
Si       2.55461509       3.75874615       3.01016698      -0.24337372       0.28274954      -0.14725950
Si      -0.83613312       0.78471427       2.81232239       0.35772196      -0.10589178       0.14725948
Si       0.67911957       2.39282068       3.54576894       0.58928883       0.45070763      -0.45008299
Si       3.39918718       5.80048426       2.27672013       0.16915538       0.72234703       0.45008290
Si      -0.21721931      -2.68683175       5.68933488       0.24337372      -0.28274954       0.14725950
Si      -0.86510567       2.89839856       0.13315483      -0.35772196       0.10589178      -0.14725948
Si       1.65827621      -1.32090628       5.15373292      -0.58928884      -0.45070763       0.45008299
Si      -0.38922436       5.16925151       0.66875650      -0.16915538      -0.72234703      -0.45008290
Si       3.56005151       5.50618615      -0.00000044       0.74118091       1.14635422      -0.00000009
Si      -2.06285108      -1.30497283       5.82248984      -0.35932883      -0.55575921       0.00000004
Si      -0.55008869       5.46354962       2.94547708      -0.74118091      -1.14635422       0.00000009
Si      -2.85371043       1.90063204       2.94547736       0.35932883       0.55575921      -0.00000004
Si       3.19771137       0.51697475       2.87701217       0.12446345       0.19250253      -0.00000002
Si       2.35500713       3.64239326      -0.00000029      -0.12446345      -0.19250253       0.00000002
14
Lattice="7.110061402046951 0.7450202655787839 -0.1411188021050593 -2.2386123209115594 6.789450889779165 0.1411181960214336 -3.3189083952675587 -3.196208296928785 5.606955166801534" Properties=species:S:1:pos:R:3:forces:R:3 unique_starting_index=10 config_type=initial n_minim_iter=5 energy=-2272.980528759778 stress="0.006098126646175324 -0.007974356699454338 0.017496157438221863 -0.00564914962465554 0.008737313221086713 -0.015634280042431215" pbc="T T T"
Si       2.60137309       3.91305280       2.89016337      -1.08717203       0.95231456      -0.24158023
Si      -0.81819566       0.78192648       2.71679116       1.31459918      -0.60056229       0.24158020
Si       0.71497810       2.46932159       3.41454573       0.74130137       0.37351440      -1.38899127
Si       3.51089395       6.00367362       2.19240850       0.03637608       0.82928752       1.38899117
Si      -0.37111817      -2.68400174       5.44970952       1.08717203      -0.95231456       0.24158023
Si      -0.74270243       2.89831261       0.15724537      -1.31459918       0.60056229      -0.24158020
Si       1.51527682      -1.24027053       4.92532716      -0.74130137      -0.37351440       1.38899127
Si      -0.20034296       5.21103663       0.68162743      -0.03637608      -0.82928752      -1.38899117
Si       3.68413830       5.69810611      -0.00000046       0.31261984       0.48351633      -0.00000004
Si      -2.12868827      -1.35534348       5.60695502       0.01197394       0.01851960      -0.00000000
Si      -0.37358731       5.51660414       2.87403638      -0.31261984      -0.48351633       0.00000004
Si      -2.75111821       1.83937428       2.87403668      -0.01197394      -0.01851960       0.00000000
Si       3.11455553       0.65975103       2.73291803       0.03240191       0.05011471      -0.00000000
Si       2.43460778       3.76550833      -0.00000030      -0.03240191      -0.05011471       0.00000000
14
Lattice="7.071833530278958 0.899336336855077 -0.2137248269974981 -2.0822020372512235 6.817922723835132 0.21372420621015256 -3.422192725553758 -3.2590289786114472 5.493242194585539" Properties=species:S:1:pos:R:3:forces:R:3 unique_starting_index=10 config_type=initial n_minim_iter=6 energy=-2273.2355038196147 stress="-0.008447530742488158 -0.0021088978317766196 -0.012175885213341578 -0.004600087602138468 0.007114765638493127 0.007042111197481866" pbc="T T T"
Si       2.62577144       4.03463379       2.82272059      -1.53295338       1.34661771      -0.24490258
Si      -0.82062302       0.79125211       2.67052096       1.85711622      -0.84524829       0.24490254
Si       0.72650777       2.53852889       3.34081005       0.80939776       0.24186453      -1.95616367
Si       3.58417061       6.16255777       2.15243118      -0.11162294       0.83735526       1.95616359
Si      -0.48092014      -2.68556479       5.31027983       1.53295338      -1.34661771       0.24490258
Si      -0.68416649       2.91750954       0.18296209      -1.85711622       0.84524829      -0.24490254
Si       1.41834353      -1.18945989       4.79219036      -0.80939776      -0.24186453       1.95616367
Si      -0.09932863       5.26346294       0.70105125       0.11162294      -0.83735526      -1.95616359
Si       3.77554742       5.83948486      -0.00000047       0.00177441       0.00274441      -0.00000000
Si      -2.20301981      -1.37338406       5.49324204       0.26208050       0.40534919      -0.00000003
Si      -0.29070543       5.58653585       2.85348289      -0.00177441      -0.00274441       0.00000000
Si      -2.72396242       1.82311673       2.85348320      -0.26208050      -0.40534919       0.00000003
Si       3.07358265       0.75156320       2.63975853      -0.01661807      -0.02570250       0.00000000
Si       2.49346137       3.85653478      -0.00000031       0.01661807       0.02570250      -0.00000000
14
Lattice="7.1160470816669035 0.8600842231575977 -0.25340456054539096 -2.136141610057169 6.842131997792358 0.2534039409681135 -3.458245796949152 -3.2250530613166144 5.5546278202259" Properties=species:S:1:pos:R:3:forces:R:3 unique_starting_index=10 config_type=initial n_minim_iter=7 energy=-2273.3703531184387 stress="0.0028492891886226935 0.0019803971216815247 0.005400453473437882 -0.004254369179245323 0.006580059400517552 -0.0009653225349250062" pbc="T T T"
Si       2.60133625       4.04071028       2.85005758      -1.19351133       1.09031129      -0.25276472
Si      -0.84110662       0.80543929       2.70456960       1.48408101      -0.64089905       0.25276469
Si       0.70099208       2.55228685       3.37378588       0.68951489       0.25943598      -1.51216589
Si       3.56140919       6.16386931       2.18084098      -0.04639906       0.73524498       1.51216581
Si      -0.49575230      -2.67158558       5.35518141       1.19351133      -1.09031129       0.25276472
Si      -0.71111072       2.92865424       0.19944613      -1.48408101       0.64089905      -0.25276469
Si       1.40459187      -1.18316215       4.83145311      -0.68951489      -0.25943598       1.51216589
Si      -0.13372105       5.27244044       0.72317412       0.04639906      -0.73524498      -1.51216581
Si       3.76819519       5.82811347      -0.00000047       0.01085715       0.01679231      -0.00000000
Si      -2.24037919      -1.34142857       5.55462767       0.24049365       0.37196169      -0.00000003
Si      -0.34050706       5.60819628       2.90401557      -0.01085715      -0.01679231       0.00000000
Si      -2.77008394       1.85046904       2.90401588      -0.24049365      -0.37196169       0.00000003
Si       3.07516089       0.74505536       2.65061147       0.00077120       0.00119278       0.00000000
Si       2.48866886       3.84912240      -0.00000031      -0.00077120      -0.00119278       0.00000000
14
Lattice="7.1036136583259655 0.8629135824632359 -0.28311775524718497 -2.128458775414336 6.8319550971451815 0.2831171362609537 -3.4788361167780697 -3.2065307619379 5.54004985661664" Properties=species:S:1:pos:R:3:forces:R:3 unique_starting_index=10 config_type=initial n_minim_iter=8 energy=-2273.4487999195635 stress="-0.0003131281698919564 -0.0014349918142022835 0.000999466294811055 -0.0037125732683112047 0.005742085712023531 -0.0012463696693378822" pbc="T T T"
Si       2.58358525       4.04785125       2.83911528      -1.18100320       1.09652857      -0.22196731
Si      -0.84789997       0.81070508       2.70093393       1.48461718      -0.62694125       0.22196727
Si       0.68811433       2.56023160       3.36207094       0.68062998       0.26005801      -1.53408426
Si       3.54859821       6.16656136       2.17797796      -0.04218542       0.72739808       1.53408418
Si      -0.51866643      -2.65503908       5.32940016       1.18100320      -1.09652857       0.22196731
Si      -0.71195875       2.92572427       0.21064942      -1.48461717       0.62694125      -0.22196727
Si       1.37680449      -1.16741943       4.80644450      -0.68062998      -0.26005801       1.53408426
Si      -0.13330206       5.26473667       0.73360477       0.04218542      -0.72739808      -1.53408418
Si       3.76463878       5.82261292      -0.00000047       0.02774761       0.04291609      -0.00000000
Si      -2.26128366      -1.32339214       5.54004971       0.21220359       0.32820662      -0.00000003
Si      -0.34934263       5.60868511       2.91158319      -0.02774761      -0.04291609       0.00000000
Si      -2.77741118       1.85329073       2.91158349      -0.21220359      -0.32820661       0.00000003
Si       3.05746286       0.75389661       2.62846590      -0.01192611      -0.01844563       0.00000000
Si       2.48629207       3.84544632      -0.00000031       0.01192611       0.01844562      -0.00000000
14
Lattice="7.108119565278249 0.8709776389027026 -0.3168464833734612 -2.1229543730436506 6.839373576927264 0.31684586314179214 -3.511700383859178 -3.1962595848126925 5.54247551120069" Properties=species:S:1:pos:R:3:forces:R:3 unique_starting_index=10 config_type=initial n_minim_iter=9 energy=-2273.537023251161 stress="0.0004310431771096063 -0.0007351165045419211 0.0017594165755515125 -0.0033326587622801032 0.005154487479906998 -0.0012955819177124736" pbc="T T T"
Si       2.57145751       4.06870626       2.83664622      -1.11790998       1.06533831      -0.20565074
Si      -0.85676920       0.81847590       2.70582864       1.43028093      -0.58220693       0.20565070
Si       0.67681560       2.57675490       3.35971360       0.64309218       0.24793919      -1.45038710
Si       3.54544897       6.18879295       2.18276095      -0.03783096       0.68819360       1.45038702
Si      -0.54607440      -2.64484340       5.31864334       1.11790998      -1.06533831       0.20565074
Si      -0.71426688       2.93066891       0.22383190      -1.43028093       0.58220693      -0.20565070
Si       1.34856751      -1.15289204       4.79557596      -0.64309218      -0.24793919       1.45038709
Si      -0.13131986       5.27070307       0.74689896       0.03783096      -0.68819360      -1.45038702
Si       3.77233916       5.83452277      -0.00000047       0.00459647       0.00710917      -0.00000000
Si      -2.29073686      -1.30784521       5.54247536       0.21835534       0.33772128      -0.00000003
Si      -0.35821005       5.62497325       2.92966038      -0.00459647      -0.00710917       0.00000000
Si      -2.79199960       1.86073043       2.92966068      -0.21835534      -0.33772128       0.00000003
Si       3.04573482       0.76685530       2.61281436      -0.02080061      -0.03217145       0.00000000
Si       2.49134867       3.85326714      -0.00000031       0.02080061       0.03217145      -0.00000000
14
Lattice="7.109557104167687 0.9218744138920757 -0.5160681811721036 -2.0771313720995868 6.861572746949632 0.5160675550604934 -3.6967282320516315 -3.128455166528702 5.5325926939523375" Properties=species:S:1:pos:R:3:forces:R:3 unique_starting_index=10 config_type=initial n_minim_iter=10 energy=-2273.9969178796878 stress="0.000398845901142247 -0.0003473778519331998 0.0021059921978151194 -0.002328394406542625 0.003601232816927923 -0.0008290407830942269" pbc="T T T"
Si       2.49240652       4.18464177       2.81091511      -0.88878127       0.92116547      -0.07871915
Si      -0.90363216       0.86177386       2.72167692       1.20477379      -0.43243276       0.07871911
Si       0.61139663       2.66795578       3.32913259       0.48327077       0.16177757      -1.08611824
Si       3.51769630       6.30746674       2.20345914      -0.05081071       0.50709074       1.08611819
Si      -0.70840101      -2.57880194       5.22993937       0.88878128      -0.92116547       0.07871915
Si      -0.72519121       2.95064673       0.30265304      -1.20477379       0.43243276      -0.07871911
Si       1.17260887      -1.06211594       4.71172190      -0.48327078      -0.16177757       1.08611824
Si      -0.11409393       5.28840101       0.82087021       0.05081071      -0.50709074      -1.08611819
Si       3.80824259       5.89005314      -0.00000047      -0.05491082      -0.08492832       0.00000001
Si      -2.45750245      -1.21179531       5.53259254       0.19465640       0.30106709      -0.00000002
Si      -0.40464023       5.70581461       3.02432982       0.05491082       0.08492832      -0.00000001
Si      -2.86804915       1.89576073       3.02433012      -0.19465640      -0.30106709       0.00000002
Si       2.96512947       0.84351271       2.50826210      -0.09037486      -0.13977910       0.00000001
Si       2.51560427       3.89078229      -0.00000031       0.09037486       0.13977910      -0.00000001
14
Lattice="7.123365929002937 1.0163521031136973 -0.9822646125393145 -1.9966439816078259 6.9129391592689835 0.9822639746957961 -4.124609111437862 -2.955212593928345 5.439025379038398" Properties=species:S:1:pos:R:3:forces:R:3 unique_starting_index=10 config_type=initial n_minim_iter=11 energy=-2275.519344050744 stress="0.025913140926561072 0.016853795317537033 0.024986027537502856 -0.0125092743776461 0.01934758514702709 -0.010064770018453215" pbc="T T T"
Si       2.29308745       4.46068284       2.73229525      -0.50422533       0.16099787       0.14046857
Si      -0.99798877       0.96654506       2.70672946       0.35375074      -0.39373077      -0.14046856
Si       0.46679293       2.87162663       3.20585752       0.10005112      -0.04626568      -0.67959537
Si       3.42918582       6.57827616       2.23316686      -0.08325119       0.07224944       0.67959537
Si      -1.07327669      -2.43835723       4.93511004       0.50422533      -0.16099787      -0.14046857
Si      -0.78095728       2.99464105       0.50391506      -0.35375074       0.39373077       0.14046856
Si       0.75301783      -0.84930101       4.46154776      -0.10005112       0.04626568       0.67959537
Si      -0.08140993       5.31220122       0.97747702       0.08325119      -0.07224944      -0.67959537
Si       3.87348936       5.99096765      -0.00000048      -0.01905042      -0.02946451       0.00000000
Si      -2.84049969      -0.96913304       5.43902522       0.08440455       0.13054506      -0.00000001
Si      -0.52571347       5.89950972       3.21064436       0.01905042       0.02946451      -0.00000000
Si      -3.06305548       1.97510656       3.21064468      -0.08440455      -0.13054506       0.00000001
Si       2.77162105       0.99829545       2.22838023      -0.08670113      -0.13409710       0.00000001
Si       2.57279882       3.97924276      -0.00000032       0.08670113       0.13409710      -0.00000001
14
Lattice="6.738265913650334 1.1151985273035872 -1.214430568213045 -1.7484588780968797 6.602332037835204 1.2144299474038591 -4.196570111781381 -2.758544026163687 5.205779828130824" Properties=species:S:1:pos:R:3:forces:R:3 unique_starting_index=10 config_type=initial n_minim_iter=12 energy=-2275.7402494014427 stress="-0.06452529011546787 -0.06475171129714057 -0.07065237281317117 -0.009893590457666171 0.01530201121783915 -0.0002515469369514976" pbc="T T T"
Si       2.11593875       4.41412482       2.59430182      -1.24907201       0.80896741       0.65372207
Si      -1.03970363       0.98256347       2.61147736       1.25032474      -0.80702986      -0.65372207
Si       0.35283495       2.86082141       3.06653314       0.28907638      -0.10313484      -0.85843029
Si       3.25722543       6.45483082       2.13924572      -0.21268714       0.22128295       0.85843028
Si      -1.29930569      -2.20619366       4.60715218       1.24907201      -0.80896741      -0.65372207
Si      -0.68535910       2.86871318       0.59862738      -1.25032474       0.80702986       0.65372207
Si       0.46379812      -0.65289025       4.13492085      -0.28907638       0.10313483       0.85843029
Si       0.00751887       5.11397640       1.07085840       0.21268714      -0.22128295      -0.85843028
Si       3.76976958       5.83054851      -0.00000047       0.38819914       0.60041174      -0.00000005
Si      -2.94554094      -0.82362835       5.20577967      -0.15314866      -0.23686877       0.00000002
Si      -0.50502528       5.73825871       3.21010458      -0.38819914      -0.60041173       0.00000005
Si      -2.97609190       1.91636098       3.21010489       0.15314866       0.23686877      -0.00000002
Si       2.50786751       1.09157491       1.99567448      -0.09513671      -0.14714406       0.00000001
Si       2.50533567       3.87490027      -0.00000031       0.09513671       0.14714406      -0.00000001
14
Lattice="7.055083441969873 1.1578065958263117 -1.3375305046161028 -1.839627658103983 6.908725664103142 1.3375298557327224 -4.444812081683075 -2.8454899436632264 5.4886539309351745" Properties=species:S:1:pos:R:3:forces:R:3 unique_starting_index=10 config_type=initial n_minim_iter=13 energy=-2276.5213679529124 stress="0.01711256003430575 0.017462192124487446 0.01673514908427124 -0.0038753415493899706 0.005993832189934214 0.0003884362741092513" pbc="T T T"
Si       2.17868102       4.63504683       2.73372440      -0.64221906       0.22817341       0.21280303
Si      -1.11223569       1.04349977       2.75492885       0.47164157      -0.49199865      -0.21280301
Si       0.33598042       3.01178794       3.23148815       0.04095775      -0.23012192      -0.36260614
Si       3.37921630       6.76347418       2.25716476      -0.22665824      -0.05709344       0.36260617
Si      -1.40676558      -2.27447924       4.83049076       0.64221906      -0.22817341      -0.21280303
Si      -0.72612023       3.00475117       0.65816288      -0.47164157       0.49199865       0.21280301
Si       0.43593501      -0.65122035       4.33272701      -0.04095775       0.23012192       0.36260614
Si      -0.00211644       5.35130902       1.15592632       0.22665824       0.05709344      -0.36260617
Si       3.94201106       6.09694737      -0.00000049      -0.04126207      -0.06381836       0.00000001
Si      -3.13790533      -0.82415070       5.48865377       0.16240243       0.25118119      -0.00000002
Si      -0.56491120       6.01783583       3.41309157       0.04126207       0.06381836      -0.00000001
Si      -3.14526267       2.02691169       3.41309189      -0.16240243      -0.25118119       0.00000002
Si       2.59766311       1.15525768       2.07556155      -0.07070692      -0.10935950       0.00000001
Si       2.61906441       4.05079986      -0.00000033       0.07070692       0.10935950      -0.00000001
14
Lattice="6.986019388511359 1.1406288192657223 -1.3468836529780086 -1.8269479579270764 6.838696066361301 1.3468830111097148 -4.417667802905503 -2.801208736779525 5.442123439418475" Properties=species:S:1:pos:R:3:forces:R:3 unique_starting_index=10 config_type=initial n_minim_iter=14 energy=-2276.618131649734 stress="0.0022360486004324547 0.001151172331095167 0.00021343588279526624 -0.00361926295945039 0.005597766056406928 -0.0012052774126178405" pbc="T T T"
Si       2.14328927       4.59190003       2.70987147      -0.69981140       0.26935476       0.27220114
Si      -1.10991222       1.03779948       2.73225129       0.53283112      -0.52761633      -0.27220112
Si       0.32022703       2.98631196       3.20348442       0.08808010      -0.25933659      -0.39476241
Si       3.33320985       6.69572699       2.23863801      -0.27263842      -0.02611221       0.39476243
Si      -1.40747770      -2.23890505       4.77987138       0.69981140      -0.26935476      -0.27220114
Si      -0.72262780       2.97577542       0.66225178      -0.53283112       0.52761633       0.27220112
Si       0.41558453      -0.63331698       4.28625843      -0.08808010       0.25933659       0.39476241
Si      -0.00667844       5.29717279       1.15586441       0.27263842       0.02611221      -0.39476243
Si       3.89924147       6.03079738      -0.00000048       0.07703397       0.11914530      -0.00000001
Si      -3.12428995      -0.80079409       5.44212328       0.07870978       0.12173720      -0.00000001
Si      -0.57271006       5.96210240       3.39450291      -0.07703397      -0.11914530       0.00000001
Si      -3.12591787       2.01316025       3.39450323      -0.07870978      -0.12173720       0.00000001
Si       2.56246843       1.14679302       2.04761973      -0.07723964      -0.11946339       0.00000001
Si       2.59101093       4.00741070      -0.00000032       0.07723964       0.11946339      -0.00000001
14
Lattice="6.981884456526308 1.1419671785329584 -1.3677901510016484 -1.8240305081373147 6.835474677151678 1.3677895092848302 -4.4337999915782556 -2.789443291330702 5.450412615138928" Properties=species:S:1:pos:R:3:forces:R:3 unique_starting_index=10 config_type=initial n_minim_iter=15 energy=-2276.641874934154 stress="0.0017687655140818839 0.00022108311998389083 -0.00041509877046117205 -0.002684044995700165 0.004151302789915305 -0.0017194471388419267" pbc="T T T"
Si       2.13179474       4.59720707       2.71375645      -0.67117908       0.24528611       0.26943871
Si      -1.11648750       1.04126105       2.73665549       0.49913201      -0.51138427      -0.26943869
Si       0.31049846       2.99105910       3.20754604       0.08061582      -0.26570149      -0.36446286
Si       3.32418176       6.69868613       2.24286557      -0.27537922      -0.03553110       0.36446289
Si      -1.42316204      -2.22730701       4.77796692       0.67117908      -0.24528611      -0.26943871
Si      -0.72296426       2.97611511       0.67244541      -0.49913201       0.51138427       0.26943869
Si       0.39813424      -0.62115905       4.28417732      -0.08061582       0.26570149       0.36446286
Si      -0.00577957       5.29613189       1.16623469       0.27537922       0.03553110      -0.36446289
Si       3.89862172       6.02983886      -0.00000048       0.08819890       0.13641363      -0.00000001
Si      -3.14042040      -0.78902594       5.45041245       0.06755014       0.10447704      -0.00000001
Si      -0.58021954       5.96497917       3.40910075      -0.08819890      -0.13641363       0.00000001
Si      -3.13283136       2.01695881       3.40910106      -0.06755014      -0.10447704       0.00000001
Si       2.55173197       1.15241244       2.04131107      -0.07941037      -0.12282077       0.00000001
Si       2.59070072       4.00693091      -0.00000032       0.07941037       0.12282077      -0.00000001
14
Lattice="6.972828368483148 1.1581473667505595 -1.4176407010844507 -1.8055590740983432 6.833856819698829 1.4176400581962194 -4.477547630547734 -2.7714829741611102 5.476558323641013" Properties=species:S:1:pos:R:3:forces:R:3 unique_starting_index=10 config_type=initial n_minim_iter=16 energy=-2276.691415573567 stress="0.0016832831951618498 3.167722145522083e-05 -0.0010138196405656715 -0.00039762528729512636 0.0006149907942477981 -0.0018349051089253815" pbc="T T T"
Si       2.10947740       4.62016101       2.72742679      -0.60177027       0.20277532       0.26708547
Si      -1.13014423       1.04829050       2.74913086       0.43188059      -0.46553674      -0.26708545
Si       0.29153716       3.00644698       3.22022622       0.04986865      -0.28654761      -0.30209428
Si       3.31166353       6.72023315       2.25633109      -0.28177011      -0.07212491       0.30209431