24
Lattice="7.529762115608137 -0.9693660578198697 -1.1139954319809324 1.9167771606351867 8.450346822957457 0.3230220335897682 0.717447152863165 2.159606178700871 7.988101838285434" Properties=species:S:1:pos:R:3:forces:R:3 unique_starting_index=364 config_type=initial n_minim_iter=1 energy=-3906.529413904265 stress="0.0007932903988533971 0.00021942317789612484 0.00011095160142835554 0.00021942317789612484 0.002436421279268054 0.00020881177289388278 0.00011095160142835554 0.00020881177289388278 -0.0006721958055219932" free_energy=-3906.529413904265 pbc="T T T"
Si       1.74615125       0.43508505       2.08244579       0.02569613      -0.08978471      -0.19677491
Si       8.19446752       8.16126326       7.02816191       0.07813870      -0.04003843       0.03515288
Si       7.99939878       6.50366601       3.59797699      -0.03425421       0.14482080      -0.15913690
Si       2.64093372       4.13935247       1.27012141       0.12158807       0.03798515       0.13057202
Si       2.11868009       5.64715244       7.32335891      -0.13767428      -0.17565405      -0.12802410
Si       8.21232171       2.59098569       3.36173635       0.08603838      -0.09026745      -0.02751334
Si       4.24276447       5.67074505       3.93957916       0.15897875       0.09959361      -0.19613723
Si       4.89159022       4.01712590       2.33416476      -0.01432604       0.09280265       0.21451388
Si       2.61889081       4.50932678       5.34004842       0.15312989      -0.15760372      -0.05638584
Si       7.22595295       4.49227189       2.43183536      -0.01923986       0.10792032      -0.12796101
Si       8.78657529       9.66864404       5.14262802      -0.11557956       0.09779577      -0.10477628
Si       1.36795275       1.21563496      -0.07776523      -0.31385246      -0.24872166      -0.13469257
Si       4.48864362       6.93210084       7.25367409       0.15559027       0.23110583       0.19986962
Si       5.42209330       0.26944900       2.70255364       0.07951877       0.04172878       0.12930804
Si       4.36348175       2.14491695       3.73654260      -0.01082821       0.09437759       0.11067497
Si       5.64691998       5.45846912       5.82827973      -0.01713607      -0.24360298       0.18455656
Si       5.59709111       3.06860305       5.70925400      -0.09146194      -0.02556819       0.06811851
Si       3.56241534       2.24272167       6.48335909       0.04426056      -0.14832707       0.32751133
Si       2.48917042       7.22308183       3.51086919       0.03139406       0.00811307      -0.12213700
Si       8.81687079       5.04941065       0.74553526       0.05454909      -0.03194003      -0.20953233
Si       7.87824182       6.15281842       5.86048292      -0.04209272      -0.01901292       0.28600736
Si       2.13529415       2.50644124       2.97187593       0.04785333       0.03270752       0.10005677
Si       5.45757383       7.32998480       2.31440525      -0.03761368       0.13128023      -0.11108614
Si       5.35255495       6.52421563       0.02366940      -0.20267697       0.15028991      -0.21218429
24
Lattice="7.519043004690562 -0.9675744670447457 -1.1166259742295386 1.91030043740256 8.41033312276388 0.31967915118031454 0.713780321547497 2.146149595593221 7.997319373269975" Properties=species:S:1:pos:R:3:forces:R:3 unique_starting_index=364 config_type=initial n_minim_iter=2 energy=-3906.5354878276366 stress="-0.0012254463468946326 0.00022521786096721914 -2.6045791038801318e-05 0.00022521786096721914 -0.0018580227356757876 -0.00017329539338588763 -2.6045791038801318e-05 -0.00017329539338588763 -0.0012946747276525287" free_energy=-3906.5354878276366 pbc="T T T"
Si       1.74299106       0.43119276       2.08384922      -0.00128927      -0.08000047      -0.26754224
Si       8.17751271       8.11716803       7.03232101       0.08636647       0.00965228       0.06292948
Si       7.98374104       6.46935403       3.59773136      -0.01187172       0.12112344      -0.08398969
Si       2.63540354       4.11874057       1.27002658       0.13562117       0.00107287       0.10448053
Si       2.11108540       5.61660465       7.32957750      -0.10820729      -0.13709911      -0.13273832
Si       8.19846125       2.57392013       3.36317812       0.07417374      -0.11517306      -0.03038236
Si       4.23375422       5.64154890       3.94075825       0.17971058       0.10563660      -0.16433065
Si       4.88199454       3.99592035       2.33531326      -0.01111511       0.08416729       0.18256059
Si       2.61249674       4.48468581       5.34433630       0.16900811      -0.14881547      -0.03427389
Si       7.21260008       4.46791373       2.43117233      -0.02136099       0.11637908      -0.15376064
Si       8.76778958       9.61858054       5.14313757      -0.09197238       0.07850716      -0.09525441
Si       1.36425295       1.20856769      -0.07912880      -0.32479802      -0.30210992      -0.09884506
Si       4.47802519       6.89613198       7.25999483       0.12012957       0.22730217       0.18833809
Si       5.41352281       0.26502555       2.70523596       0.08364205       0.07107964       0.11275704
Si       4.35517886       2.13204089       3.73995969      -0.01034688       0.07078709       0.12517272
Si       5.63483794       5.42767029       5.83306060      -0.03034644      -0.20323171       0.17365333
Si       5.58583215       3.04972153       5.71441388      -0.09299717      -0.05059989       0.06960849
Si       3.55490196       2.22775224       6.49121783       0.01511073      -0.14140232       0.31201856
Si       2.48178325       7.18727190       3.51152531       0.01079848       0.00434284      -0.08835449
Si       8.80151221       5.02197241       0.74185799       0.02684777      -0.01197583      -0.21091583
Si       7.86240665       6.11868463       5.86493031      -0.04328388      -0.02366110       0.21163321
Si       2.13057770       2.49289888       2.97460212       0.04670868       0.07852001       0.13013406
Si       5.44566475       7.29336835       2.31290133      -0.03044534       0.10502853      -0.13964389
Si       5.34101973       6.49234834       0.01920438      -0.17008286       0.14046991      -0.17325464
24
Lattice="7.532732850440587 -0.97676709188083 -1.1254997980518753 1.9014507824877454 8.396493694458682 0.3206545598242602 0.7098780349187505 2.141754081836376 8.047403320784733" Properties=species:S:1:pos:R:3:forces:R:3 unique_starting_index=364 config_type=initial n_minim_iter=3 energy=-3906.5450974872606 stress="0.0011744915959642692 -0.00046220333091013415 -0.0005412347212596481 -0.00046220333091013415 -0.0008989845450692214 -8.141698970410302e-05 -0.0005412347212596481 -8.141698970410302e-05 0.0032235206638516153" free_energy=-3906.5450974872606 pbc="T T T"
Si       1.74479468       0.42701063       2.09364668       0.00131864      -0.04027655      -0.32659338
Si       8.17841721       8.09428421       7.07464999       0.05251682       0.04294366       0.06965427
Si       7.98624243       6.45093838       3.61648653       0.05023300       0.07922961       0.05163050
Si       2.63507814       4.10972439       1.27852877       0.14111152      -0.00268060       0.04138370
Si       2.10322499       5.60382281       7.37326959      -0.07563234      -0.12844249      -0.15473843
Si       8.20809795       2.55752729       3.38177807       0.08109103      -0.10128691      -0.05617466
Si       4.23366801       5.62910358       3.96194552       0.18570536       0.08776125      -0.10325965
Si       4.88344595       3.98468289       2.35096419      -0.03016614       0.09046022       0.21197425
Si       2.61098802       4.47286014       5.37651297       0.16630327      -0.12778560       0.00971277
Si       7.21700533       4.45306690       2.44264051       0.00389973       0.10076231      -0.15137063
Si       8.76574482       9.59424939       5.17147614      -0.09530918       0.09351799      -0.07769842
Si       1.36087708       1.20172860      -0.08147295      -0.26534743      -0.34898661      -0.07544469
Si       4.47532224       6.88297821       7.30654403       0.10153294       0.13317009       0.16290589
Si       5.42212873       0.25757633       2.72238267       0.05923703       0.10469532       0.15648258
Si       4.35807775       2.12383973       3.76374193       0.00017670       0.06250970       0.12875421
Si       5.63446479       5.40948303       5.87024159      -0.08408481      -0.10111707       0.11781553
Si       5.58792052       3.03698662       5.74966507      -0.13188765      -0.10202025       0.03517851
Si       3.55617415       2.21761436       6.53500989      -0.02181789      -0.07843585       0.30348391
Si       2.47501276       7.17410449       3.53127080      -0.02032529      -0.03765337      -0.06580667
Si       8.80885216       5.00266068       0.74139522      -0.01407727      -0.00360114      -0.18099337
Si       7.86438905       6.09888517       5.90254269      -0.02371660      -0.02763365       0.05464061
Si       2.13030368       2.48708267       2.99406740       0.05465513       0.10245207       0.16287609
Si       5.44313016       7.27733267       2.32407317      -0.04845894       0.07252510      -0.18524339
Si       5.33817684       6.47801523       0.01518891      -0.08695763       0.12989278      -0.12916954
24
Lattice="7.508019201075257 -0.990517774760077 -1.0999919013667738 1.8842146620260702 8.41289047458807 0.3293176262223005 0.7297022059269673 2.1486451749161533 8.035067920811862" Properties=species:S:1:pos:R:3:forces:R:3 unique_starting_index=364 config_type=initial n_minim_iter=4 energy=-3906.590763813958 stress="-0.00137336572474312 -0.0010575944873020035 0.0014215920868738065 -0.0010575944873020035 3.589986683807275e-05 0.00033238892017060397 0.0014215920868738065 0.00033238892017060397 0.0018519052157457542" free_energy=-3906.590763813958 pbc="T T T"
Si       1.74594668       0.42205363       2.08055140       0.05178653       0.16612745      -0.16714170
Si       8.16812157       8.10331053       7.09318819       0.01855657       0.04390904      -0.00231654
Si       7.96362910       6.46193983       3.63284858      -0.01504535       0.02090560       0.17446125
Si       2.63251864       4.11639177       1.29162693       0.05999283       0.00230992      -0.05176639
Si       2.10533042       5.60788634       7.36011985      -0.01802815      -0.14225727      -0.02097659
Si       8.19473526       2.54670696       3.40012210      -0.04226547       0.12368137      -0.06130073
Si       4.23473777       5.64272410       3.96072676       0.15879681       0.16296358       0.01427588
Si       4.86920898       3.99245736       2.37495917       0.00050947       0.03444775       0.13378197
Si       2.62252303       4.47289836       5.37443688       0.14457340      -0.08296031       0.00411164
Si       7.19544348       4.45967067       2.45418279       0.06836266      -0.01585583      -0.01909161
Si       8.73546510       9.61016694       5.18752503      -0.08597195       0.03435208      -0.01476030
Si       1.33743679       1.18583805      -0.08266318      -0.36670336      -0.19172787      -0.12154652
Si       4.48168953       6.90637105       7.32003604       0.03886842      -0.03818750       0.04537407
Si       5.41826309       0.25508653       2.74180487       0.03112229       0.12647774       0.13415384
Si       4.35312256       2.12804026       3.77803136      -0.00069760       0.01638557       0.11093758
Si       5.62564880       5.40485359       5.88824828      -0.15820142      -0.00683122       0.08948087
Si       5.57878417       3.03478935       5.76090264      -0.05827150      -0.03460924       0.02698674
Si       3.56359481       2.21265445       6.55266954      -0.05830274      -0.05194780       0.18761706
Si       2.46848572       7.18783255       3.52968094       0.02421772      -0.09073452      -0.09743989
Si       8.77869759       5.00036224       0.75805316       0.05143023       0.01854343      -0.12481923
Si       7.84797586       6.10210972       5.92979766       0.06265706      -0.03390985      -0.04301385
Si       2.13233426       2.49456828       3.00334818       0.06305659      -0.17300655      -0.01733361
Si       5.42100294       7.29275278       2.33152808      -0.00295016       0.05564209      -0.16388606
Si       5.30332952       6.49289763       0.02438826       0.03250711       0.05628235      -0.01578787
24
Lattice="7.543263036539425 -0.9704503259143171 -1.1237133848166316 1.9121588477130713 8.415266019841994 0.31014463750699245 0.7062471240065415 2.1404614859175863 7.992148582076296" Properties=species:S:1:pos:R:3:forces:R:3 unique_starting_index=364 config_type=initial n_minim_iter=5 energy=-3906.6127949288593 stress="0.001596691732834734 0.0008949883501547541 -0.0006272904583422979 0.0008949883501547541 -0.0010523327367658597 -0.0003170481145733559 -0.0006272904583422979 -0.0003170481145733559 7.804701945795952e-05" free_energy=-3906.6127949288593 pbc="T T T"
Si       1.74725481       0.42201841       2.05174444       0.02306283       0.12497860       0.05246041
Si       8.19947582       8.11348588       7.01992256      -0.11811957       0.16788010      -0.03913982
Si       8.00010192       6.48096447       3.57416291       0.06023030      -0.02648619       0.13751491
Si       2.65509766       4.12103862       1.27389395       0.03370616      -0.02828222      -0.13915008
Si       2.09452592       5.59595731       7.30499254       0.02718344      -0.16643612       0.10363264
Si       8.22683217       2.55912902       3.34655879      -0.07530310       0.16806740      -0.02415872
Si       4.26004176       5.65250881       3.91193554       0.08123060       0.22256869       0.10548196
Si       4.89058879       4.00463027       2.34888857       0.06434394      -0.04098191       0.01367500
Si       2.63160232       4.46537021       5.33219483       0.18316287      -0.02952989      -0.09205701
Si       7.22856646       4.47788471       2.40259037       0.05370848      -0.05075689      -0.06113531
Si       8.77260028       9.62733785       5.11286184      -0.01123765      -0.02033952       0.00560778
Si       1.33125838       1.17574861      -0.09437586      -0.42168479      -0.09830137      -0.24319651
Si       4.49514764       6.91542454       7.26774148       0.01926860      -0.11357275       0.06823826
Si       5.43538644       0.26881533       2.71333121      -0.04633110       0.11002573       0.05237171
Si       4.36230712       2.13713701       3.74624923      -0.02519921      -0.00151586       0.06393511
Si       5.63787554       5.40247837       5.83935367      -0.04514204       0.12135193       0.13203587
Si       5.58356657       3.03873050       5.71086943      -0.16063446      -0.07091098       0.14232278
Si       3.55909998       2.20746888       6.51965463       0.02229090       0.13493825       0.05317703
Si       2.48392375       7.18734524       3.49002074       0.01461559       0.01194005      -0.08608813
Si       8.82865268       5.01944672       0.70406950       0.04829201      -0.02924025       0.02304333
Si       7.87320361       6.11192059       5.87166217      -0.05945030      -0.11363747      -0.11082007
Si       2.13849098       2.49705563       2.98282956       0.08080422      -0.21102346      -0.10520981
Si       5.45234718       7.30658888       2.28330438       0.03649367       0.04122567      -0.06899010
Si       5.33636751       6.51072187      -0.01220223       0.21470858      -0.10196153       0.01644876
24
Lattice="7.514804875792892 -1.0027464862914142 -1.1390762902951725 1.8706269368076607 8.437121759076792 0.3088094836042248 0.6770554681103729 2.14838122356307 7.9790437867571145" Properties=species:S:1:pos:R:3:forces:R:3 unique_starting_index=364 config_type=initial n_minim_iter=6 energy=-3906.6269928451434 stress="-0.0013034391162988572 -0.001801370275027999 -0.0017466597816188513 -0.001801370275027999 0.0007904164588128786 0.00040249836755924595 -0.0017466597816188513 0.00040249836755924595 -0.0007846176879333678" free_energy=-3906.6269928451434 pbc="T T T"
Si       1.73432705       0.41829082       2.03522010       0.03790902       0.12316371       0.11124233
Si       8.11654470       8.11576010       6.99536178      -0.15198232       0.14457742      -0.10310049
Si       7.93087291       6.47884635       3.55355927       0.05167380      -0.03254631       0.12918649
Si       2.63008584       4.12591605       1.26905508      -0.05052475       0.01848333      -0.12524749
Si       2.04338285       5.60095924       7.28778643       0.02702544      -0.18803528       0.09994323
Si       8.17321240       2.53818374       3.32203591      -0.14896694       0.18581946      -0.13257759
Si       4.21905626       5.66581170       3.89415667       0.04729150       0.22596574       0.09644648
Si       4.84798921       4.00380242       2.34476714       0.02351983      -0.05511826       0.00432339
Si       2.60052232       4.46626017       5.31716862       0.21364993       0.05165400      -0.03976618
Si       7.17378902       4.47002181       2.37847581       0.12496029      -0.10525269       0.00147995
Si       8.67952681       9.63264943       5.08580028       0.03208416      -0.02717985       0.08257281
Si       1.30008782       1.16140073      -0.10538244      -0.46318116      -0.04732806      -0.31356560
Si       4.43737705       6.93091276       7.25754670      -0.00210962      -0.27920365      -0.05285775
Si       5.40576076       0.25531858       2.70378731      -0.03773997       0.14150583       0.06129336
Si       4.32504502       2.13254107       3.73794076       0.03561937      -0.03910542       0.02415328
Si       5.57506573       5.39630133       5.82896357      -0.11947582       0.15405271       0.17275420
Si       5.52726449       3.02743757       5.69553481      -0.05710221       0.02195818       0.13866375
Si       3.52039488       2.20074039       6.51661971      -0.07466540       0.15301632       0.04724270
Si       2.43843042       7.20340388       3.47613586       0.05961896       0.02476953      -0.03228760
Si       8.76987768       5.00268081       0.67707375       0.09369767      -0.10598888       0.04484361
Si       7.79899469       6.10281652       5.85369214       0.07697359      -0.08234438      -0.13253941
Si       2.11603603       2.49615917       2.97709388      -0.05397657      -0.22646843      -0.13523405
Si       5.39358814       7.31725787       2.26322416       0.02808046       0.04243523      -0.02766788
Si       5.28422650       6.51721595      -0.02798263       0.30762075      -0.09883026       0.08069849
24
Lattice="7.491598237679142 -0.9877214061035322 -1.099479167200658 1.8861556754610187 8.45699333671952 0.31095396922722174 0.7220502350500789 2.1463002323604523 7.986864790454701" Properties=species:S:1:pos:R:3:forces:R:3 unique_starting_index=364 config_type=initial n_minim_iter=7 energy=-3906.6498083982633 stress="-0.002564519889319194 0.00012947747374844262 0.0015654347735010348 0.00012947747374844262 0.0015969257705980195 -0.0004300533499442498 0.0015654347735010348 -0.0004300533499442498 -0.00023316021560559723" free_energy=-3906.6498083982633 pbc="T T T"
Si       1.74434110       0.42273036       2.03358173      -0.02060584       0.19140953       0.09672596
Si       8.15422884       8.14657499       7.03672664      -0.06235204       0.03119117      -0.17893833
Si       7.94788357       6.51020198       3.59329266      -0.00412539      -0.07265303       0.19537023
Si       2.64738933       4.13861371       1.28069645      -0.06396463      -0.05168286      -0.16289012
Si       2.08417226       5.59484718       7.29523935       0.08693462      -0.17570864       0.19878153
Si       8.18003474       2.55881092       3.36129898      -0.12600258       0.31231764      -0.05310687
Si       4.25511924       5.69524734       3.90895107       0.03056378       0.24802987       0.20064277
Si       4.85971851       4.02290788       2.38015626       0.04598804      -0.11798196      -0.04866154
Si       2.64768911       4.46669007       5.32684052       0.12625033       0.06531615      -0.05639233
Si       7.18335812       4.49470200       2.40553769       0.12842988      -0.11183330       0.10253369
Si       8.70285030       9.66876082       5.12228734       0.07626555      -0.06918293       0.09542671
Si       1.26722491       1.14804059      -0.11433162      -0.59764052       0.02792262      -0.17596693
Si       4.48836644       6.95194663       7.29086170      -0.06356498      -0.28375939      -0.05569863
Si       5.41250741       0.27266868       2.74355905      -0.05215179       0.03896917       0.02056307
Si       4.33974840       2.14591600       3.77036345       0.00516237      -0.00968857       0.01168690
Si       5.60029089       5.40645045       5.87142968      -0.08998816       0.16550537       0.00442976
Si       5.54320236       3.03556253       5.73379876      -0.01774173       0.13099673       0.13002669
Si       3.55235811       2.20287911       6.55755740      -0.05322424       0.11971800      -0.07972653
Si       2.46872091       7.21837818       3.47673225       0.06903108       0.04210358      -0.10101321
Si       8.77030806       5.02796086       0.70826491       0.07654006       0.00847686       0.08049419
Si       7.82512587       6.12088555       5.90058116       0.10180037      -0.03784652      -0.16609817
Si       2.13699958       2.49703944       2.99058795       0.00541179      -0.26703092      -0.23608943
Si       5.40909073       7.34793542       2.27626513       0.12435207      -0.00580195       0.00712803
Si       5.28602040       6.54569683      -0.01452346       0.27463198      -0.17878659       0.17077255
24
Lattice="7.52807084364736 -1.0036007910067883 -1.083886883509799 1.8809312630537307 8.434364905204513 0.3485092859758429 0.739128394604739 2.1721429165915347 7.975299894118469" Properties=species:S:1:pos:R:3:forces:R:3 unique_starting_index=364 config_type=initial n_minim_iter=8 energy=-3906.675153677539 stress="0.0003505425260155833 -0.0010231326814482493 0.002527623901041463 -0.0010231326814482493 0.000185197287889801 0.0025354381921607566 0.002527623901041463 0.0025354381921607566 -0.0014242518232210667" free_energy=-3906.675153677539 pbc="T T T"
Si       1.75776005       0.43103038       2.02634650       0.08453427       0.14595161       0.01752845
Si       8.19344429       8.14588140       7.06652724      -0.05589660      -0.05162145      -0.16730273
Si       7.98476429       6.49721932       3.63198667       0.04814274      -0.09576275       0.03640143
Si       2.66063809       4.12831332       1.29707406      -0.12968084      -0.04464719      -0.11976572
Si       2.09799638       5.59318878       7.30290887       0.04356300      -0.03474519       0.17482923
Si       8.22149490       2.55724313       3.37659774       0.07148850       0.25017648      -0.04301612
Si       4.28430732       5.70397449       3.93047389       0.04749543       0.19157755       0.15600039
Si       4.88330538       4.01454629       2.40876381       0.10628804       0.01429171      -0.08671715
Si       2.67866780       4.46715149       5.33197397      -0.00860492       0.06649738      -0.04062458
Si       7.21971236       4.48093630       2.42751591       0.03309532      -0.04067457       0.13649073
Si       8.73632397       9.65213623       5.16503303       0.04432787      -0.02976931       0.11139014
Si       1.23689630       1.12839050      -0.12159187      -0.60402272      -0.07172381      -0.14828182
Si       4.51864533       6.95552195       7.31668241      -0.00231995      -0.25925554      -0.12503353
Si       5.44578660       0.28047338       2.75670774      -0.10681380       0.03037039       0.01430042
Si       4.36506707       2.15056899       3.78525940      -0.07435443      -0.11365027       0.03399257
Si       5.62565187       5.40567253       5.90066468       0.00100341       0.19984025      -0.02416217
Si       5.56923462       3.03939085       5.75102382       0.05090449       0.12479070       0.08147260
Si       3.57982211       2.21827703       6.56986493      -0.14456979       0.22642685      -0.16932023
Si       2.47769612       7.21082290       3.49430107      -0.04295780      -0.05421676      -0.03726934
Si       8.81030011       5.00053380       0.73967859       0.11713913       0.05490155       0.06123616
Si       7.86519821       6.11088677       5.92821224       0.10168235      -0.09411965      -0.05358932
Si       2.15326357       2.49084228       2.99549292       0.02426339      -0.17122251      -0.09331600
Si       5.42872024       7.33493017       2.30392955       0.10479459       0.06268229       0.03772638
Si       5.30520510       6.52030146       0.02016729       0.29049832      -0.30609776       0.24703020
24
Lattice="7.534545177463773 -0.9973922943489264 -1.0954937011337904 1.8837219407761283 8.43795100900233 0.30938196639769083 0.7227823918876364 2.1406302785196454 7.959257917054959" Properties=species:S:1:pos:R:3:forces:R:3 unique_starting_index=364 config_type=initial n_minim_iter=9 energy=-3906.7353356412673 stress="0.0015792102009562802 -0.0009073882182835414 0.002009614772457389 -0.0009073882182835414 0.0004183208259021551 -0.00032440097213701897 0.002009614772457389 -0.00032440097213701897 -0.0008102006471059954" free_energy=-3906.7353356412673 pbc="T T T"
Si       1.75722008       0.43341809       2.00782244      -0.07708824      -0.18616355      -0.21813139
Si       8.18003089       8.13423661       7.00418995       0.11263987      -0.17023933      -0.14354824
Si       7.98735214       6.49127890       3.59518307       0.10424499      -0.04994257      -0.10326034
Si       2.66745805       4.12404694       1.26568036      -0.14154936      -0.12337652      -0.01890769
Si       2.08208709       5.54084458       7.27409297      -0.01355381       0.02396583       0.15227533
Si       8.21646266       2.56197893       3.33786540       0.18286512       0.07342722      -0.03291587
Si       4.29781169       5.72117557       3.89747920      -0.00825350       0.11291483       0.09911588
Si       4.88643358       4.00865562       2.39257958       0.06235585      -0.01614265      -0.08631649
Si       2.69633764       4.44003388       5.29559894      -0.04575228       0.12318786      -0.03281972
Si       7.22744371       4.47535066       2.38305996      -0.00768832       0.03263727       0.09300328
Si       8.72822105       9.64130117       5.10143485       0.20170625       0.02483602       0.12956088
Si       1.16857036       1.10435070      -0.15846267      -0.61504541      -0.20805290       0.01171232
Si       4.51525102       6.92387051       7.28517769      -0.01448027      -0.13030819      -0.04508858
Si       5.44294901       0.28480711       2.75514803      -0.08118057      -0.16029049      -0.05222288
Si       4.35830965       2.14039669       3.77675730      -0.11105784      -0.03199798      -0.01859543
Si       5.60780423       5.38783917       5.88172927       0.18193995       0.12590170      -0.18472046
Si       5.54541322       3.01667560       5.73917134       0.05272373       0.22705979       0.12134271
Si       3.56577547       2.19892132       6.56962859      -0.12266015       0.08546954      -0.14287862
Si       2.47713484       7.20153669       3.44282228      -0.01553461       0.10448781       0.07371893
Si       8.82391960       4.99946154       0.68974525      -0.02052687       0.07940625       0.02154267
Si       7.85865765       6.08191831       5.88213407       0.13063730      -0.08508734      -0.01281857
Si       2.15557439       2.46268488       2.97332972      -0.00925460       0.27228134       0.05099467
Si       5.43264312       7.34114721       2.24682420       0.10898730       0.07358562       0.16544637
Si       5.32471134       6.52085535      -0.02100946       0.14552546      -0.19755958       0.17351125
24
Lattice="7.5124283227896775 -0.9768456376513757 -1.1220934255345705 1.903205623292821 8.44815790506242 0.3221039931764932 0.7031215368948524 2.160817146030776 7.97394942234336" Properties=species:S:1:pos:R:3:forces:R:3 unique_starting_index=364 config_type=initial n_minim_iter=10 energy=-3906.7575271203577 stress="0.00022332721933970934 0.0008905375152771316 0.0007541505560840937 0.0008905375152771316 0.0004224571725043932 0.0013880240346576431 0.0007541505560840937 0.0013880240346576431 0.0006100813850546365" free_energy=-3906.7575271203577 pbc="T T T"
Si       1.74788573       0.44647929       1.99977347      -0.18909849      -0.17755545      -0.25007566
Si       8.15798120       8.18227946       7.00428989       0.15241286      -0.25044445      -0.21981343
Si       7.97520497       6.52795014       3.59437701       0.13944733      -0.08824291      -0.14599296
Si       2.67101657       4.13528698       1.26486913      -0.12997309      -0.14775008      -0.00972604
Si       2.06941155       5.55336583       7.29316885       0.05604500      -0.05580031       0.09735298
Si       8.18927897       2.60246706       3.31973447       0.28286331      -0.07804446      -0.00967154
Si       4.29912239       5.75931334       3.90416994       0.01041812      -0.01436940       0.02467212
Si       4.87918636       4.03073091       2.39562100       0.01800549       0.03712095      -0.04065213
Si       2.69818039       4.45848788       5.30099714      -0.08745346       0.17850565       0.03658801
Si       7.21602674       4.50498314       2.37063978      -0.02570118       0.16688809       0.04675691
Si       8.71559755       9.68493847       5.10354186       0.27582808       0.05897193       0.15068336
Si       1.13391599       1.09486274      -0.17342786      -0.59204315      -0.25399772       0.03690878
Si       4.50468622       6.95305139       7.30310849      -0.00399003      -0.05887525      -0.01085585
Si       5.41902827       0.31322031       2.74951243      -0.08878888      -0.16227866      -0.05839567
Si       4.33926488       2.16432131       3.77964671      -0.03414992      -0.03184532      -0.00461411