18
Lattice="5.323247162292151 0.0018734736568489882 -1.624598706753963 0.07539603309644696 7.650804369234348 -0.8302288804480223 -5.612346296486997 -3.87212948168579 10.544148844071259" Properties=species:S:1:pos:R:3:forces:R:3 unique_starting_index=258 config_type=initial n_minim_iter=1 energy=-2931.826005354226 stress="4.9079534448330144e-05 -0.00012660458116686658 -4.670247599740556e-05 -0.00012660458116686658 8.193517576045279e-05 8.379156459535445e-05 -4.670247599740556e-05 8.379156459535445e-05 0.00015757650757569592" free_energy=-2931.826005354226 pbc="T T T"
Si       0.71357868      -1.43241850       3.78499033       0.03401844       0.06015590       0.00883691
Si      -2.41555428       4.25957016       6.86103195       0.02793366       0.03413393       0.01547012
Si      -0.18103622       2.55657364       3.91229180      -0.02095934      -0.00055369      -0.03790874
Si      -4.23078274      -1.37154849      10.74453739       0.06492093       0.01141149      -0.07557195
Si      -1.68608410       3.90304146       9.12642168      -0.01019433       0.04047934      -0.00984437
Si       2.31161153       0.55896212       1.11397092       0.03454616      -0.06820281      -0.01795494
Si      -3.25907186       2.13418225       6.23395958      -0.01601194      -0.02383959      -0.03366227
Si      -2.32490143      -1.89779171       5.89646213       0.00044936      -0.00540580       0.05011568
Si      -0.06302664       1.37803588       7.62746368       0.01691337       0.00036865       0.00226783
Si      -4.47998052      -2.26664925       8.60529024      -0.03768147      -0.02320696       0.01107284
Si       3.13665379       4.00124545      -0.20373810      -0.03291103      -0.04935727       0.04848455
Si      -1.85250158       1.11400709       4.65139901      -0.01577715      -0.02457869       0.03780161
Si      -2.36630353       1.43695000       8.36570891      -0.01515668       0.01303356      -0.05049598
Si       0.56906802      -0.94943516       1.48099706       0.01072726       0.02675543       0.02885942
Si      -0.23779740       3.30867393       6.24120208      -0.02935555      -0.02833786      -0.00804373
Si      -0.41993946      -0.42880216       5.84158508      -0.01463099       0.07458332      -0.04308620
Si      -0.54628765       2.33971832       1.46493640      -0.02372706      -0.03693340       0.03015307
Si       4.33451323       4.71108919       1.68877537       0.02689637      -0.00050556       0.04350617
18
Lattice="5.321597867481941 0.005840769873528245 -1.6221285482447017 0.07993308663791265 7.648122473806809 -0.8327101252395837 -5.610988593380699 -3.87838327753904 10.536316402110163" Properties=species:S:1:pos:R:3:forces:R:3 unique_starting_index=258 config_type=initial n_minim_iter=2 energy=-2931.826537341548 stress="-0.0006188769651406772 0.0004527455309497474 9.887201171050566e-05 0.0004527455309497474 -0.0005338819552811986 -0.00023098377677070313 9.887201171050566e-05 -0.00023098377677070313 -0.0009608910051013584" free_energy=-2931.826537341548 pbc="T T T"
Si       0.71387062      -1.43209507       3.78294582       0.02203262       0.04621528       0.01619127
Si      -2.41036420       4.25403560       6.85365720       0.01976565       0.02494349       0.00868363
Si      -0.17881217       2.55382258       3.90764064      -0.02146056      -0.01590335      -0.02878680
Si      -4.22723326      -1.37786687      10.73476150       0.04914550       0.01631195      -0.04621205
Si      -1.68131706       3.89726323       9.11725002      -0.00163202       0.03177721      -0.01451517
Si       2.31215020       0.55874092       1.11315450       0.01723089      -0.06302732      -0.00352228
Si      -3.25576895       2.12840653       6.22704689      -0.02668824      -0.00781457      -0.02120342
Si      -2.32416519      -1.90096916       5.89287374       0.00321009       0.00966125       0.05257955
Si      -0.06017142       1.37431967       7.62102929       0.02258205      -0.00224511       0.00093615
Si      -4.47888081      -2.27238108       8.59871244      -0.04571543      -0.03198165      -0.00278269
Si       3.13786478       4.00096378      -0.20381323      -0.03669890      -0.02827770       0.03677045
Si      -1.85052756       1.11015137       4.64746807       0.00031453      -0.02265404       0.01304701
Si      -2.36314767       1.43165964       8.35740060      -0.01732824       0.00479399      -0.03651289
Si       0.56883460      -0.94892702       1.48078552       0.01821374       0.03057029       0.02443211
Si      -0.23468087       3.30423334       6.23485831      -0.01897355      -0.02415861      -0.00644186
Si      -0.41897740      -0.43022231       5.83654088      -0.01394318       0.06521300      -0.03805819
Si      -0.54470950       2.33731200       1.46315138      -0.00752966      -0.04390073       0.01526262
Si       4.33716393       4.71118729       1.68715102       0.03747471       0.01047662       0.03013255
18
Lattice="5.32621788961459 0.0074159687045990495 -1.6219582680966462 0.08138752404421666 7.65159695619366 -0.8354859853817299 -5.614604453759826 -3.884265643566054 10.543071263915216" Properties=species:S:1:pos:R:3:forces:R:3 unique_starting_index=258 config_type=initial n_minim_iter=3 energy=-2931.827559011897 stress="0.0009426133918009554 0.0006027446157540563 0.00028922918928798617 0.0006027446157540563 0.0005066859196183263 -0.0004982435413499118 0.00028922918928798617 -0.0004982435413499118 0.00023190666053687567" free_energy=-2931.827559011897 pbc="T T T"
Si       0.71625160      -1.43162659       3.78637789       0.00782717       0.02828155       0.02335317
Si      -2.40922350       4.25445800       6.85684903       0.00663979       0.00322034       0.00592159
Si      -0.17829248       2.55358777       3.90813506      -0.02083514      -0.02755475      -0.01120673
Si      -4.22679808      -1.38203168      10.73875823      -0.00303347      -0.02478417       0.00489073
Si      -1.68027680       3.89724773       9.12132092       0.01950783       0.01328917      -0.01981247
Si       2.31579884       0.55674802       1.11372300       0.00939958      -0.03035379       0.00804261
Si      -3.25757969       2.12606393       6.22864715      -0.02816119       0.01838893      -0.00287553
Si      -2.32533286      -1.90407045       5.89855112       0.01219217       0.02084092       0.04308552
Si      -0.05753683       1.37264034       7.62568817       0.00752510       0.00353607       0.00126400
Si      -4.48294247      -2.27766722       8.60428487      -0.04522378      -0.03315359      -0.01743273
Si       3.14039505       4.00174371      -0.20275638       0.00381663       0.01270875       0.01588892
Si      -1.85140693       1.10801266       4.65093537       0.00602597      -0.01061311      -0.02501715
Si      -2.36368046       1.42972418       8.36022634      -0.00694394      -0.01269181      -0.01306930
Si       0.56994906      -0.94867221       1.48315962      -0.00093018       0.03190250       0.01016579
Si      -0.23374276       3.30276522       6.23765400      -0.01395176      -0.02130476      -0.00183618
Si      -0.41861404      -0.42962898       5.83891065      -0.01559708       0.03832409      -0.02716679
Si      -0.54513214       2.33639715       1.46426620       0.02267520      -0.02853674      -0.00663387
Si       4.34362067       4.71361937       1.68933258       0.03906709       0.01850040       0.01243842
18
Lattice="5.322765842544179 0.002404999571066596 -1.6236528662331138 0.07563869838479555 7.647685275042195 -0.8314347925884209 -5.610388826484916 -3.8724232841682675 10.544027747721039" Properties=species:S:1:pos:R:3:forces:R:3 unique_starting_index=258 config_type=initial n_minim_iter=4 energy=-2931.8282720281168 stress="0.00014179136028931243 -0.00016498888264962665 0.00011517863137650799 -0.00016498888264962665 -0.00036027554531933284 -3.466664815838365e-05 0.00011517863137650799 -3.466664815838365e-05 3.143096209890358e-05" free_energy=-2931.8282720281168 pbc="T T T"
Si       0.71661296      -1.42793288       3.78630570       0.00630224       0.03676744       0.02411418
Si      -2.41195589       4.25900510       6.86122330      -0.00080533      -0.00646353       0.01668360
Si      -0.18181842       2.55453020       3.90921871      -0.00806655      -0.01884328      -0.00826208
Si      -4.22407501      -1.37206685      10.73903497      -0.05386220      -0.05900599       0.03107421
Si      -1.68468994       3.90283324       9.12490619       0.02310562      -0.00454433      -0.01772178
Si       2.31418001       0.55353494       1.11321865       0.02215528       0.00003130       0.00069966
Si      -3.25911978       2.13062427       6.23083780      -0.02281026       0.02009762      -0.00919769
Si      -2.32370077      -1.89816645       5.90044318       0.02312709       0.02202924       0.01774994
Si      -0.06017088       1.37626892       7.62763061       0.01096040      -0.00322453       0.01014255
Si      -4.48142788      -2.26923204       8.60565862      -0.02867359      -0.01700952      -0.02743619
Si       3.13424934       3.99637069      -0.20024540       0.04302198       0.04633731      -0.00131376
Si      -1.85247242       1.11086073       4.65343786      -0.01784133      -0.00949585      -0.02608702
Si      -2.36576575       1.43572808       8.36165111      -0.01043793      -0.02773231       0.00517045
Si       0.57015608      -0.94706424       1.48343434      -0.02518798       0.00546186       0.00364946
Si      -0.23857128       3.30413133       6.24024604      -0.02108693      -0.02924334      -0.00973805
Si      -0.42000147      -0.42395582       5.83849055      -0.00145377       0.03050382      -0.01465331
Si      -0.54735145       2.33551960       1.46655511       0.04510778      -0.00596386      -0.01577670
Si       4.33722140       4.70921802       1.69203626       0.01644548       0.02029798       0.02090251
18
Lattice="5.319590150228355 0.003229323441660308 -1.6261878104595864 0.07793007941511791 7.655378582593602 -0.8289479564333709 -5.612340781153886 -3.8744375049756465 10.545076081836061" Properties=species:S:1:pos:R:3:forces:R:3 unique_starting_index=258 config_type=initial n_minim_iter=5 energy=-2931.828546505654 stress="-0.000235722853076512 0.00014708094694734365 -0.00016607428970790444 0.00014708094694734365 0.00026229457015056906 0.00013742222556571265 -0.00016607428970790444 0.00013742222556571265 4.134306488220809e-05" free_energy=-2931.828546505654 pbc="T T T"
Si       0.71424403      -1.42704515       3.78570669      -0.01202457       0.03356796       0.02564606
Si      -2.41217329       4.26530391       6.86381460      -0.01170272      -0.01864812       0.00774899
Si      -0.18325999       2.55814663       3.90953245      -0.02114741      -0.01631732      -0.00584906
Si      -4.22645784      -1.37156595      10.73985184      -0.05032822      -0.06073429       0.02559572
Si      -1.68672662       3.90978058       9.12631589       0.02008508       0.00327943      -0.01194005
Si       2.31258045       0.55436424       1.11209613       0.01251692      -0.00069961      -0.00996818
Si      -3.25963554       2.13406606       6.23247420      -0.00606058       0.02950631      -0.00935979
Si      -2.32507851      -1.89858171       5.90144829       0.04229170       0.01812465       0.01627600
Si      -0.06321264       1.38013929       7.62791401       0.01763637      -0.00429747       0.01413861
Si      -4.48359825      -2.27038568       8.60654095      -0.03200895      -0.02191182      -0.02405028
Si       3.13312658       4.00129037      -0.20001180       0.03419205       0.04426592      -0.00874725
Si      -1.85336827       1.11271681       4.65453445      -0.01567729       0.00831332      -0.02221029
Si      -2.36798596       1.43915924       8.36250116      -0.01379379      -0.02534569       0.01175698
Si       0.56863560      -0.94705037       1.48310722      -0.01032383       0.00122468      -0.00238960
Si      -0.24109518       3.30894950       6.24100923      -0.01320086      -0.02438882      -0.00970753
Si      -0.42282782      -0.42154305       5.83772558       0.00117163       0.02268050      -0.00948651
Si      -0.54678791       2.33781133       1.46761944       0.03950630      -0.01263953      -0.01454906
Si       4.33485771       4.71600563       1.69199554       0.01886819       0.02401991       0.02709524
18
Lattice="5.319222447060924 -0.00039340965784172017 -1.6237329365950424 0.0713570847425263 7.66093116179534 -0.8321466662684139 -5.606853281924995 -3.8777414887674597 10.537215186868547" Properties=species:S:1:pos:R:3:forces:R:3 unique_starting_index=258 config_type=initial n_minim_iter=6 energy=-2931.8296403434797 stress="5.502880298630196e-06 -0.0004533621370602192 6.542593739330296e-05 -0.0004533621370602192 0.0006618882684405564 -0.00027108213623161623 6.542593739330296e-05 -0.00027108213623161623 -0.0007298864007180301" free_energy=-2931.8296403434797 pbc="T T T"
Si       0.71728313      -1.42546109       3.78592413       0.01488070       0.01673913       0.03112232
Si      -2.41370291       4.26701972       6.85702610      -0.02294080      -0.02099762      -0.00584312
Si      -0.18662019       2.55638194       3.90299483      -0.00620950       0.00709957      -0.00505251
Si      -4.22467731      -1.37871789      10.73039189       0.02405903      -0.03590708       0.02258914
Si      -1.68660344       3.91071239       9.11480843       0.02643503      -0.01667941       0.00080512
Si       2.31492929       0.54944784       1.11051568      -0.02637977       0.02052985      -0.03301979
Si      -3.26207556       2.13629462       6.22366818      -0.00299842       0.02678010      -0.00166966
Si      -2.31962702      -1.89935087       5.90059480       0.01552973       0.02137944       0.01283541
Si      -0.06093140       1.37697223       7.62195547       0.00739035       0.00372869       0.00361854
Si      -4.48397439      -2.27521377       8.59792777      -0.02412713      -0.01139538      -0.04096973
Si       3.13143397       4.00331394      -0.19973822       0.03497438      -0.01266455      -0.00686498
Si      -1.85503672       1.11160459       4.64900581      -0.01150254       0.01345704      -0.00374396
Si      -2.36897580       1.43617476       8.35314909      -0.00724053      -0.02488634       0.01255206
Si       0.56882496      -0.94740748       1.48367706      -0.01077242      -0.00426316      -0.01071226
Si      -0.24499205       3.30496652       6.23310740      -0.00748303      -0.03116272       0.00098943
Si      -0.42191018      -0.41937376       5.83035183       0.00621788       0.01378509       0.00806124
Si      -0.54582461       2.33675060       1.46494714      -0.02593956       0.03747811      -0.00169731
Si       4.33396236       4.71659275       1.69259837       0.01610661      -0.00302075       0.01700006
18
Lattice="5.318911677513392 0.0019663493364562956 -1.625595752441928 0.07545750450768972 7.652085390196424 -0.8307716876956837 -5.608750390917315 -3.8732270181029373 10.547645227975062" Properties=species:S:1:pos:R:3:forces:R:3 unique_starting_index=258 config_type=initial n_minim_iter=7 energy=-2931.8302958360878 stress="-1.4792626585254629e-05 4.6661289698692145e-05 9.273988659009868e-05 4.6661289698692145e-05 -4.6427346582574205e-05 8.946263925729118e-05 9.273988659009868e-05 8.946263925729118e-05 -1.2234977285625215e-05" free_energy=-2931.8302958360878 pbc="T T T"
Si       0.71713020      -1.41920923       3.79128093       0.01378949       0.01514324       0.01628927
Si      -2.41120225       4.26299647       6.86668488      -0.03050003      -0.01452494      -0.00529679
Si      -0.18657358       2.55361796       3.90679752       0.00091832       0.00579952       0.00277508
Si      -4.22617758      -1.37902780      10.74164138       0.04386448       0.00034376      -0.01915319
Si      -1.68352006       3.90890679       9.12494441       0.00353420      -0.01749717      -0.00006199
Si       2.31642356       0.54888168       1.11111139      -0.01816580       0.00271851      -0.01906070
Si      -3.26203736       2.13491018       6.22999239       0.00412954       0.01674721       0.00723066
Si      -2.31893303      -1.89560595       5.90867679       0.01014674       0.02321840      -0.00057026
Si      -0.05919133       1.37752328       7.63130666      -0.00024891      -0.00973720       0.00893663
Si      -4.48766063      -2.27414018       8.60537505      -0.01255210       0.00378182      -0.01731674
Si       3.13463552       4.00143596      -0.19798363       0.01737796      -0.01608915       0.01391135
Si      -1.85551461       1.11021366       4.65395499      -0.02568414       0.02585790      -0.01714823
Si      -2.36918231       1.43460665       8.36206236      -0.00258295      -0.02475598       0.00409252
Si       0.56763673      -0.94472141       1.48563492       0.01155801      -0.02978924      -0.00451768
Si      -0.24483076       3.30082558       6.24027185      -0.00108077      -0.02853917      -0.00623983
Si      -0.42256364      -0.41428311       5.83503029       0.01791080      -0.00426585       0.02624145
Si      -0.54317597       2.33310978       1.46713486      -0.02951432       0.04443647       0.01070801
Si       4.33789228       4.71519945       1.69795847      -0.00290052       0.00715187      -0.00081957
18
Lattice="5.31938702226397 0.002065148755555966 -1.6283351763470788 0.07510574490560297 7.651411472202706 -0.833812345569184 -5.61292099826328 -3.8761275385952354 10.553633567795982" Properties=species:S:1:pos:R:3:forces:R:3 unique_starting_index=258 config_type=initial n_minim_iter=8 energy=-2931.8304705346522 stress="4.345658256470625e-05 -2.4603044386546285e-07 -0.00026248507573767353 -2.4603044386546285e-07 -0.000134221780847591 -0.0001804253650686914 -0.00026248507573767353 -0.0001804253650686914 8.232700676587197e-05" free_energy=-2931.8304705346522 pbc="T T T"
Si       0.71582605      -1.41965228       3.79278113       0.01124938       0.01443929       0.01015835
Si      -2.41503970       4.25989868       6.86759192      -0.02534064      -0.00102718      -0.00963167
Si      -0.18883986       2.55173641       3.90646630      -0.00164769       0.00510489       0.00466101
Si      -4.23034662      -1.38306957      10.74585723       0.03295008       0.00665032      -0.01104814
Si      -1.68769201       3.90506258       9.12576187      -0.00413682      -0.01793967       0.00441957
Si       2.31576287       0.54793828       1.10963044      -0.01797971      -0.00366276      -0.03085821
Si      -3.26511064       2.13308251       6.23173361       0.00463784       0.00563501       0.00345807
Si      -2.32082938      -1.89677548       5.91197982       0.00951920       0.01329267       0.00628592
Si      -0.06257938       1.37434336       7.63251642      -0.00437438      -0.00846865       0.00688395
Si      -4.49186918      -2.27691553       8.60934815      -0.01115763       0.00302852      -0.01861390
Si       3.13473852       4.00072454      -0.20059972       0.00753070      -0.01392011       0.00267041
Si      -1.85825384       1.10878963       4.65489018      -0.01945229       0.02839692      -0.00729012
Si      -2.37325887       1.43091679       8.36413126       0.00039772      -0.02564681       0.00507534
Si       0.56703814      -0.94546483       1.48605717       0.01726434      -0.02702346       0.00283191
Si      -0.24830907       3.29724894       6.24010781      -0.00177787      -0.02982279      -0.00189839
Si      -0.42498144      -0.41580305       5.83653979       0.01687483      -0.00080977       0.02586810
Si      -0.54414637       2.33273329       1.46689829      -0.01554049       0.04118433       0.00208167
Si       4.33676014       4.71389207       1.69497057       0.00098343       0.01058924       0.00494611
18
Lattice="5.316833710949125 0.0006751345390638967 -1.6271919211622734 0.07291856421562061 7.654383639415088 -0.8337267461332644 -5.606990161276514 -3.875980870471245 10.553513261639718" Properties=species:S:1:pos:R:3:forces:R:3 unique_starting_index=258 config_type=initial n_minim_iter=9 energy=-2931.83107729422 stress="-0.00011662349110390304 -4.528354391978526e-05 -3.6511162381895375e-05 -4.528354391978526e-05 6.156451678597984e-05 -0.0002135313747298738 -3.6511162381895375e-05 -0.0002135313747298738 0.00030042545114559636" free_energy=-2931.83107729422 pbc="T T T"
Si       0.71808273      -1.41733278       3.79545512       0.01222795       0.01070551       0.00001444
Si      -2.41507090       4.26166202       6.86816917      -0.01158233       0.01157526      -0.00882447
Si      -0.18924955       2.55256531       3.90642333       0.00232662       0.02000615       0.00163736
Si      -4.22384186      -1.38416486      10.74523880       0.01252193       0.00978548      -0.01668685
Si      -1.68484776       3.90664478       9.12603850       0.00012598      -0.01056289      -0.00023527
Si       2.31477915       0.54673213       1.10852954      -0.01471697      -0.00384055      -0.02084071
Si      -3.26329126       2.13639682       6.23140310       0.00133327      -0.00712902       0.00618640
Si      -2.31614099      -1.89481042       5.91363031      -0.00047281      -0.00019513       0.01194156
Si      -0.06029604       1.37442073       7.63448847      -0.00309993      -0.00825366      -0.00229660
Si      -4.48976142      -2.27736085       8.60727685      -0.00872491       0.00455083      -0.00165309
Si       3.13424781       4.00137679      -0.19861361      -0.00638286      -0.00145325       0.00566055
Si      -1.85878826       1.11109808       4.65379412      -0.01153013       0.00747761       0.00046393
Si      -2.37128720       1.42992023       8.36457714      -0.00462231      -0.01608874       0.00005294
Si       0.56775935      -0.94714134       1.48661627       0.01327339      -0.02607097       0.00735081
Si      -0.24853357       3.29556666       6.24023746       0.00129997      -0.01854430       0.00490742
Si      -0.42237854      -0.41390262       5.83777103       0.00890199       0.01084977       0.01997408
Si      -0.54465611       2.33572746       1.46735956       0.00639467       0.01444289      -0.00994859
Si       4.33528571       4.71594119       1.69791366       0.00272646       0.00274502       0.00229610
18
Lattice="5.319238150643883 -0.0001864253706362162 -1.6271424389184872 0.0727113336859651 7.654474162634937 -0.8304345774665036 -5.610561999021166 -3.871928117537671 10.547746019656946" Properties=species:S:1:pos:R:3:forces:R:3 unique_starting_index=258 config_type=initial n_minim_iter=10 energy=-2931.8312467398437 stress="0.00032487470172849113 2.398803756635316e-06 -0.00020577793334196768 2.398803756635316e-06 -6.989876021253248e-06 5.164650062348412e-05 -0.00020577793334196768 5.164650062348412e-05 -8.400560858628799e-05" free_energy=-2931.8312467398437 pbc="T T T"
Si       0.71866459      -1.41432870       3.79403206       0.01354883       0.00086141       0.00630624
Si      -2.41804803       4.26439087       6.86689337      -0.00867346       0.01057133      -0.00525082
Si      -0.19041736       2.55417271       3.90518755       0.00711214       0.01746820       0.00589316
Si      -4.22601740      -1.38087072      10.73944592      -0.00500653       0.02064709      -0.01143106
Si      -1.68652957       3.91010789       9.12301805       0.00501368      -0.00760070       0.00589733
Si       2.31542914       0.54651434       1.10683860      -0.01252625      -0.01438252      -0.01809459
Si      -3.26590180       2.13970435       6.22947358      -0.00285846      -0.01122337      -0.00105490
Si      -2.31692985      -1.89156956       5.91132212      -0.00368774       0.00355194       0.00310659
Si      -0.06106658       1.37700602       7.63180038      -0.01063308      -0.01584346       0.00354454
Si      -4.49406403      -2.27448563       8.60190576      -0.00443655      -0.00201435       0.00054204
Si       3.13620942       4.00129069      -0.19674239      -0.01623864      -0.00280128       0.00761204
Si      -1.86143078       1.11360745       4.65164106      -0.00771471       0.00528863       0.00767980
Si      -2.37393350       1.43201485       8.36129554       0.00519996      -0.00938428      -0.00569755
Si       0.56807271      -0.94736926       1.48567884       0.01166902      -0.01826909      -0.00210927
Si      -0.25022590       3.29636600       6.23818451       0.00071822      -0.00063714       0.00460810
Si      -0.42289920      -0.41054268       5.83518740       0.00348082       0.01150029       0.01903808
Si      -0.54537150       2.33734879       1.46774371       0.01953961       0.00169718      -0.02324870
Si       4.33721445       4.71728691       1.69912594       0.00549316       0.01057012       0.00265897
18
Lattice="5.316043925924038 -0.0007954505805886404 -1.6259179985581278 0.0715064762330455 7.655769612240111 -0.8307388967208562 -5.604323051497076 -3.8721798024257184 10.547755244717147" Properties=species:S:1:pos:R:3:forces:R:3 unique_starting_index=258 config_type=initial n_minim_iter=11 energy=-2931.83140382356 stress="-7.382500110552377e-05 -5.523179219226653e-06 6.618177675550542e-05 -5.523179219226653e-06 2.7012928876741574e-05 -5.677473101179653e-07 6.618177675550542e-05 -5.677473101179653e-07 7.843928472414044e-06" free_energy=-2931.83140382356 pbc="T T T"
Si       0.72068915      -1.41251510       3.79618315       0.00776091      -0.00071178      -0.00092536
Si      -2.41652113       4.26517470       6.86713385      -0.00112502       0.01227458      -0.00229915
Si      -0.19006178       2.55474376       3.90512142       0.00698332       0.02247687       0.00390857
Si      -4.21955140      -1.38171779      10.73859233      -0.01984770       0.01365849      -0.01057929
Si      -1.68301958       3.91039121       9.12326750       0.00922379      -0.00491955      -0.00073299
Si       2.31425062       0.54522263       1.10609167      -0.00873705      -0.00464719      -0.00579472
Si      -3.26330359       2.14092676       6.22903562      -0.00442513      -0.01304966       0.00563945
Si      -2.31285783      -1.89049072       5.91288770      -0.00402944      -0.00259361       0.00399515
Si      -0.05875078       1.37632464       7.63337611      -0.00629537      -0.01433793      -0.00320052
Si      -4.49102205      -2.27525125       8.60074935      -0.00267471       0.00064857       0.00860625
Si       3.13475296       4.00139738      -0.19491252      -0.01422309       0.01289613       0.00596708
Si      -1.86094497       1.11455610       4.65117293      -0.00130110      -0.00799756       0.00069535
Si      -2.37118350       1.43067222       8.36135740      -0.00219843      -0.00568380      -0.00383242
Si       0.56874747      -0.94868702       1.48636412       0.00551832      -0.02080294       0.00103517
Si      -0.24959474       3.29455510       6.23849360       0.00338274       0.00370240       0.00865196
Si      -0.42053074      -0.40889361       5.83637961      -0.00053961       0.01437429       0.01559204
Si      -0.54490874       2.33871000       1.46760251       0.02881244      -0.01192176      -0.02548724
Si       4.33576072       4.71843873       1.70157883       0.00371514       0.00663446      -0.00123933
18
Lattice="5.315291054436906 -0.0008096860604764312 -1.6266681132341003 0.07160278173832066 7.65366706969269 -0.8307071175024281 -5.604422250582849 -3.8709342895007324 10.549665313856426" Properties=species:S:1:pos:R:3:forces:R:3 unique_starting_index=258 config_type=initial n_minim_iter=12 energy=-2931.831693776377 stress="-0.0001497683154038492 -1.278580827048729e-06 0.00011030312786267918 -1.278580827048729e-06 -5.121565939651098e-06 -6.456307221959006e-06 0.00011030312786267918 -6.456307221959006e-06 -8.694677844445303e-06" free_energy=-2931.831693776377 pbc="T T T"
Si       0.72203827      -1.41005441       3.79795381      -0.00756461      -0.00065818      -0.00274685
Si      -2.41817837       4.26505135       6.86814727       0.00608719       0.00035835       0.00959696
Si      -0.19022168       2.55625867       3.90575162      -0.00503080       0.00156983       0.00084602
Si      -4.22016484      -1.38060640      10.73844383      -0.01076462       0.00450064      -0.00952864
Si      -1.68229711       3.90854199       9.12443668       0.00547604       0.00083481      -0.00242863
Si       2.31256149       0.54371782       1.10381025       0.00609188       0.00386612       0.00428233
Si      -3.26411542       2.14002628       6.23043751      -0.00164382      -0.00735509       0.00704960
Si      -2.31237999      -1.88872936       5.91536903       0.00969579      -0.00020935      -0.00474708
Si      -0.05980540       1.37412884       7.63484941      -0.00669710      -0.01121634      -0.00226699
Si      -4.49309746      -2.27501677       8.60175290       0.00251201      -0.00051975       0.00499164
Si       3.13377951       4.00102627      -0.19366003       0.00573771       0.01032272       0.00072678
Si      -1.86286304       1.11467243       4.65151250       0.00945503      -0.00605290      -0.01633510
Si      -2.37218674       1.42820368       8.36216802      -0.00345620       0.00045740      -0.00378002
Si       0.56955848      -0.95138096       1.48676845      -0.00042477      -0.01367174       0.00087468
Si      -0.25057887       3.29186338       6.23977893      -0.00024209       0.00558540       0.00911619
Si      -0.42041583      -0.40594859       5.83933257      -0.00684503       0.00640525       0.00588304
Si      -0.54264758       2.33848648       1.46560080      -0.00010968      -0.00787558      -0.00039587
Si       4.33597372       4.71875591       1.70243283      -0.00227691       0.01365841      -0.00113803
18