18
Lattice="5.509889999999899 1.052169997626054e-06 -1.1315928811834832e-30 2.754943614926471 7.253203457685326 1.7935291590857437e-15 2.75494451131364 2.5591001160603764 8.908984085285569" Properties=species:S:1:pos:R:3:forces:R:3 unique_starting_index=182 config_type=initial n_minim_iter=1 energy=-2850.788991830132 stress="-0.8949753502929706 -0.22352158763221028 -0.3593204478815688 -0.23808412230401815 4.546115908216114e-08 -1.282238819135599e-07" pbc="T T T"
Si       2.44735476       1.86387330       1.59191786       5.58119997      -4.39828688       2.38062304
Si       5.20229953       3.04227941       2.86257419       5.58119829       4.39828901      -2.38062304
Si       8.57242337       7.94843131       7.31706623      -5.58119997       4.39828688      -2.38062304
Si       5.81747860       6.77002520       6.04640990      -5.58119829      -4.39828901       2.38062304
Si       4.33590212       7.36198649       6.17687484     -15.02162336       1.18753063      -6.54344875
Si       7.09084712       7.35646946       7.18660130     -15.02162291      -1.18753637       6.54344875
Si       6.68387601       2.45031812       2.73210925      15.02162336      -1.18753063       6.54344875
Si       3.92893101       2.45583515       1.72238280      15.02162291       1.18753637      -6.54344875
Si       3.72328907       3.34945776       3.39056958     -29.59309539      -5.95092776      -2.43392603
Si       0.96834441       1.55669438       1.06392247     -29.59309766       5.95091646       2.43392603
Si       7.29648907       6.46284685       5.51841451      29.59309539       5.95092776       2.43392603
Si      10.05143372       8.25561023       7.84506162      29.59309766      -5.95091646      -2.43392603
Si       4.65806985       4.18815390       4.40176867      12.19621165      14.57977573      13.52991300
Si       1.90312551       0.71799860       0.05272338      12.19621722     -14.57977107     -13.52991300
Si       6.36170828       5.62415071       4.50721542     -12.19621165     -14.57977573     -13.52991300
Si       9.11665262       9.09430601       8.85626071     -12.19621722      14.57977107      13.52991300
Si       4.13241726       1.27955058       4.45449205       0.00000000       0.00000000       0.00000000
Si       1.37747181       3.62660172       0.00000000      -0.00000000      -0.00000000       0.00000000
18
Lattice="5.688289109742414 1.0862371370717342e-06 2.7297205059708986e-17 2.8441431586806756 7.311420054110769 0.06212594118355923 2.844144047690704 2.65594852577833 9.045934814913956" Properties=species:S:1:pos:R:3:forces:R:3 unique_starting_index=182 config_type=initial n_minim_iter=2 energy=-2864.089901979094 stress="-0.7183755913745297 -0.15626016610741067 -0.2659856471364673 -0.1775292061202387 3.390461616230475e-08 -1.0734382600526078e-07" pbc="T T T"
Si       2.52717136       1.89202732       1.62867444       4.49897668      -3.77869802       1.61569005
Si       5.37131568       3.09165792       2.92535594       4.49897524       3.77869974      -1.61569005
Si       8.84940496       8.07534233       7.47938632      -4.49897668       3.77869802      -1.61569005
Si       6.00526064       6.87571173       6.18270482      -4.49897524      -3.77869974       1.61569005
Si       4.47473910       7.47409718       6.31902549     -10.77157101       0.92496648      -5.26151529
Si       7.31888365       7.47695630       7.34306565     -10.77157065      -0.92497060       5.26151529
Si       6.90183722       2.49327247       2.78903527      10.77157101      -0.92496648       5.26151529
Si       4.05769267       2.49041335       1.76499511      10.77157065       0.92497060      -5.26151529
Si       3.84078653       3.40478095       3.46278553     -22.46292891      -5.11270650      -2.11832659
Si       0.99664232       1.57890370       1.09124485     -22.46293086       5.11269792       2.11832659
Si       7.53578979       6.56258870       5.64527523      22.46292891       5.11270650       2.11832659
Si      10.37993400       8.38846595       8.01681591      22.46293086      -5.11269792      -2.11832659
Si       4.81014787       4.26095320       4.49585932      11.12197502      11.96730528      11.00738390
Si       1.96600399       0.72273182       0.05817106      11.12197959     -11.96730104     -11.00738390
Si       6.56642845       5.70641645       4.61220144     -11.12197502     -11.96730528     -11.00738390
Si       9.41057233       9.24463783       9.04988970     -11.12197960      11.96730104      11.00738390
Si       4.26621658       1.32797480       4.52296741      -0.00000000      -0.00000000      -0.00000000
Si       1.42207158       3.65571002       0.03106297      -0.00000000       0.00000000       0.00000000
18
Lattice="6.603567387742234 1.261018910198573e-06 -1.3591920162074174e-16 3.301782250180449 7.560163715792869 0.34737679508824004 3.301783103024958 3.094079867278128 9.66849333399542" Properties=species:S:1:pos:R:3:forces:R:3 unique_starting_index=182 config_type=initial n_minim_iter=3 energy=-2897.4421200736083 stress="-0.17372488372424685 -0.03195999971652325 -0.058958878228802816 -0.043552395920493175 8.322461031999157e-09 -2.7061679864313615e-08" pbc="T T T"
Si       2.93688847       2.01640141       1.79608276       3.24893959      -2.63695566       1.36041254
Si       6.23867191       3.31072149       3.21185231       3.24893859       2.63695690      -1.36041253
Si      10.27024428       8.63784342       8.21978737      -3.24893959       2.63695566      -1.36041254
Si       6.96846083       7.34352334       6.80401783      -3.24893859      -2.63695690       1.36041254
Si       5.18737438       7.96984215       6.96724877      -2.86107503       0.41405449      -1.59952778
Si       8.48915807       8.01152393       8.05655643      -2.86107487      -0.41405558       1.59952778
Si       8.01975837       2.68440268       3.04862137       2.86107503      -0.41405449       1.59952778
Si       4.71797468       2.64272090       1.95931370       2.86107488       0.41405558      -1.59952778
Si       4.44340931       3.64991980       3.79166830      -9.56481458      -2.40442196      -2.51389896
Si       1.14162599       1.67720242       1.21626677      -9.56481550       2.40441831       2.51389896
Si       8.76372344       7.00432503       6.22420184       9.56481458       2.40442196       2.51389896
Si      12.06550675       8.97704241       8.79960336       9.56481550      -2.40441831      -2.51389896
Si       5.59174420       4.58510870       4.92556951       5.33869275       5.01652423       4.85167546
Si       2.28996124       0.74201395       0.08236556       5.33869467      -5.01652219      -4.85167546
Si       7.61538855       6.06913613       5.09030063      -5.33869275      -5.01652423      -4.85167545
Si      10.91717151       9.91223088       9.93350457      -5.33869467       5.01652219       4.85167546
Si       4.95267525       1.54704056       4.83424667       0.00000000       0.00000000      -0.00000000
Si       1.65089113       3.78008185       0.17368840      -0.00000000       0.00000000      -0.00000000
18
Lattice="7.054624954936361 1.3471529782289038e-06 1.9769980186878725e-16 3.52731101480244 7.659530366337566 0.48269180533947936 3.5273118481886057 3.2953438665653616 9.941237724575814" Properties=species:S:1:pos:R:3:forces:R:3 unique_starting_index=182 config_type=initial n_minim_iter=4 energy=-2903.90619444756 stress="-0.11567197354627853 -0.012115627599104891 -0.02639596542419059 -0.02971987581363063 5.681962055894801e-09 -1.977907164245848e-08" pbc="T T T"
Si       3.14147997       2.06942549       1.87206585       3.00391256      -2.05620476       1.09001568
Si       6.66879219       3.40801281       3.33989893       3.00391178       2.05620591      -1.09001568
Si      10.96776785       8.88545007       8.55186369      -3.00391256       2.05620476      -1.09001568
Si       7.44045563       7.54686276       7.08403061      -3.00391178      -2.05620591       1.09001568
Si       5.53818780       8.18608508       7.25904769      -2.08291500       0.35326699      -1.73312012
Si       9.06550027       8.24622702       8.37684661      -2.08291486      -0.35326779       1.73312012
Si       8.57106002       2.76879048       3.16488185       2.08291500      -0.35326699       1.73312012
Si       5.04374756       2.70864854       2.04708292       2.08291486       0.35326779      -1.73312012
Si       4.73517959       3.75661833       3.93708188      -6.97984726      -0.18581071      -1.24578579
Si       1.20786750       1.72081923       1.27488290      -6.97984733       0.18580805       1.24578579
Si       9.37406823       7.19825723       6.48684766       6.97984726       0.18581071       1.24578579
Si      12.90138032       9.23405634       9.14904664       6.97984733      -0.18580805      -1.24578579
Si       5.98024043       4.72975911       5.12027780       3.97203563       3.50237894       3.54326475
Si       2.45292871       0.74767892       0.09168698       3.97203696      -3.50237742      -3.54326475
Si       8.12900739       6.22511645       5.30365174      -3.97203563      -3.50237894      -3.54326475
Si      11.65631911      10.20719664      10.33224256      -3.97203696       3.50237742       3.54326475
Si       5.29096840       1.64767260       4.97061887      -0.00000000       0.00000000      -0.00000000
Si       1.76365551       3.82976517       0.24134591       0.00000000       0.00000000      -0.00000000
18
Lattice="8.229997528912932 1.5716024238689382e-06 4.642404121597429e-16 4.1149972730741515 7.809910324997094 0.8128802628109297 4.114998047598258 3.753966293301279 10.439436713216663" Properties=species:S:1:pos:R:3:forces:R:3 unique_starting_index=182 config_type=initial n_minim_iter=5 energy=-2912.719246387306 stress="-0.03484231479257691 0.0019737054598119755 0.004247360773994276 -0.015540415151558027 2.967727470063876e-09 -7.027993756415987e-09" pbc="T T T"
Si       3.67943417       2.17511680       2.02746060       0.92660564      -0.85195910       0.03989979
Si       7.79443266       3.60682289       3.59869789       0.92660531       0.85195945      -0.03989979
Si      12.78055869       9.38876137       9.22485638      -0.92660564       0.85195910      -0.03989979
Si       8.66556020       7.95705528       7.65361909      -0.92660531      -0.85195945       0.03989979
Si       6.45081661       8.61987411       7.85331590      -0.37098429      -0.13482025      -1.38320937
Si      10.56581536       8.72594170       9.02515957      -0.37098434       0.13482010       1.38320938
Si      10.00917625       2.94400407       3.39900108       0.37098429       0.13482025       1.38320938
Si       5.89417750       2.83793648       2.22715741       0.37098434      -0.13482010      -1.38320938
Si       5.49029730       3.97897533       4.23035631      -2.41675929       0.80057279       0.03108114
Si       1.37529895       1.80296348       1.39580218      -2.41675899      -0.80057372      -0.03108114
Si      10.96969556       7.58490284       7.02196067       2.41675929      -0.80057280      -0.03108114
Si      15.08469391       9.76091469       9.85651480       2.41675899       0.80057372       0.03108114
Si       6.99585093       5.02967740       5.51361684       1.18462337       0.11233147       0.64496260
Si       2.88085298       0.75226199       0.11254165       1.18462341      -0.11233101      -0.64496260
Si       9.46414192       6.53420077       5.73870014      -1.18462337      -0.11233147      -0.64496260
Si      13.57913987      10.81161618      11.13977533      -1.18462341       0.11233101       0.64496260
Si       6.17249779       1.87698392       5.21971836       0.00000000       0.00000000      -0.00000000
Si       2.05749864       3.90495515       0.40644013      -0.00000000      -0.00000000      -0.00000000
18
Lattice="8.954093403606844 1.709875957147352e-06 3.455806249090045e-16 4.4770452107283 7.808301722618527 1.107358198944083 4.477045915982859 4.1151009564324665 10.484185037003432" Properties=species:S:1:pos:R:3:forces:R:3 unique_starting_index=182 config_type=initial n_minim_iter=6 energy=-2913.933258362481 stress="0.020690179341670372 0.02613992816882652 0.030735843982778472 0.007265224668222153 -1.383461270444755e-09 -1.0408729111387693e-09" pbc="T T T"
Si       4.01158805       2.23582388       2.09139091       0.09141740      -0.63235476      -0.59329019
Si       8.48863447       3.72587897       3.70438071       0.09141716       0.63235479       0.59329019
Si      13.89659649       9.68758049       9.50015233      -0.09141740       0.63235476       0.59329019
Si       9.41955007       8.19752540       7.88716253      -0.09141715      -0.63235479      -0.59329019
Si       7.01500147       8.86650489       8.10439914      -0.08102862      -0.67083195      -0.01553612
Si      11.49204814       9.01860008       9.28291572      -0.08102887       0.67083192       0.01553612
Si      10.89318307       3.05689948       3.48714410       0.08102862       0.67083195       0.01553612
Si       6.41613640       2.90480429       2.30862752       0.08102887      -0.67083192      -0.01553612
Si       5.95136574       4.11916094       4.34465172      -0.92370120       0.43927763       0.27218447
Si       1.47431947       1.84254095       1.45111990      -0.92370103      -0.43927798      -0.27218447
Si      11.95681880       7.80424344       7.24689152       0.92370120      -0.43927763      -0.27218447
Si      16.43386507      10.08086342      10.14042334       0.92370103       0.43927798       0.27218447
Si       7.62213834       5.20956928       5.65847957       1.15134788      -1.54002661      -0.79114737
Si       3.14509249       0.75213324       0.13729206       1.15134729       1.54002705       0.79114737
Si      10.28604620       6.71383509       5.93306368      -1.15134788       1.54002661       0.79114737
Si      14.76309205      11.17127113      11.45425118      -1.15134729      -1.54002704      -0.79114737
Si       6.71556966       2.05755133       5.24209252      -0.00000000      -0.00000000       0.00000000
Si       2.23852261       3.90415085       0.55367910       0.00000000       0.00000000      -0.00000000
18
Lattice="8.742791092413023 1.6695256145054538e-06 1.446736745615828e-15 4.3713941011239275 7.567452968343872 1.0066050476789223 4.371394800245166 3.90637051300555 10.086210883156456" Properties=species:S:1:pos:R:3:forces:R:3 unique_starting_index=182 config_type=initial n_minim_iter=7 energy=-2914.8283478839057 stress="-0.014305127120391918 0.009421786241870376 0.011164303628233486 -0.0052038654815362 9.939089064675213e-10 -4.5335933728367565e-09" pbc="T T T"
Si       3.91731405       2.15068018       1.99915669       0.54488659      -0.56532260      -0.32141817
Si       8.28870932       3.58623304       3.54725128       0.54488638       0.56532281       0.32141817
Si      13.56826595       9.32314495       9.09365925      -0.54488659       0.56532260       0.32141817
Si       9.19687068       7.88759210       7.54556466      -0.54488638      -0.56532281      -0.32141817
Si       6.84911025       8.53515730       7.75109912      -0.52144067      -1.08422860      -0.34800487
Si      11.22050577       8.67557885       8.88812478      -0.52144109       1.08422840       0.34800487
Si      10.63646975       2.93866783       3.34171682       0.52144067       1.08422860       0.34800487
Si       6.26507423       2.79824628       2.20469115       0.52144109      -1.08422840      -0.34800487
Si       5.80695136       3.96201709       4.16131165      -1.72045844       0.44817094       0.37257292
Si       1.43555623       1.77489519       1.38509632      -1.72045827      -0.44817160      -0.37257292
Si      11.67862864       7.51180805       6.93150429       1.72045844      -0.44817094      -0.37257292
Si      16.05002377       9.69892995       9.70771962       1.72045827       0.44817160       0.37257292
Si       7.44721853       5.00487621       5.41741541       0.74156771      -0.79704633       0.38911321
Si       3.07582380       0.73203669       0.12899256       0.74156741       0.79704661      -0.38911321
Si      10.03836147       6.46894893       5.67540052      -0.74156771       0.79704633      -0.38911321
Si      14.40975620      10.74178845      10.96382338      -0.74156741      -0.79704661       0.38911321
Si       6.55709295       1.95318608       5.04310544       0.00000000       0.00000000      -0.00000000
Si       2.18569705       3.78372648       0.50330253       0.00000000       0.00000000       0.00000000
18
Lattice="8.861943310238217 1.6922789527708872e-06 1.733902765806675e-15 4.430970221921817 7.505213366080099 1.034616229423461 4.430970906781059 3.918816584898651 10.00006413354094" Properties=species:S:1:pos:R:3:forces:R:3 unique_starting_index=182 config_type=initial n_minim_iter=8 energy=-2915.165108106155 stress="-0.00786515760434145 0.009069653434095538 0.014165327145106193 -0.0026526543775252523 5.082408300742443e-10 -3.232722706777207e-09" pbc="T T T"
Si       3.97278068       2.13990047       1.98827225       0.55872678      -0.50461567      -0.40971896
Si       8.40375207       3.57211601       3.52906794       0.55872659       0.50461589       0.40971896
Si      13.75110376       9.28413116       9.04640812      -0.55872678       0.50461567       0.40971896
Si       9.32013238       7.85191562       7.50561243      -0.55872659      -0.50461589      -0.40971896
Si       6.94046467       8.49384634       7.71200861      -0.41943306      -1.13479598      -0.33303512
Si      11.37143629       8.64219952       8.84001194      -0.41943350       1.13479582       0.33303512
Si      10.78341978       2.93018528       3.32267176       0.41943306       1.13479598       0.33303512
Si       6.35244815       2.78183210       2.19466843       0.41943350      -1.13479582      -0.33303512
Si       5.87952769       3.94726794       4.13862675      -1.52770248       0.47717596       0.33063772
Si       1.44855645       1.76474757       1.37871343      -1.52770230      -0.47717654      -0.33063772
Si      11.84435675       7.47676368       6.89605362       1.52770249      -0.47717595      -0.33063772
Si      16.27532799       9.65928406       9.65596693       1.52770230       0.47717654       0.33063772
Si       7.55154336       4.98471699       5.38631303       0.67023857      -0.83598373       0.34955626
Si       3.12057252       0.72729916       0.13102716       0.67023825       0.83598399      -0.34955626
Si      10.17234108       6.43931463       5.64836734      -0.67023857       0.83598373      -0.34955626
Si      14.60331193      10.69673247      10.90365321      -0.67023825      -0.83598399       0.34955626
Si       6.64645711       1.95940913       5.00003207       0.00000000       0.00000000       0.00000000
Si       2.21548511       3.75260668       0.51730812       0.00000000       0.00000000      -0.00000000
18
Lattice="8.96289436444644 1.7115565909603953e-06 2.5443633498643337e-15 4.481445766908503 7.411567847017907 1.0462597950320796 4.481446437463528 3.900077853228236 9.81468343389988" Properties=species:S:1:pos:R:3:forces:R:3 unique_starting_index=182 config_type=initial n_minim_iter=9 energy=-2915.5692523062826 stress="-0.006046840525383128 0.006488170323092382 0.014384907466412623 0.00012930635339095014 -2.5204542708251162e-11 -2.3916034104201345e-09" pbc="T T T"
Si       4.02138274       2.11707023       1.95587960       0.61153398      -0.43552457      -0.41278943
Si       8.50282965       3.53875415       3.47459202       0.61153382       0.43552481       0.41278943
Si      13.90440384       9.19457717       8.90506364      -0.61153398       0.43552457       0.41278943
Si       9.42295693       7.77289325       7.38635121      -0.61153382      -0.43552481      -0.41278943
Si       7.01701535       8.40568835       7.59112842      -0.36335046      -1.16773415      -0.47366965
Si      11.49846250       8.56178116       8.70028643      -0.36335090       1.16773401       0.47366965
Si      10.90877123       2.90595905       3.26981482       0.36335046       1.16773415       0.47366965
Si       6.42732407       2.74986624       2.16065680       0.36335090      -1.16773401      -0.47366965
Si       5.93735564       3.91088122       4.07321236      -1.43428433       0.60187234       0.27386726
Si       1.45590887       1.74494217       1.35725926      -1.43428410      -0.60187289      -0.27386726
Si      11.98843093       7.40076618       6.78773087       1.43428433      -0.60187234      -0.27386727
Si      16.46987770       9.56670523       9.50368397       1.43428410       0.60187289       0.27386726
Si       7.64158080       4.93568042       5.29929773       0.53609073      -0.66785824       0.31312693
Si       3.16013442       0.72014363       0.13117389       0.53609048       0.66785844      -0.31312693
Si      10.28420578       6.37596698       5.56164551      -0.53609073       0.66785824      -0.31312693
Si      14.76565216      10.59150377      10.72976934      -0.53609048      -0.66785844       0.31312693
Si       6.72217040       1.95003977       4.90734172      -0.00000000       0.00000000      -0.00000000
Si       2.24072289       3.70578392       0.52312990      -0.00000000       0.00000000       0.00000000
18
Lattice="9.13095540872884 1.7436495715182745e-06 2.684082181401736e-15 4.565476317168061 7.264320689099072 1.010289965802179 4.56547697796238 3.803944502367053 9.39385366644245" Properties=species:S:1:pos:R:3:forces:R:3 unique_starting_index=182 config_type=initial n_minim_iter=10 energy=-2916.144588277584 stress="-0.006314719119074781 -0.0017114233084993735 0.0010744793391975795 0.0027421384626651266 -5.217093999532649e-10 -8.820602906710493e-10" pbc="T T T"
Si       4.10501647       2.06880341       1.87083380       0.67499545      -0.16972905      -0.29774483
Si       8.67049390       3.46533073       3.33123802       0.67499538       0.16972931       0.29774483
Si      14.15689224       8.99946351       8.53330984      -0.67499544       0.16972905       0.29774483
Si       9.59141481       7.60293619       7.07290562      -0.67499538      -0.16972931      -0.29774483
Si       7.14369995       8.21902392       7.26821520      -0.34024636      -1.08148280      -1.14996250
Si      11.70917762       8.38337484       8.33800026      -0.34024677       1.08148267       1.14996250
Si      11.11820876       2.84924300       3.13592844       0.34024636       1.08148280       1.14996250
Si       6.55273109       2.68489208       2.06614338       0.34024677      -1.08148267      -1.14996250
Si       6.02938363       3.82962926       3.90384149      -1.35949702       0.97955622       0.36587538
Si       1.46390633       1.70450388       1.29823033      -1.35949664      -0.97955674      -0.36587538
Si      12.23252508       7.23863766       6.50030215       1.35949702      -0.97955622      -0.36587538
Si      16.79800238       9.36376304       9.10591330       1.35949664       0.97955674       0.36587538
Si       7.79208072       4.82533445       5.07642356       0.31249784      -0.02290040       0.01329819
Si       3.22660380       0.70879936       0.12564826       0.31249784       0.02290052      -0.01329819
Si      10.46982800       6.24293247       5.32772008      -0.31249784       0.02290040      -0.01329819
Si      15.03530491      10.35946756      10.27849537      -0.31249784      -0.02290052       0.01329819
Si       6.84821620       1.90197312       4.69692684      -0.00000000      -0.00000000       0.00000000
Si       2.28273816       3.63216034       0.50514499      -0.00000000       0.00000000      -0.00000000
18
Lattice="9.287669954190463 1.7735758204880608e-06 2.1230034709894818e-15 4.643833584907373 7.290459647136042 0.9571069331328049 4.643834261406322 3.747843145702595 9.340233644926911" Properties=species:S:1:pos:R:3:forces:R:3 unique_starting_index=182 config_type=initial n_minim_iter=11 energy=-2916.3513925347265 stress="0.003355190306346784 0.00725794675329516 0.004934200528537803 -0.004572394246082921 8.723411416531029e-10 -7.38032449913291e-10" pbc="T T T"
Si       4.18411248       2.06261326       1.84944940       0.61814514       0.00396279      -0.22424143
Si       8.82794719       3.45653972       3.29922090       0.61814514      -0.00396256       0.22424143
Si      14.39122533       8.97569129       8.44789118      -0.61814514      -0.00396279       0.22424143
Si       9.74739062       7.58176483       6.99811969      -0.61814514       0.00396255      -0.22424143
Si       7.26195126       8.19385336       7.18338424      -0.24929485      -1.16200628      -0.85862827
Si      11.90578621       8.36360181       8.26262664      -0.24929530       1.16200618       0.85862827
Si      11.31338655       2.84445119       3.11395635       0.24929485       1.16200627       0.85862827
Si       6.66955160       2.67470274       2.03471395       0.24929530      -1.16200618      -0.85862827
Si       6.11546097       3.82193010       3.86897868      -1.12567776       0.65584362       0.73784992
Si       1.47162640       1.69722185       1.27969161      -1.12567751      -0.65584405      -0.73784992
Si      12.45987683       7.21637445       6.42836190       1.12567776      -0.65584362      -0.73784992
Si      17.10371141       9.34108270       9.01764897       1.12567751       0.65584405       0.73784992
Si       7.92981693       4.80792505       5.02832489       0.27379567      -0.34533732       0.06267445
Si       3.28598274       0.71122759       0.12034541       0.27379554       0.34533742      -0.06267445
Si      10.64552088       6.23037950       5.26901569      -0.27379567       0.34533732      -0.06267445
Si      15.28935507      10.32707696      10.17699518      -0.27379554      -0.34533742       0.06267445
Si       6.96575211       1.87392245       4.67011683       0.00000000       0.00000000      -0.00000000
Si       2.32191680       3.64522982       0.47855347       0.00000000       0.00000000      -0.00000000
18
Lattice="9.251512712220794 1.7666712250941277e-06 2.6087425251398392e-15 4.6257549746264965 7.23440633026323 0.9889458393103506 4.6257556367301795 3.7671734020485763 9.306243656124769" Properties=species:S:1:pos:R:3:forces:R:3 unique_starting_index=182 config_type=initial n_minim_iter=12 energy=-2916.4575947860912 stress="-0.0016160754228634754 0.0001451898456678166 5.172446208696717e-05 0.0023913649718440475 -4.557734335825876e-10 -3.355939298347594e-10" pbc="T T T"
Si       4.17121846       2.05523532       1.84902479       0.63081008      -0.02146114      -0.26017209
Si       8.79697455       3.44555612       3.29856996       0.63081007       0.02146138       0.26017209
Si      14.33180487       8.94634616       8.44616471      -0.63081008       0.02146114       0.26017209
Si       9.70604878       7.55602536       6.99661954      -0.63081007      -0.02146138      -0.26017209
Si       7.23231108       8.16133809       7.18207709      -0.28779892      -0.93082125      -1.04226291
Si      11.85806740       8.34103249       8.26070716      -0.28779928       0.93082113       1.04226291
Si      11.27071225       2.84024340       3.11311241       0.28779893       0.93082125       1.04226291
Si       6.64495593       2.66054899       2.03448234       0.28779928      -0.93082114      -1.04226291
Si       6.08547098       3.81255145       3.86832966      -1.15213384       0.90065887       0.41829442
Si       1.45971503       1.68823896       1.27926510      -1.15213349      -0.90065931      -0.41829442
Si      12.41755236       7.18903003       6.42685984       1.15213384      -0.90065887      -0.41829442
Si      17.04330831       9.31334253       9.01592440       1.15213349       0.90065931       0.41829442
Si       7.90044956       4.79423397       5.02424180       0.16455194      -0.05489141      -0.10641756
Si       3.27469399       0.70655713       0.12335295       0.16455192       0.05489148       0.10641756
Si      10.60257377       6.20734751       5.27094770      -0.16455194       0.05489141       0.10641756
Si      15.22832934      10.29502435      10.17183655      -0.16455192      -0.05489148      -0.10641756
Si       6.93863418       1.88358758       4.65312183      -0.00000000      -0.00000000       0.00000000
Si       2.31287749       3.61720316       0.49447292       0.00000000       0.00000000       0.00000000
18
Lattice="9.26516528091637 1.7692783232787503e-06 3.75757864930013e-15 4.632581259565114 7.231312341110394 0.9730115923294531 4.632581925023858 3.746510010381388 9.297563926404942" Properties=species:S:1:pos:R:3:forces:R:3 unique_starting_index=182 config_type=initial n_minim_iter=13 energy=-2916.5175586952664 stress="-0.00039047716586894176 0.0016393083863803885 0.0007417080486741673 0.000704484107030597 -1.3423396656685133e-10 -3.884219334182799e-10" pbc="T T T"
Si       4.18013603       2.05081508       1.84400570       0.62350489       0.01681673      -0.24148847
Si       8.81271840       3.43809768       3.29128206       0.62350490      -0.01681649       0.24148847
Si      14.35019244       8.92700903       8.42656982      -0.62350490      -0.01681673       0.24148846
Si       9.71761007       7.53972643       6.97929346      -0.62350490       0.01681649      -0.24148846
Si       7.24172374       8.14280111       7.16178353      -0.28302626      -0.95401024      -0.96783141
Si      11.87430635       8.32393340       8.24407975      -0.28302663       0.95401013       0.96783141
Si      11.28860473       2.83502300       3.10879199       0.28302626       0.95401024       0.96783141
Si       6.65602213       2.65389070       2.02649578       0.28302663      -0.95401013      -0.96783141
Si       6.08940668       3.80525716       3.86083239      -1.11694554       0.82469396       0.47336151
Si       1.45682444       1.68365456       1.27445537      -1.11694522      -0.82469439      -0.47336151
Si      12.44092179       7.17256695       6.40974313       1.11694554      -0.82469396      -0.47336151