18
Lattice="4.055001187964447 6.2188454025032226e-21 -2.595074925223724e-36 -6.73595298743974e-21 10.288878701697012 -4.5602475883645726e-15 -1.9495912827310165e-37 4.5440696225265674e-15 10.292870894755053" Properties=species:S:1:pos:R:3:forces:R:3 unique_starting_index=294 config_type=initial n_minim_iter=16 energy=-2929.046391636196 stress="4.342309510638301e-05 4.2385176983739065e-14 -2.7438731318620207e-13 4.2385176983739065e-14 -3.053475388968354e-05 2.7833184760391495e-12 -2.7438731318620207e-13 2.7833184760391495e-12 -2.794781481380607e-05" free_energy=-2929.046391636196 pbc="T T T"
Si       3.04858538       6.33844500       8.13613129       0.00855315      -0.00317017       0.00107411
Si       3.04858538       3.95043370       2.15673961       0.00855315       0.00317017      -0.00107411
Si       1.00641581       9.09487305       2.98969584      -0.00855315       0.00317017       0.00107411
Si       1.00641581       1.19400565       7.30317505      -0.00855315      -0.00317017      -0.00107411
Si       1.00641581       9.09487305       7.30317505      -0.00855315       0.00317017      -0.00107411
Si       1.00641581       1.19400565       2.98969584      -0.00855315      -0.00317017       0.00107411
Si       3.04858538       6.33844500       2.15673961       0.00855315      -0.00317017      -0.00107411
Si       3.04858538       3.95043370       8.13613129       0.00855315       0.00317017       0.00107411
Si       3.05077368       2.15740236       3.95250718       0.00681898      -0.00135662      -0.00251639
Si       3.05077368       8.13147634       6.34036371       0.00681898       0.00135662       0.00251639
Si       1.00422751       2.98703699       9.09894263      -0.00681898       0.00135662      -0.00251639
Si       1.00422751       7.30184172       1.19392826      -0.00681898      -0.00135662       0.00251639
Si       1.00422751       2.98703699       1.19392826      -0.00681898       0.00135662       0.00251639
Si       1.00422751       7.30184172       9.09894263      -0.00681898      -0.00135662      -0.00251639
Si       3.05077368       2.15740236       6.34036371       0.00681898      -0.00135662       0.00251639
Si       3.05077368       8.13147634       3.95250718       0.00681898       0.00135662      -0.00251639
Si       2.02656609       5.14443935      -0.00000000       0.00045745       0.00000000      -0.00000000
Si       2.02843510       0.00000000       5.14643545      -0.00045745       0.00000000      -0.00000000
