10
Lattice="3.7113373233364513 -0.45360296908927605 0.34975859461110803 1.32716361753318 4.950008151986678 1.9822144567023072 0.6675281079252886 5.644514430601506 11.04986742740038" Properties=species:S:1:pos:R:3:forces:R:3 unique_starting_index=160 config_type=initial n_minim_iter=1 energy=-1628.2417818302026 stress="0.0013383486374109474 0.0005105418914986655 2.7764204289136708e-05 0.0005105418914986655 -0.0006367900684774149 0.0002826024177709918 2.7764204289136708e-05 0.0002826024177709918 0.0005601416459144759" free_energy=-1628.2417818302026 pbc="T T T"
Si       3.35945072       9.25114767      11.72850284       0.00704453       0.12124232       0.14605806
Si       5.45782343       9.39449679      10.37096889       0.01883528       0.06606102      -0.06054580
Si       3.05484658       0.93434610       3.33141530      -0.04968069       0.17167688       0.12698723
Si       4.18084421       1.75059488       5.38914686      -0.05396366      -0.17488631      -0.07094851
Si       1.49835344       4.19171874       4.09841740       0.08405938      -0.16869204      -0.08222685
Si       2.23061375       2.02868005       6.72628367       0.22845815       0.00106613      -0.15306967
Si       3.57492468       4.40316014       2.78235322      -0.12926389      -0.02719079      -0.06468472
Si       4.23275530       7.08207711      11.00635802       0.02435685      -0.28143203       0.07129167
Si       1.46778337       1.69435604       1.56557542      -0.15075163       0.23612237      -0.04303878
Si       2.42527483       4.65454689       6.40320717       0.02090568       0.05603243       0.13017737
10
Lattice="3.6861102181413052 -0.46577448173898317 0.34885929629088286 1.3039644623527697 4.9602880603215045 1.9686356689338738 0.6458148642693653 5.645275308473952 11.008270451714157" Properties=species:S:1:pos:R:3:forces:R:3 unique_starting_index=160 config_type=initial n_minim_iter=2 energy=-1628.2503595771198 stress="-0.005411958421423998 -0.0009776786684802723 -0.00013269391843549543 -0.0009776786684802723 -0.00035144459206557866 -0.001605934192723405 -0.00013269391843549543 -0.001605934192723405 -0.0032044941952359147" free_energy=-1628.2503595771198 pbc="T T T"
Si       3.30888070       9.25969701      11.68364149       0.01459230       0.03738955       0.06958980
Si       5.39250414       9.39813424      10.32313305       0.01475974       0.06284116      -0.04980188
Si       3.02850783       0.92963550       3.32360917      -0.05420627       0.12104069       0.04533258
Si       4.14386921       1.73152335       5.36758505       0.03214795      -0.11402122      -0.08129821
Si       1.47834293       4.19040279       4.07705883       0.00596071      -0.11425826      -0.04482764
Si       2.21541007       2.01940240       6.69799825       0.15225803       0.02392818      -0.06901234
Si       3.53304945       4.40340489       2.76484875      -0.05980437       0.00482742       0.00145967
Si       4.18255479       7.06917992      10.96446219      -0.01260269      -0.22343395       0.07726393
Si       1.44775236       1.70127924       1.55676602      -0.10554878       0.19724014      -0.04590192
Si       2.39507262       4.65592917       6.38081585       0.01244338       0.00444628       0.09719600
10
Lattice="3.701472426254469 -0.47131531244053365 0.3498157127645238 1.3042840455119964 4.987767343413408 1.986177575548024 0.6439234485049237 5.69462153692837 11.062453422639708" Properties=species:S:1:pos:R:3:forces:R:3 unique_starting_index=160 config_type=initial n_minim_iter=3 energy=-1628.257023313222 stress="0.0021420837198452888 -0.0018038624692197614 0.0004269006136463137 -0.0018038624692197614 0.00785644064508423 -0.00047345471626434357 0.0004269006136463137 -0.00047345471626434357 0.004583533324403091" free_energy=-1628.257023313222 pbc="T T T"
Si       3.31447329       9.33107057      11.75453999       0.04095415      -0.08714798      -0.05438083
Si       5.40662877       9.46353874      10.37951897      -0.00616464       0.03852751      -0.00098934
Si       3.03742412       0.94613394       3.34443123      -0.02335449      -0.01519317      -0.06684657
Si       4.15780990       1.73791985       5.38862111       0.10597992      -0.08135135      -0.05712508
Si       1.48381851       4.20968319       4.09754358      -0.06441525       0.02540631       0.03807629
Si       2.23406361       2.04071271       6.72151676       0.11988957       0.04287779      -0.02367979
Si       3.53717088       4.42631883       2.78222384      -0.00590816       0.07406790       0.11294292
Si       4.19423308       7.10764747      11.02558865      -0.09934692      -0.10172531       0.05920831
Si       1.44462051       1.72350171       1.56404673      -0.04851684       0.09256820      -0.04814129
Si       2.40163896       4.69163819       6.42163286      -0.01911735       0.01197010       0.04093537
10
Lattice="3.7091469701767705 -0.4537401541324252 0.3450281061724821 1.3221299847609158 4.947010834129017 1.994677482034526 0.6570493785638314 5.673747470970881 11.04312722967874" Properties=species:S:1:pos:R:3:forces:R:3 unique_starting_index=160 config_type=initial n_minim_iter=4 energy=-1628.2654015899657 stress="0.00015801794670672786 -0.0008476305851816693 0.0009622020267101215 -0.0008476305851816693 -0.002007583281778163 0.0022555467550582067 0.0009622020267101215 0.0022555467550582067 -0.0018628756986093307" free_energy=-1628.2654015899657 pbc="T T T"
Si       3.34620331       9.28621975      11.74716987       0.02206852      -0.04565543      -0.13461484
Si       5.44468560       9.41966221      10.36953381      -0.00965690       0.00668500       0.02354501
Si       3.04385778       0.96269701       3.33775375      -0.03659039      -0.05580077      -0.10891287
Si       4.17079631       1.74344990       5.37014039       0.14105490      -0.06535232      -0.00395445
Si       1.50006599       4.17857245       4.09399566      -0.06430791       0.06846068       0.03323241
Si       2.25151702       2.04915814       6.69900868       0.06308556       0.08429081       0.03496673
Si       3.55417510       4.40102967       2.78449513       0.02099008       0.04175223       0.14233672
Si       4.22026116       7.07181866      11.01235460      -0.06467082      -0.05022200       0.01325791
Si       1.44689869       1.72519363       1.56126146      -0.09021366       0.04472957       0.00196804
Si       2.41926176       4.67331387       6.41882763       0.01824062      -0.02888778      -0.00182466
10
Lattice="3.7051247000687186 -0.44533933683331495 0.3399182534567041 1.3304648611358427 4.943363355046941 1.976176248398375 0.6491854428767555 5.632800194730073 11.03993151973373" Properties=species:S:1:pos:R:3:forces:R:3 unique_starting_index=160 config_type=initial n_minim_iter=5 energy=-1628.268702393152 stress="-0.0003971627893662705 0.0006667269845494007 -0.0010404624519091714 0.0006667269845494007 -0.000533131548572782 -0.00043155312839029627 -0.0010404624519091714 -0.00043155312839029627 -0.0004947004423746879" free_energy=-1628.268702393152 pbc="T T T"
Si       3.34535119       9.24923842      11.72371979       0.01536077      -0.09566213      -0.11890570
Si       5.44530282       9.39471342      10.34089025      -0.03317666       0.01391147       0.01444599
Si       3.03742137       0.95690600       3.33240484      -0.04991794      -0.04172805      -0.10649032
Si       4.16406195       1.73279636       5.36460650       0.13574386      -0.00330826      -0.01139643
Si       1.50094610       4.16802839       4.08263966      -0.03990748      -0.00290496       0.04491932
Si       2.24281139       2.03011731       6.69929610       0.09283024       0.06385151       0.03812588
Si       3.55852664       4.40082696       2.76709323      -0.00710504       0.05895328       0.11300395
Si       4.21311084       7.04003219      10.99659876      -0.07366336      -0.05772418       0.03193133
Si       1.44645403       1.72367838       1.55434424      -0.08413790       0.08085341      -0.00531789
Si       2.41732900       4.65474067       6.40736871       0.04397350      -0.01624208      -0.00031613
10
Lattice="3.7044729419816353 -0.4488582886200159 0.3514036453399472 1.3317379605567161 4.944013883343716 1.9763273822127847 0.6750420102583011 5.621033841954787 11.055126344476957" Properties=species:S:1:pos:R:3:forces:R:3 unique_starting_index=160 config_type=initial n_minim_iter=6 energy=-1628.2715261255353 stress="-0.0004777336890926754 2.358998163610583e-06 0.002056065581945697 2.358998163610583e-06 -9.528270592094597e-05 -0.0012365958850196626 0.002056065581945697 -0.0012365958850196626 0.002620948765573326" free_energy=-1628.2715261255353 pbc="T T T"
Si       3.36999853       9.23523718      11.73840419       0.00626391      -0.04256477      -0.06369235
Si       5.46331627       9.38501481      10.36246616      -0.00583620       0.01548127       0.01714721
Si       3.04228035       0.94992585       3.34246654      -0.05163715      -0.01011796      -0.08516605
Si       4.18040459       1.72149460       5.38306082       0.14795140      -0.02344708      -0.02573189
Si       1.50693074       4.16446677       4.08979641      -0.05914137       0.01245493       0.05568752
Si       2.26324252       2.02306900       6.71607963       0.05372999       0.06841160       0.05245588
Si       3.56050690       4.40032137       2.78015328      -0.00340831       0.00663509       0.05168208
Si       4.23323880       7.02318686      11.02096587      -0.05535154      -0.05978156       0.00402326
Si       1.44471081       1.72610986       1.55824777      -0.06900802       0.05394674      -0.00174804
Si       2.43168639       4.64738299       6.42054113       0.03643729      -0.02101825      -0.00465761
10
Lattice="3.7141047782048484 -0.4572075764869832 0.34085747807383343 1.3226213253540857 4.972725966532564 1.9689165823556025 0.6415914823285097 5.661720670903343 11.01329736409299" Properties=species:S:1:pos:R:3:forces:R:3 unique_starting_index=160 config_type=initial n_minim_iter=7 energy=-1628.2804012088598 stress="0.0028688468620149993 -0.0009329632917651896 0.0002187059553396579 -0.0009329632917651896 0.004541345333657451 4.850097007627882e-06 0.0002187059553396579 4.850097007627882e-06 0.0013004204350589197" free_energy=-1628.2804012088598 pbc="T T T"
Si       3.33937255       9.28590732      11.67841275       0.09362183      -0.09278677       0.04107111
Si       5.43547194       9.44487481      10.31498196      -0.00977170       0.06541926       0.00349536
Si       3.03159303       0.95394695       3.31112242      -0.03485094      -0.03937725      -0.06216394
Si       4.19627819       1.71809094       5.34714349       0.01065466       0.01192638       0.04420703
Si       1.48915064       4.18625892       4.07687388      -0.00491044       0.03751591       0.05981376
Si       2.27173102       2.04761348       6.68519366       0.13618833       0.02025310      -0.06393587
Si       3.55143449       4.42951244       2.77896991      -0.11356659       0.01764034      -0.04651034
Si       4.19638038       7.04569620      10.97887475      -0.10594588       0.01199469       0.05220439
Si       1.42352850       1.75568636       1.54704738       0.02363542      -0.03096912      -0.01415291
Si       2.42124739       4.67499354       6.39775849       0.00494532      -0.00161655      -0.01402859
10
Lattice="3.708764112763791 -0.4482373186253434 0.3348516434747082 1.3277798394357887 4.958005326712227 1.967737908626586 0.6332873113802518 5.642180159281986 11.020902538260927" Properties=species:S:1:pos:R:3:forces:R:3 unique_starting_index=160 config_type=initial n_minim_iter=8 energy=-1628.285143370103 stress="0.00019790376642570134 -0.000411311421309132 -0.0001371451845397653 -0.000411311421309132 0.0008379299354361964 0.0004811569908910912 -0.0001371451845397653 0.0004811569908910912 0.0011915970799978256" free_energy=-1628.285143370103 pbc="T T T"
Si       3.33720500       9.25553866      11.67792517       0.08889483      -0.06492721       0.05844563
Si       5.42986644       9.42587666      10.31283807      -0.00632625       0.07376584       0.00979677
Si       3.01941649       0.95773695       3.30360448      -0.03324955      -0.03299670      -0.04604026
Si       4.19537834       1.71340059       5.34160605      -0.01203941       0.03800273       0.06113541
Si       1.48699132       4.17171029       4.07912374       0.01366544       0.03055569       0.05856703
Si       2.27582151       2.04982832       6.68455332       0.12526203       0.01369209      -0.04016547
Si       3.54700910       4.42407688       2.78067361      -0.14305637      -0.02056202      -0.10312934
Si       4.18107159       7.01643868      10.98491215      -0.09155871       0.03935663       0.01222364
Si       1.41330936       1.76349170       1.54385073       0.02935605      -0.06393098       0.01331976
Si       2.41998181       4.66279259       6.40198410       0.02905193      -0.01295607      -0.02415317
10
Lattice="3.7122626177890776 -0.44083536169878756 0.3333634276095487 1.338326384160408 4.950337690537319 1.9554809549454493 0.6407778421385142 5.6181280820290995 10.989341441304042" Properties=species:S:1:pos:R:3:forces:R:3 unique_starting_index=160 config_type=initial n_minim_iter=9 energy=-1628.287413289768 stress="-0.00028237251232151624 0.0003775176688253356 0.0003522503868370653 0.0003775176688253356 -0.0010661192457533315 -0.000276912877862886 0.0003522503868370653 -0.000276912877862886 -0.0012416963367447556" free_energy=-1628.287413289768 pbc="T T T"
Si       3.35819133       9.22662013      11.63611686       0.06036205      -0.06141027       0.04448685
Si       5.44991106       9.41072102      10.27484587       0.00863422       0.07762362       0.01834260
Si       3.01929097       0.95734339       3.28941238      -0.04014547      -0.02133219      -0.02083241
Si       4.20860040       1.70701615       5.32541187      -0.00295573       0.06300292       0.05880959
Si       1.49398392       4.16099511       4.06612956       0.01238910       0.00918974       0.04196779
Si       2.29182031       2.04535113       6.66498140       0.09539628       0.00960461      -0.02799443
Si       3.55329616       4.42216185       2.76961430      -0.13617457      -0.03217272      -0.10915118
Si       4.18955995       6.98955285      10.95326762      -0.08286211       0.03898814       0.00473929
Si       1.41133502       1.76818458       1.53639448       0.04010316      -0.06721652       0.01835920
Si       2.43229759       4.65033005       6.38259937       0.04525308      -0.01627733      -0.02872728
10
Lattice="3.7089430892619633 -0.4342102619624924 0.3163693582150173 1.337178669682823 4.9456914762379185 1.9464886645753094 0.5981103643328627 5.604522985223626 10.988139095365405" Properties=species:S:1:pos:R:3:forces:R:3 unique_starting_index=160 config_type=initial n_minim_iter=10 energy=-1628.2922055274587 stress="-0.0025085662742263828 0.0004661030296239746 -0.00046480435830281833 0.0004661030296239746 -0.003984078436583647 -0.00013137505817316643 -0.00046480435830281833 -0.00013137505817316643 -0.0003547940635884578" free_energy=-1628.2922055274587 pbc="T T T"
Si       3.33091735       9.19717082      11.61396040      -0.00694285      -0.01787776      -0.00297890
Si       5.41328719       9.41670588      10.24907841       0.05402435       0.09328554       0.04031123
Si       2.99005939       0.95663755       3.26011469      -0.00395845       0.00144446       0.07746138
Si       4.20582048       1.70205496       5.30815894      -0.02841336       0.05213621       0.01962946
Si       1.47719154       4.15420513       4.06843170       0.00256510      -0.00000659      -0.02850031
Si       2.30108238       2.05540432       6.65063537       0.04770624      -0.02337368       0.01015008
Si       3.52434390       4.42551696       2.75487020      -0.10093657      -0.06170227      -0.09147431
Si       4.12592003       6.96216848      10.94410828      -0.06265716       0.02047166      -0.04597302
Si       1.39100709       1.78199896       1.52767119       0.04404654      -0.08781213       0.02955485
Si       2.41968522       4.64190281       6.37396886       0.05456616       0.02343457      -0.00818047
10
Lattice="3.7142741866576867 -0.43877737465710526 0.3156025529055267 1.3363029486603588 4.975595272605426 1.9458098186427082 0.5970546803568397 5.646254880661734 10.96570687420414" Properties=species:S:1:pos:R:3:forces:R:3 unique_starting_index=160 config_type=initial n_minim_iter=11 energy=-1628.297072443611 stress="-6.393186289022761e-05 0.0008285339400994803 0.0004597692291522852 0.0008285339400994803 0.0006163774250777941 2.646237521745271e-05 0.0004597692291522852 2.646237521745271e-05 -0.0011283696427201479" free_energy=-1628.297072443611 pbc="T T T"
Si       3.33683170       9.25197605      11.59473709      -0.04878371      -0.03676874      -0.07586939
Si       5.41758285       9.48491204      10.23443425       0.07784755       0.09766163       0.04603289
Si       2.99117823       0.95967756       3.25114121       0.01982526      -0.00711722       0.11999344
Si       4.21154649       1.71937137       5.30174707       0.03308867       0.00435286      -0.05508148
Si       1.47713901       4.18382264       4.06563899      -0.05562248       0.00671002      -0.06756458
Si       2.31279676       2.07245226       6.63456009      -0.00842299      -0.01666517      -0.00231123
Si       3.51525186       4.44926914       2.74425431       0.00042382      -0.01208960       0.01084695
Si       4.11984726       7.01384902      10.92311027      -0.06989867      -0.03387538       0.01340427
Si       1.39585252       1.78539697       1.52713171       0.03089138      -0.05561745      -0.01990587
Si       2.42498062       4.67254871       6.35950096       0.02065117       0.05340905       0.03045501
10
Lattice="3.7176262311127553 -0.4456676979716472 0.3120698820622228 1.3260984948815242 4.9718115290164855 1.9443656697114184 0.5754602577741054 5.640842086263528 10.971420634943946" Properties=species:S:1:pos:R:3:forces:R:3 unique_starting_index=160 config_type=initial n_minim_iter=12 energy=-1628.2984078688376 stress="0.0007716262770026474 -0.0005353605784600001 -4.3789934840103444e-05 -0.0005353605784600001 0.00025075246673440197 -0.0002955079681330666 -4.3789934840103444e-05 -0.0002955079681330666 -3.0317788809609575e-05" free_energy=-1628.2984078688376 pbc="T T T"
Si       3.31108669       9.23816756      11.59599323      -0.04685927      -0.03069991      -0.09272100
Si       5.39468478       9.47408425      10.23461069       0.07793060       0.08533597       0.04992233
Si       2.98724740       0.95215020       3.25068518       0.02556505      -0.00990229       0.11182994
Si       4.20755933       1.71036043       5.30085902       0.01426501      -0.00916316      -0.04310203
Si       1.46525881       4.17971954       4.06608272      -0.05631541       0.02523860      -0.08267645
Si       2.30748264       2.06635908       6.63568671       0.00469945      -0.01576910      -0.00608795
Si       3.50330274       4.44079367       2.74002812       0.00908955      -0.01359875       0.03719994
Si       4.09453216       7.00099957      10.92534979      -0.06159180      -0.03305895       0.01310925
Si       1.39232714       1.78060502       1.52622552       0.01780411      -0.05906930      -0.01962772
Si       2.41311794       4.66600105       6.36032540       0.01541270       0.06068690       0.03215369
10
Lattice="3.714129072552697 -0.45125994776617995 0.2967199341248087 1.310378458499281 4.987302890334114 1.9518548719532978 0.5210838058092941 5.672957856695568 11.008195395253109" Properties=species:S:1:pos:R:3:forces:R:3 unique_starting_index=160 config_type=initial n_minim_iter=13 energy=-1628.3026082289236 stress="0.00035705964780758043 -0.0016953894018239728 -0.0009507175228047959 -0.0016953894018239728 0.0009385838662486148 0.001102496198859177 -0.0009507175228047959 0.001102496198859177 0.004611944343122882" free_energy=-1628.3026082289236 pbc="T T T"
Si       3.25327571       9.26008444      11.61671224      -0.01215371       0.02225259      -0.04428368
Si       5.34382727       9.53608306      10.26314260       0.05420660       0.08381633       0.04726178
Si       2.96177972       0.95186460       3.25242374       0.05578043      -0.02953428       0.09382852
Si       4.19465575       1.71702521       5.29844196       0.01022592      -0.02007475      -0.02838868
Si       1.43268888       4.19834805       4.07704891      -0.06017468       0.05597331      -0.08346087
Si       2.30507044       2.08586797       6.64233695      -0.01446658      -0.00715449       0.03440893
Si       3.46105942       4.45182254       2.73896734       0.02768050      -0.05275835       0.00505893
Si       4.00804467       7.01910061      10.95650282      -0.03115584      -0.05245174      -0.02387974
Si       1.37806100       1.78323033       1.52549775      -0.02216982      -0.05752014      -0.02594452
Si       2.38978279       4.69145985       6.37897407      -0.00777281       0.05745152       0.02539932
10
Lattice="3.7248851149337816 -0.44388672376817395 0.28904751752311514 1.3233147349026828 4.99160100528556 1.9218425263197665 0.5159209466449902 5.646822165095196 10.926210070919492" Properties=species:S:1:pos:R:3:forces:R:3 unique_starting_index=160 config_type=initial n_minim_iter=14 energy=-1628.3114188995248 stress="0.00042183675668003615 -0.0009409094085167264 0.00022234168688257903 -0.0009409094085167264 -0.0016918830360914481 -0.0008345004296502579 0.00022234168688257903 -0.0008345004296502579 -0.00021770586360551162" free_energy=-1628.3114188995248 pbc="T T T"
Si       3.26802992       9.22203228      11.49451798       0.03903254       0.05964246       0.02426603
Si       5.38460655       9.57187887      10.17729786      -0.01833855       0.04185156       0.01409455
Si       2.96170713       0.94370302       3.24277627       0.01436404      -0.03259404       0.00918675
Si       4.22166594       1.71205428       5.24752242       0.08157049       0.05175044       0.01987519
Si       1.42419410       4.20007569       4.02767234      -0.02756460       0.01668543      -0.03641094
Si       2.33932409       2.07842696       6.58790338      -0.08983307       0.05887937       0.07782101
Si       3.45243910       4.45197326       2.70000481       0.04479937      -0.08463298      -0.04798171
Si       3.97920410       6.98373221      10.87157043       0.03812423      -0.11679431      -0.01766022
Si       1.38111661       1.77318729       1.50389229      -0.06852884       0.01460607      -0.03338234
Si       2.41219411       4.69628649       6.33003655      -0.01362560      -0.00939401      -0.00980832
10
Lattice="3.7204194594502185 -0.4394995072636682 0.28999202195476065 1.3289855171096223 5.002266812696597 1.9260001612974287 0.5267218337069497 5.665460863576494 10.92789191311146" Properties=species:S:1:pos:R:3:forces:R:3 unique_starting_index=160 config_type=initial n_minim_iter=15 energy=-1628.313087570514 stress="4.4710563811435504e-05 -5.868496239943013e-06 -8.782334842939634e-05 -5.868496239943013e-06 -5.534889840897626e-05 -5.3139461004607326e-05 -8.782334842939634e-05 -5.3139461004607326e-05 -0.0004028502129794708" free_energy=-1628.313087570514 pbc="T T T"
Si       3.27995511       9.25150430      11.49951175       0.05902955       0.02398258       0.04759118
Si       5.39534686       9.60259644      10.18472297      -0.03171449       0.06075080       0.00353869
Si       2.96187860       0.95175332       3.24568334       0.01194376      -0.03670958      -0.00156800
Si       4.22262540       1.72453390       5.24786797       0.06805840       0.06724043       0.03039633
Si       1.42865240       4.21148018       4.02859084      -0.01409280       0.00783753      -0.01121574
Si       2.33950372       2.09075737       6.58988064      -0.07357582       0.05156476       0.05784641
Si       3.45762134       4.46416006       2.70471197       0.02256252      -0.07294278      -0.07420029
Si       3.98899146       7.00574639      10.87554250       0.01975288      -0.09254133      -0.00661124
Si       1.38111950       1.77965593       1.50451891      -0.04459201       0.00902970      -0.03228938
Si       2.41744390       4.71258144       6.33374587      -0.01737199      -0.01821212      -0.01348796
10
Lattice="3.712191097939437 -0.43048058384834403 0.29272578164919305 1.3409029402348196 5.018045295154854 1.9319180991740312 0.5494463917631733 5.6896136998509705 10.934295646394169" Properties=species:S:1:pos:R:3:forces:R:3 unique_starting_index=160 config_type=initial n_minim_iter=16 energy=-1628.3153827687788 stress="-0.00047663353697553605 0.0013401462382813542 -6.341043842362433e-05 0.0013401462382813542 0.001806081909828603 0.0009506627838407768 -6.341043842362433e-05 0.0009506627838407768 -0.00016749702576770447" free_energy=-1628.3153827687788 pbc="T T T"
Si       3.31015182       9.29074694      11.51066781       0.05169943      -0.03521515       0.03608913
Si       5.41969737       9.65776502      10.20184434      -0.03640758       0.06280642      -0.00935585
Si       2.96220310       0.96121927       3.25415142       0.00370733      -0.01307099      -0.01429548
Si       4.23128512       1.74864083       5.25288732       0.01000792       0.05971228       0.04222274
Si       1.43578715       4.22951057       4.02971011       0.02372182      -0.00903823       0.01907996
Si       2.34332796       2.11200650       6.59857162      -0.02516370       0.04632279       0.01210907
Si       3.46456130       4.47836259       2.70751457      -0.00626387      -0.04044356      -0.07311659
Si       4.00467526       7.03030990      10.88647476      -0.00127058      -0.04408798       0.01906161
Si       1.38012852       1.78734866       1.50402131       0.00250728      -0.00102470      -0.02744225
Si       2.43074544       4.73672246       6.34150926      -0.02253804      -0.02596086      -0.00435234
10
Lattice="3.71391250517529 -0.4321221522817856 0.28705249417153156 1.3370133207128918 5.0166103056458695 1.9224770561922346 0.5299235062472634 5.67652183736929 10.922034796807935" Properties=species:S:1:pos:R:3:forces:R:3 unique_starting_index=160 config_type=initial n_minim_iter=17 energy=-1628.317626893845 stress="-0.00014574923854450243 0.00021408635424276232 1.4480365358953109e-05 0.00021408635424276232 0.0004871079297396075 0.00016531824595459753 1.4480365358953109e-05 0.00016531824595459753 -1.7910730954319354e-06" free_energy=-1628.317626893845 pbc="T T T"
Si       3.29932968       9.26667814      11.48457982      -0.00504271      -0.02418908      -0.04025912
Si       5.40590378       9.66789243      10.18193447      -0.00551239       0.00542695       0.01215970
Si       2.95316205       0.95100874       3.24779097       0.00409492       0.01917480      -0.00818642
Si       4.23938876       1.74518786       5.24313416      -0.04853417       0.01909330       0.03964771
Si       1.42252860       4.22703685       4.01977272       0.03894999      -0.00064342      -0.01477398
Si       2.34894935       2.11279370       6.59028768       0.00079012       0.05567918       0.01748091
Si       3.44725530       4.46823956       2.68883489       0.00710179      -0.03508169       0.00046302
Si       3.96957382       6.99936991      10.87162053       0.01439931      -0.01158153       0.00171242
Si       1.37072453       1.78510584       1.49497699       0.01733783      -0.01581413      -0.01659201
Si       2.42632444       4.73063290       6.33087506      -0.02358469      -0.01206438       0.00834777
10
Lattice="3.7145068716444487 -0.4338111320871538 0.2894012726889791 1.3352732836798606 5.0095718807464475 1.9234759006497621 0.53294083179884 5.667785938202113 10.926769588071705" Properties=species:S:1:pos:R:3:forces:R:3 unique_starting_index=160 config_type=initial n_minim_iter=18 energy=-1628.3180392795812 stress="0.0001642792065605092 -0.0001383433120430484 -0.0001050956413583722 -0.0001383433120430484 -0.0002307827861471728 -0.0001370075765315828 -0.0001050956413583722 -0.0001370075765315828 -3.065345902765371e-05" free_energy=-1628.3180392795812 pbc="T T T"
Si       3.29939465       9.25496962      11.49266286      -0.01079116      -0.03124921      -0.05548603
Si       5.40542937       9.64797036      10.18805116      -0.00252988       0.00247134       0.00808754
Si       2.95743188       0.94779603       3.25202021      -0.00123981       0.02563570      -0.00932093
Si       4.23669417       1.74271001       5.24975874      -0.05354474       0.00161788       0.03494538
Si       1.42456913       4.22123974       4.02092809       0.03766260      -0.00295823      -0.01663419
Si       2.34301957       2.10671836       6.59654197       0.00879749       0.05718928       0.00058305
Si       3.45105935       4.45863257       2.68943281       0.01061744      -0.01925008       0.02061758
Si       3.97761689       6.99138761      10.87593679       0.01753075      -0.02316026       0.01690067
Si       1.37406506       1.77862680       1.49639433       0.01167846      -0.00534653      -0.01419904
Si       2.42444988       4.72174863       6.33328592      -0.01818115      -0.00494989       0.01450599
10
Lattice="3.7120228480526283 -0.4354471251593343 0.29499643553306865 1.334074031297273 5.002634776776771 1.9263352072761895 0.5448798881098127 5.659576042237739 10.935059211704722" Properties=species:S:1:pos:R:3:forces:R:3 unique_starting_index=160 config_type=initial n_minim_iter=19 energy=-1628.3189694202297 stress="-0.0002949632358829399 -0.00043712177402839856 0.00046397228811297943 -0.00043712177402839856 -0.0007590432649271689 -0.00033030420508038016 0.00046397228811297943 -0.00033030420508038016 0.0003892278267093685" free_energy=-1628.3189694202297 pbc="T T T"
Si       3.30696425       9.24157451      11.50210343      -0.00957308      -0.02202440      -0.02734808
Si       5.40821586       9.63226875      10.20338568       0.01327824       0.00609958      -0.01544940