18
Lattice="7.9727524502217735 -7.171123130951823e-15 -2.8017221777951196e-29 -3.9863762251108805 6.904606159976688 -4.853244525828742e-29 1.7393228149508633e-29 4.4829481179050634e-29 4.95199312162339" Properties=species:S:1:pos:R:3:forces:R:3 unique_starting_index=28 config_type=initial n_minim_iter=11 energy=-2931.039697111197 stress="-2.781844438735651e-06 -3.5595446039832106e-15 4.13289268877952e-15 -3.5595446039832106e-15 -2.781844437021933e-06 5.289840877893374e-16 4.13289268877952e-15 5.289840877893374e-16 5.584257735523247e-06" free_energy=-2931.039697111197 pbc="T T T"
Si      -1.32907771       3.83749841       0.33911504      -0.00120559      -0.00542392      -0.00130608
Si       0.00153373       6.13687202       0.33911504      -0.00409446       0.00375603      -0.00130608
Si       1.32754397       3.83484190       0.33911504       0.00530005       0.00166789      -0.00130608
Si      -0.00153374       6.13687202       2.81511161       0.00409446       0.00375603      -0.00130608
Si      -1.32754398       3.83484190       2.81511161      -0.00530005       0.00166789      -0.00130608
Si       1.32907771       3.83749841       2.81511161       0.00120559      -0.00542392      -0.00130608
Si      -2.65593044       6.13756534       2.81390598      -0.00889135       0.00088541       0.00110098
Si       2.65687650       6.13592672       2.81390598       0.00521247       0.00725743       0.00110098
Si      -0.00094606       1.53572026       2.81390598       0.00367889      -0.00814285       0.00110098
Si      -2.65687650       6.13592672       5.28990254      -0.00521247       0.00725743       0.00110098
Si       0.00094605       1.53572026       5.28990254      -0.00367889      -0.00814284       0.00110098
Si       2.65593044       6.13756534       5.28990254       0.00889136       0.00088541       0.00110098
Si       5.31659307       1.53416974       0.33835647      -0.00551304       0.00623662       0.00020510
Si       2.65670965       1.53321663       0.33835647       0.00815759       0.00165612       0.00020510
Si       3.98582594       3.83721979       0.33835647      -0.00264455      -0.00789274       0.00020510
Si       5.31604279       1.53321663       2.81435303      -0.00815759       0.00165612       0.00020510
Si       3.98692650       3.83721979       2.81435303       0.00264455      -0.00789274       0.00020510
Si       2.65615937       1.53416974       2.81435303       0.00551304       0.00623662       0.00020510
