24
Lattice="10.61124379072114 -0.11325837666644478 -0.0858137452615706 3.8311429378865185 9.896143998320017 -0.08581374526156837 3.831142937886514 2.595113526998238 9.55020501436236" Properties=species:S:1:pos:R:3:forces:R:3 unique_starting_index=15 config_type=initial n_minim_iter=1 energy=-3898.4216836247533 stress="-0.0009602810655713099 0.0008838386963545201 0.000669667979045522 0.0008838386963545201 -0.0016663956017058021 0.0004536151382387732 0.000669667979045522 0.0004536151382387732 -0.0019213885617803395" free_energy=-3898.4216836247533 pbc="T T T"
Si      11.05320873       1.61020135       2.75785530      -0.22029628       0.25007261       0.28399463
Si       5.59558375       5.27076808       8.56039624       0.15050934       0.19294442      -0.36309655
Si       6.97042166       9.11805309       0.80390739       0.23501037      -0.33109911       0.16390003
Si       6.97042166       3.24110714       8.56039624       0.23501037       0.06819630      -0.36309654
Si      11.05320873       3.09067099       0.80390739      -0.22029628       0.34106604       0.16390003
Si       5.59558375       9.66724438       2.75785530       0.15050934      -0.29734441       0.28399463
Si      12.31562727       2.44884512       4.68034556      -0.19452569       0.05151656       0.05049277
Si       6.84269378       7.35458081       8.86931987      -0.02431991      -0.00544150      -0.20596760
Si       9.36817885       9.51966040       1.09107424      -0.01407490      -0.20384917       0.03593235
Si       9.36817885       3.62622974       8.86931987      -0.01407490      -0.02056612      -0.20596760
Si      12.31562727       5.16836860       1.09107424      -0.19452569       0.06254872       0.03593235
Si       6.84269378      10.52848799       4.68034556      -0.02431991      -0.19975671       0.05049278
Si      15.46615831       7.29007740       3.99981958       0.02328131      -0.20093364      -0.11943930
Si      12.50721648       7.00515833      10.14116023      -0.17796062      -0.08896511       0.12488923
Si      11.14498480      12.20249244       5.93585126      -0.14863326       0.08444295      -0.16111994
Si      11.14498480       9.01620879      10.14116023      -0.14863326      -0.13226083       0.12488923
Si      15.46615831       5.82318256       5.93585126       0.02328131      -0.16935300      -0.16111994
Si      12.50721648      11.65833682       3.99981958      -0.17796062       0.09615802      -0.11943930
Si      12.92306084      10.21111686       9.21536812       0.19183355       0.11984731      -0.11695542
Si      14.27645830      11.09393025       5.41321243       0.18245827      -0.07641894       0.16034706
Si      15.59833574       7.68507252       7.33668873      -0.00328218       0.20788363       0.14702273
Si      15.59833574       9.14245439       5.41321243      -0.00328218       0.19778803       0.16034707
Si      12.92306084      11.63455696       7.33668873       0.19183355      -0.08016398       0.14702273
Si      14.27645830       8.21310828       9.21536812       0.18245827       0.13368794      -0.11695542
24
Lattice="10.620730615643257 -0.1219945586718597 -0.09243298632114662 3.8265492924931572 9.908194688969717 -0.09243298632114415 3.8265492924931515 2.592001914747842 9.563597227269225" Properties=species:S:1:pos:R:3:forces:R:3 unique_starting_index=15 config_type=initial n_minim_iter=2 energy=-3898.427855877331 stress="0.00042789494576667077 0.0001367712272748462 0.00010362898760089511 0.0001367712272748462 0.00031862596883981394 7.019549868623368e-05 0.00010362898760089511 7.019549868623368e-05 0.00027916662050104607" free_energy=-3898.427855877331 pbc="T T T"
Si      11.05974215       1.60278425       2.75551492      -0.20323430       0.23691547       0.26316820
Si       5.59111949       5.27090118       8.56951923       0.14462023       0.17850281      -0.33750905
Si       6.96888922       9.12570064       0.79740025       0.21941456      -0.30649633       0.15686896
Si       6.96888922       3.23691203       8.56951923       0.21941456       0.06808460      -0.33750905
Si      11.05974215       3.08641097       0.79740025      -0.20323430       0.31745640       0.15686896
Si       5.59111949       9.67606308       2.75551492       0.14462023      -0.27661907       0.26316820
Si      12.32143580       2.44070682       4.68005629      -0.18521962       0.01279597       0.03770932
Si       6.83729086       7.35657876       8.87749736      -0.05682563      -0.01152312      -0.18036103
Si       9.36802999       9.52597467       1.08331780      -0.03178083      -0.18675530       0.00211514
Si       9.36802999       3.62047118       8.87749736      -0.03178083      -0.04849653      -0.18036103
Si      12.32143580       5.16588803       1.08331780      -0.18521962       0.03976501       0.00211514
Si       6.83729086      10.53690104       4.68005629      -0.05682563      -0.17675093       0.03770932
Si      15.47143298       7.28683669       3.99422952       0.04762143      -0.17842179      -0.10853553
Si      12.50616367       7.00142747      10.14854573      -0.14802584      -0.07461161       0.13565970
Si      11.14112960      12.20971237       5.93424401      -0.12419935       0.10089283      -0.14239822
Si      11.14112960       9.01661509      10.14854573      -0.12419935      -0.10978644       0.13565970
Si      15.47143298       5.81692414       5.93424401       0.04762143      -0.15276466      -0.14239822
Si      12.50616367      11.66443730       3.99422952      -0.14802584       0.11041053      -0.10853553
Si      12.92067964      10.21252134       9.21931446       0.18770917       0.11538834      -0.14037213
Si      14.27687924      11.09699006       5.40951424       0.17678749      -0.09955093       0.16458838
Si      15.60133338       7.68131092       7.33697300      -0.02686731       0.21286366       0.14906626
Si      15.60133338       9.14171023       5.40951424      -0.02686731       0.20110284       0.16458838
Si      12.92067964      11.63873612       7.33697300       0.18770917      -0.10391369       0.14906626
Si      14.27687924       8.21037597       9.21931446       0.17678749       0.13151192      -0.14037213
24
Lattice="10.570413416135827 -0.16259708282836358 -0.1231967564500855 3.770178222725077 9.876529439446742 -0.12319675645008304 3.770178222725071 2.5538176631920355 9.54143734204792" Properties=species:S:1:pos:R:3:forces:R:3 unique_starting_index=15 config_type=initial n_minim_iter=3 energy=-3898.44298383012 stress="-0.0017746569828445376 -0.001396356466323162 -0.0010579930733143324 -0.001396356466323162 -0.0006590828342553086 -0.0007166561462725683 -0.0010579930733143324 -0.0007166561462725683 -0.0002562252971710631" free_energy=-3898.44298383012 pbc="T T T"
Si      10.98873421       1.55602452       2.72294053      -0.18180573       0.11419426       0.09526859
Si       5.52135515       5.22639278       8.53155043       0.03860429       0.03456900      -0.22909485
Si       6.90167690       9.07608556       0.76119888       0.04642305      -0.21431836       0.08415640
Si       6.90167690       3.18863610       8.53155043       0.04642305       0.02302624      -0.22909485
Si      10.98873421       3.04239934       0.76119888      -0.18180573       0.12261376       0.08415640
Si       5.52135515       9.62746743       2.72294053       0.03860429      -0.21119508       0.09526859
Si      12.23586311       2.37998084       4.63702454      -0.01788747       0.03166213       0.10773710
Si       6.74915386       7.29974517       8.83432476       0.02276754       0.09604537      -0.05645051
Si       9.28255641       9.46797043       1.03650075       0.09763831      -0.05826430       0.00132922
Si       9.28255641       3.55970561       8.83432476       0.09763831      -0.01448568      -0.05645051
Si      12.23586311       5.10803011       1.03650075      -0.01788747       0.11228538       0.00132922
Si       6.74915386      10.47996073       4.63702454       0.02276754      -0.02835650       0.10773710
Si      15.35804876       7.20349898       3.93020274       0.06921233      -0.16980340      -0.11551773
Si      12.38671140       6.91966330      10.09426537      -0.13201307      -0.07677313       0.15377361
Si      11.02088760      12.13564833       5.87133961      -0.12026659       0.12257163      -0.13221207
Si      11.02088760       8.93601678      10.09426537      -0.12026659      -0.09411436       0.15377361
Si      15.35804876       5.73273603       5.87133961       0.06921233      -0.15715442      -0.13221207
Si      12.38671140      11.59005781       3.93020274      -0.13201307       0.12726386      -0.11551773
Si      12.79543835      10.12878546       9.15325206       0.17544446       0.03550398      -0.19034957
Si      14.15265873      11.01032675       5.34532657       0.09805320      -0.14272751       0.19567493
Si      15.47477298       7.59700276       7.27423609      -0.09617031       0.22734033       0.08568488
Si      15.47477298       9.05850128       5.34532657      -0.09617031       0.14400293       0.19567493
Si      12.79543835      11.55248057       7.27423609       0.17544446      -0.17364214       0.08568488
Si      14.15265873       8.12513312       9.15325206       0.09805320       0.14975601      -0.19034957
24
Lattice="10.607904872854668 -0.12806770735709336 -0.09703449703982109 3.8161516585850976 9.898536944815625 -0.09703449703981867 3.8161516585850928 2.5849588362615914 9.555544838277342" Properties=species:S:1:pos:R:3:forces:R:3 unique_starting_index=15 config_type=initial n_minim_iter=4 energy=-3898.478906331927 stress="0.0001343414073816621 -0.00022319472736962543 -0.00016911045339346566 -0.00022319472736962543 0.00031265566594528536 -0.00011455088884844506 -0.00016911045339346566 -0.00011455088884844506 0.00037704873292880066" free_energy=-3898.478906331927 pbc="T T T"
Si      11.03253550       1.60703535       2.76248407      -0.02861757      -0.03058462       0.04995642
Si       5.58497476       5.27034726       8.54179238      -0.03901830       0.04397188      -0.02817932
Si       6.96609539       9.09751966       0.79960704       0.02636035      -0.04134619      -0.04296106
Si       6.96609539       3.23141121       8.54179238       0.02636034      -0.05254604      -0.02817932
Si      11.03253550       3.09427042       0.79960704      -0.02861757       0.03981721      -0.04296106
Si       5.58497476       9.64922065       2.76248407      -0.03901830      -0.01523011       0.04995642
Si      12.29352660       2.43137356       4.67389931      -0.00981631      -0.00149068       0.10260026
Si       6.81827041       7.34457535       8.85754537      -0.00502575       0.09645595      -0.03600537
Si       9.34982724       9.50319240       1.07599868       0.08770946      -0.04560684      -0.02919694
Si       9.34982724       3.60726059       8.85754537       0.08770946      -0.04044822      -0.03600537
Si      12.29352660       5.15743531       1.07599868      -0.00981631       0.09836958      -0.02919694
Si       6.81827041      10.51444541       4.67389931      -0.00502575      -0.00856293       0.10260026
Si      15.44935867       7.26088403       3.97657083       0.02819276      -0.00681571       0.05898963
Si      12.47387411       6.98148574      10.14285745       0.00412891       0.06455743       0.01167701
Si      11.11063266      12.19812431       5.91403760       0.06148290       0.00579898      -0.02252304
Si      11.11063266       8.99402692      10.14285745       0.06148290      -0.02011375       0.01167700
Si      15.44935867       5.79290183       5.91403760       0.02819276       0.05494491      -0.02252304
Si      12.47387411      11.65356533       3.97657083       0.00412890       0.02870954       0.05898963
Si      12.90555758      10.20056654       9.19686317      -0.04310015      -0.07867674       0.04755340
Si      14.26016777      11.07277642       5.40633922      -0.08905147       0.04284659      -0.02330201
Si      15.57264814       7.67648558       7.33153908       0.00675518      -0.04911004      -0.08860897
Si      15.57264814       9.13517337       5.40633922       0.00675518      -0.09859190      -0.02330201
Si      12.90555758      11.61388757       7.33153908      -0.04310015       0.02449093      -0.08860897
Si      14.26016777       8.20076759       9.19686317      -0.08905147      -0.01083922       0.04755340
24
Lattice="10.619250029463705 -0.10215458710316144 -0.07740061241376353 3.844424444590676 9.899459956874662 -0.07740061241376107 3.84442444459067 2.6041100636103365 9.551120827901313" Properties=species:S:1:pos:R:3:forces:R:3 unique_starting_index=15 config_type=initial n_minim_iter=5 energy=-3898.4839219563546 stress="-0.00019395916280476176 0.0006770092932745852 0.0005129572330091065 0.0006770092932745852 -0.0007348339854069729 0.00034746347698513434 0.0005129572330091065 0.00034746347698513434 -0.0009301553826820885" free_energy=-3898.4839219563546 pbc="T T T"
Si      11.05158344       1.63469938       2.78486807      -0.00829481       0.04239267       0.06731134
Si       5.61773094       5.29390579       8.54288530       0.03629093       0.05846096      -0.04076817
Si       7.00012416       9.10443799       0.82018239       0.06775215      -0.03599633       0.02259800
Si       7.00012416       3.25309101       8.54288530       0.06775215       0.01201503      -0.04076817
Si      11.05158344       3.12330483       0.82018239      -0.00829481       0.07627113       0.02259800
Si       5.61773094       9.65664733       2.78486807       0.03629093      -0.02342886       0.06731134
Si      12.32052378       2.46555411       4.69937930      -0.04707810       0.01075907       0.05476730
Si       6.86002698       7.37245775       8.86258008      -0.00747257       0.03981473      -0.06074957
Si       9.39121015       9.51573306       1.10200973       0.03420194      -0.06435749      -0.00446137
Si       9.39121015       3.63569463       8.86258008       0.03420194      -0.02170897      -0.06074957
Si      12.32052378       5.19121348       1.10200973      -0.04707811       0.05563552      -0.00446137
Si       6.86002698      10.52683681       4.69937930      -0.00747257      -0.04771023       0.05476730
Si      15.49329258       7.29669300       4.01192614      -0.00238170      -0.04806013      -0.00633092
Si      12.52342572       7.02296743      10.15978011      -0.04551454      -0.00186920       0.01674699
Si      11.16753617      12.22270315       5.93894425      -0.01861979       0.00487315      -0.04455429
Si      11.16753617       9.02465508      10.15978011      -0.01861979      -0.04157368       0.01674699
Si      15.49329258       5.83662756       5.93894425      -0.00238170      -0.01909899      -0.04455429
Si      12.52342572      11.68108094       4.01192614      -0.04551454       0.01561650      -0.00633092
Si      12.95925036      10.23017733       9.22286758      -0.02286065       0.03165736      -0.00717618
Si      14.30758358      11.10833034       5.43673007       0.02091828      -0.01583043      -0.02980132
Si      15.62325453       7.71408852       7.35300896      -0.00694113      -0.02184438       0.03241819
Si      15.62325453       9.16601705       5.43673007      -0.00694113       0.02529817      -0.02980132
Si      12.95925036      11.64693410       7.35300896      -0.02286065       0.00165746       0.03241819
Si      14.30758358       8.23964505       9.22286758       0.02091828      -0.03297307      -0.00717618
24
Lattice="10.61479206937407 -0.11027366813181226 -0.08355228765101928 3.835230947546023 9.898331906786876 -0.08355228765101683 3.8352309475460165 2.5978826351567905 9.551699395167219" Properties=species:S:1:pos:R:3:forces:R:3 unique_starting_index=15 config_type=initial n_minim_iter=6 energy=-3898.487246523744 stress="-6.468831380498257e-05 0.00022580938598985186 0.00017109153537180272 0.00022580938598985186 -0.0002450914703803357 0.00011589281848946793 0.00017109153537180272 0.00011589281848946793 -0.00031023888342415263" free_energy=-3898.487246523744 pbc="T T T"
Si      11.04272629       1.62669226       2.78086462       0.01320149       0.01566028       0.01882356
Si       5.60700950       5.28862981       8.53890970       0.01944011       0.01986671       0.00111632
Si       6.99124743       9.09844622       0.81355722       0.02566067       0.00396541       0.00998277
Si       6.99124743       3.24509171       8.53890970       0.02566068       0.01068335       0.00111632
Si      11.04272629       3.11728414       0.81355722       0.01320149       0.02235878       0.00998277
Si       5.60700950       9.65139244       2.78086462       0.01944011       0.00645027       0.01882356
Si      12.30946287       2.45480804       4.69458253      -0.01212452       0.00336871       0.05660994
Si       6.84594451       7.36613920       8.85782709      -0.00136933       0.05111346      -0.02736013
Si       9.38011843       9.50825300       1.09296244       0.04695854      -0.03181408      -0.01207463
Si       9.38011843       3.62496086       8.85782709       0.04695854      -0.02023255      -0.02736013
Si      12.30946287       5.18368795       1.09296244      -0.01212452       0.05540972      -0.01207463
Si       6.84594451      10.52055143       4.69458253      -0.00136933      -0.01250908       0.05660994
Si      15.47920433       7.28314432       4.00133752       0.00574242      -0.03111465      -0.00439452
Si      12.50561759       7.01059370      10.15488869      -0.02676442       0.00033547       0.01743450
Si      11.14943924      12.21476144       5.92876607      -0.00961693       0.01002519      -0.02876488
Si      11.14943924       9.01270769      10.15488869      -0.00961693      -0.02497922       0.01743450
Si      15.47920433       5.82276789       5.92876607       0.00574242      -0.01264968      -0.02876489
Si      12.50561759      11.67302387       4.00133752      -0.02676442       0.01687491      -0.00439452
Si      12.94098454      10.21884506       9.21422423      -0.03365693       0.00944110      -0.01525752
Si      14.29028401      11.09655712       5.42678599      -0.00371781      -0.02409321      -0.02933275
Si      15.60590393       7.70135014       7.34443815      -0.02375330      -0.02675440       0.01321734
Si      15.60590393       9.15431918       5.42678599      -0.02375331       0.00548501      -0.02933275
Si      12.94098454      11.63554686       7.34443815      -0.03365693      -0.01213376       0.01321734
Si      14.29028401       8.22688628       9.21422423      -0.00371781      -0.03475775      -0.01525752
24
Lattice="10.61198440390997 -0.11416245630803624 -0.08649874942941405 3.830578100468971 9.897167143757159 -0.08649874942941159 3.830578100468963 2.5947309212728458 9.551375343441899" Properties=species:S:1:pos:R:3:forces:R:3 unique_starting_index=15 config_type=initial n_minim_iter=7 energy=-3898.4887863310673 stress="8.623506935285806e-06 -5.264725313578692e-05 -3.988983606361051e-05 -5.264725313578692e-05 5.068433948703328e-05 -2.7020306045287676e-05 -3.988983606361051e-05 -2.7020306045287676e-05 6.587340107603882e-05" free_energy=-3898.4887863310673 pbc="T T T"
Si      11.03725695       1.62309301       2.78021751       0.03517870       0.00783361      -0.02013491
Si       5.60163817       5.28699379       8.53548052       0.02032448      -0.01133052       0.03410067
Si       6.98773560       9.09395949       0.81026733      -0.00298257       0.03907297       0.01298955
Si       6.98773560       3.24071052       8.53548052      -0.00298257       0.02307747       0.03410067
Si      11.03725695       3.11568727       0.81026733       0.03517870      -0.01726417       0.01298955
Si       5.60163817       9.64764851       2.78021751       0.02032448       0.02976276      -0.02013491
Si      12.30275391       2.44957853       4.69466720       0.01174147      -0.00110724       0.04515077
Si       6.83859939       7.36505981       8.85367388       0.00332734       0.04652799      -0.00132463
Si       9.37639133       9.50251740       1.08790511       0.04444252      -0.00510937      -0.01328296
Si       9.37639133       3.61854023       8.85367388       0.04444252      -0.01416997      -0.00132463
Si      12.30275391       5.18235444       1.08790511       0.01174147       0.04316689      -0.01328296
Si       6.83859939      10.51626108       4.69466720       0.00332734       0.01131446       0.04515077
Si      15.47210824       7.27505944       3.99642629       0.00905406      -0.02095121      -0.01627913
Si      12.49547722       7.00489412      10.15276089      -0.01609767      -0.01129382       0.01998135
Si      11.14038468      12.21073707       5.92231168      -0.01645956       0.01632462      -0.01576481
Si      11.14038468       9.00540514      10.15276089      -0.01645956      -0.01075957       0.01998135
Si      15.47210824       5.81585225       5.92231168       0.00905406      -0.02134091      -0.01576481
Si      12.49547722      11.66943324       3.99642629      -0.01609767       0.01618006      -0.01627913
Si      12.93055161      10.21209039       9.20941389      -0.03593503       0.00138941      -0.03084133
Si      14.28014112      11.08998267       5.42117269      -0.01204010      -0.03885995      -0.02427726
Si      15.59603598       7.69405748       7.33923705      -0.04055365      -0.02249648       0.00968271
Si      15.59603598       9.14733883       5.42117269      -0.04055365       0.00323435      -0.02427727
Si      12.93055161      11.62908826       7.33923705      -0.03593503      -0.02931490       0.00968271
Si      14.28014112       8.21970344       9.20941389      -0.01204010      -0.03388648      -0.03084133
24
Lattice="10.607028455800165 -0.11881038033920799 -0.09002039419023206 3.8244233604660645 9.894288985498259 -0.09002039419022961 3.8244233604660574 2.5905618653812597 9.549557446371786" Properties=species:S:1:pos:R:3:forces:R:3 unique_starting_index=15 config_type=initial n_minim_iter=8 energy=-3898.490571086449 stress="0.00010453055263900765 -0.0003373906861324487 -0.0002556345860302348 -0.0003373906861324487 0.0003740780142847584 -0.00017316001607973908 -0.0002556345860302348 -0.00017316001607973908 0.00047141732888769384" free_energy=-3898.490571086449 pbc="T T T"
Si      11.03023076       1.61919002       2.77970675       0.06528235       0.01499114      -0.05765381
Si       5.59540723       5.28512833       8.53073109       0.03813850      -0.04060393       0.06860945
Si       6.98369182       9.08800879       0.80664813      -0.02355907       0.07970901       0.03003205
Si       6.98369182       3.23561617       8.53073109      -0.02355907       0.05047965       0.06860945
Si      11.03023076       3.11413948       0.80664813       0.06528235      -0.05144679       0.03003205
Si       5.59540723       9.64257148       2.77970675       0.03813850       0.05506337      -0.05765380
Si      12.29268976       2.44299938       4.69905710       0.03294378      -0.00515286       0.00641174
Si       6.82875629       7.36741745       8.84583816       0.00743554       0.01496778       0.02955729
Si       9.37492938       9.49226399       1.08038355       0.01665810       0.02882069      -0.00669555
Si       9.37492938       3.60852485       8.84583816       0.01665810       0.00135260       0.02955729
Si      12.29268976       5.18480038       1.08038355       0.03294378       0.00477829      -0.00669555
Si       6.82875629      10.50935559       4.69905710       0.00743554       0.03250473       0.00641174
Si      15.46232391       7.26221244       3.98977842       0.01170144      -0.00451840      -0.04088854
Si      12.47991729       6.99732518      10.15040034       0.00014472      -0.03596943       0.02313853
Si      11.12758371      12.20531446       5.91174271      -0.03334932       0.02592217       0.00671388
Si      11.12758371       8.99376317      10.15040034      -0.03334932       0.01347753       0.02313853
Si      15.46232391       5.80597619       5.91174271       0.01170144      -0.04058587       0.00671388
Si      12.47991729      11.66511272       3.98977842       0.00014472       0.01254268      -0.04088854
Si      12.91331867      10.20162839       9.20103806      -0.02754541      -0.02151716      -0.04700805
Si      14.26403290      11.07863917       5.41176884      -0.03020009      -0.05001624      -0.00422206
Si      15.57952638       7.68209540       7.33143167      -0.05765052      -0.00663277      -0.00799493
Si      15.57952638       9.13658788       5.41176884      -0.05765052      -0.00949141      -0.00422206
Si      12.91331867      11.61819404       7.33143167      -0.02754541      -0.05107667      -0.00799493
Si      14.26403290       8.20758104       9.20103806      -0.03020009      -0.01759809      -0.04700805
24
Lattice="10.60131365615557 -0.11933540204340025 -0.09041819327676714 3.8218158514340668 9.88917669839601 -0.09041819327676469 3.8218158514340597 2.588795608660899 9.54474350196757" Properties=species:S:1:pos:R:3:forces:R:3 unique_starting_index=15 config_type=initial n_minim_iter=9 energy=-3898.4953593770665 stress="-2.6836107097618804e-05 9.41603355535739e-05 7.134351823960757e-05 9.41603355535739e-05 -0.00010206247672145044 4.832617903684645e-05 7.134351823960757e-05 4.832617903684645e-05 -0.00012922832155762957" free_energy=-3898.4953593770665 pbc="T T T"
Si      11.03169743       1.62028542       2.77586514       0.03461381       0.05137938       0.03617347
Si       5.59696855       5.28168861       8.53269059       0.06055370       0.03836453       0.00280853
Si       6.98107672       9.09063277       0.80874215       0.05809006       0.01406867       0.03967484
Si       6.98107672       3.23834208       8.53269059       0.05809006       0.04200158       0.00280853
Si      11.03169743       3.11073757       0.80874215       0.03461381       0.04872645       0.03967484
Si       5.59696855       9.64352716       2.77586514       0.06055370       0.01308454       0.03617347
Si      12.28702730       2.44101170       4.70723946      -0.02203980      -0.00164920      -0.03581160
Si       6.82480990       7.37407125       8.83927170      -0.00970736      -0.03984826      -0.00942479
Si       9.37964448       9.48428298       1.07625601      -0.04060610      -0.00751269       0.00810232
Si       9.37964448       3.60239176       8.83927170      -0.04060610       0.00576727      -0.00942479
Si      12.28702730       5.19213968       1.07625601      -0.02203980      -0.03492196       0.00810232
Si       6.82480990      10.50483449       4.70723946      -0.00970736      -0.01985547      -0.03581160
Si      15.45572003       7.25282932       3.98405482       0.00620214       0.00211760      -0.02698949
Si      12.46875389       6.99109751      10.14939601       0.00426724      -0.02463679       0.01209142
Si      11.11765924      12.20216760       5.90425832      -0.02129599       0.01518554       0.00934149
Si      11.11765924       8.98570648      10.14939601      -0.02129599       0.01310197       0.01209142
Si      15.45572003       5.79792718       5.90425832       0.00620215      -0.02540971       0.00934149
Si      12.46875389      11.66246076       3.98405482       0.00426724       0.00497408      -0.02698949
Si      12.89668762      10.19340517       9.19059047       0.00150124      -0.06847406       0.00906213
Si      14.25022699      11.06522772       5.40266416      -0.06303153       0.01597437       0.02334349
Si      15.56195043       7.67120742       7.32634214      -0.00854742       0.00503092      -0.06837181
Si      15.56195043       9.12874211       5.40266416      -0.00854742      -0.06446003       0.02334349
Si      12.89668762      11.60591112       7.32634214       0.00150124      -0.00980382      -0.06837180
Si      14.25022699       8.19518708       9.19059047      -0.06303153       0.02679509       0.00906213
24
Lattice="10.59564136858987 -0.12382615914285842 -0.0938207556046687 3.815541332995567 9.885575009359005 -0.09382075560466624 3.81554133299556 2.5845454180678713 9.542196842540507" Properties=species:S:1:pos:R:3:forces:R:3 unique_starting_index=15 config_type=initial n_minim_iter=10 energy=-3898.4991709801993 stress="4.450404513870353e-06 3.0594006386375314e-05 2.3180503835096746e-05 3.0594006386375314e-05 -1.999168952471168e-05 1.5701852170102374e-05 2.3180503835096746e-05 1.5701852170102374e-05 -2.881824987272046e-05" free_energy=-3898.4991709801993 pbc="T T T"
Si      11.03221504       1.62211874       2.77475773       0.03521775       0.01040947       0.04199945
Si       5.59886307       5.28056856       8.53279828       0.02273104       0.04823729       0.01640320
Si       6.98073937       9.09132492       0.81080672       0.05322780       0.01666128      -0.00134317
Si       6.98073937       3.24051692       8.53279828       0.05322780       0.00321519       0.01640320
Si      11.03221504       3.11016754       0.81080672       0.03521775       0.04324936      -0.00134317
Si       5.59886307       9.64332776       2.77475773       0.02273104       0.02884349       0.04199945
Si      12.27625082       2.43419592       4.71276884      -0.03240960      -0.01468319      -0.02910415
Si       6.81448281       7.37737062       8.83057534      -0.02565812      -0.03468842      -0.01585571
Si       9.37887753       9.47298488       1.06819833      -0.04173147      -0.01822969      -0.00626037
Si       9.37887753       3.59157758       8.83057534      -0.04173147      -0.01095948      -0.01585571
Si      12.27625082       5.19561856       1.06819833      -0.03240960      -0.03199149      -0.00626037
Si       6.81448281      10.49735528       4.71276884      -0.02565812      -0.02465033      -0.02910415
Si      15.44656119       7.23760829       3.97215180      -0.00425545       0.01702925       0.00515830
Si      12.45122135       6.97886491      10.14986442       0.01423562       0.00218728      -0.01128163
Si      11.09979562      12.19944086       5.89282583       0.00731202      -0.00750325       0.01499826