10
Lattice="5.587570908104166 0.4968753233767121 -0.08562812663353946 -2.051768128724536 6.800754280152055 0.4301396283516312 -0.801773768977337 -3.2160426814403715 4.905193131513591" Properties=species:S:1:pos:R:3:forces:R:3 unique_starting_index=450 config_type=initial n_minim_iter=1 energy=-1627.9609060883379 stress="-0.005275966249773932 -0.0014380234404520712 0.00249009480128453 -0.0014380234404520712 -0.002124223885044198 0.003415521380467154 0.00249009480128453 0.003415521380467154 -0.004823620779584186" free_energy=-1627.9609060883379 pbc="T T T"
Si       3.13419313      -0.01009596       4.28614291      -0.70282086      -0.04067312      -0.47498949
Si      -0.40016412       4.09168289       0.96356173       0.70282086       0.04067312       0.47498949
Si       0.70752709      -1.93310219       2.58340978      -0.10462927      -0.31912059      -0.06642267
Si       2.02650192       6.01468911       2.66629485       0.10462927       0.31912059       0.06642267
Si       4.85460357       1.38654359       2.53005378       0.28364188      -0.17751877      -0.06510550
Si      -2.12057456       2.69504333       2.71965085      -0.28364188       0.17751877       0.06510550
Si       1.30446859       1.43578666       3.60365342       0.04117332       0.14652213       0.74827324
Si       1.42956042       2.64580027       1.64605122      -0.04117332      -0.14652213      -0.74827324
Si       1.16172477       5.92131307       0.47941692      -0.38217509      -0.01276859       0.08926604
Si       1.57230424      -1.83972614       4.77028771       0.38217509       0.01276859      -0.08926604
10
Lattice="5.674408768074747 0.5238832041757411 -0.13168133049194122 -2.0575775115021355 6.829398636814301 0.38434668773333164 -0.862306602714965 -3.2868280832165326 5.010061182370194" Properties=species:S:1:pos:R:3:forces:R:3 unique_starting_index=450 config_type=initial n_minim_iter=2 energy=-1627.993304016977 stress="0.01189496391412955 -0.0008957355132198725 0.0007437342057788285 -0.0008957355132198725 0.00992472163822201 0.0009185858319297105 0.0007437342057788285 0.0009185858319297105 0.011135426911301342" free_energy=-1627.993304016977 pbc="T T T"
Si       3.14051929      -0.03959586       4.31616073      -0.62599370      -0.08888356      -0.46619887
Si      -0.38599463       4.10604962       0.94656581       0.62599370       0.08888356       0.46619887
Si       0.69014370      -1.97174007       2.63197961      -0.17754073      -0.37994153      -0.11401300
Si       2.06438095       6.03819383       2.63074693       0.17754072       0.37994153       0.11401300
Si       4.91946260       1.38784969       2.51572123       0.36043113      -0.12290943       0.02709240
Si      -2.16493794       2.67860407       2.74700531      -0.36043113       0.12290943      -0.02709240
Si       1.30478661       1.41672628       3.64084598      -0.10410656       0.34058926       0.23840800
Si       1.44973804       2.64972748       1.62188056       0.10410656      -0.34058926      -0.23840800
Si       1.19477200       5.95722504       0.42121284      -0.40887077      -0.11456642       0.22317482
Si       1.55975266      -1.89077129       4.84151370       0.40887077       0.11456642      -0.22317482
10
Lattice="5.6490013972230155 0.561886004744387 -0.20325503381032906 -1.9988089604692918 6.717330443753384 0.3014121414322122 -0.9393932291786109 -3.3258969517861408 5.042657421981041" Properties=species:S:1:pos:R:3:forces:R:3 unique_starting_index=450 config_type=initial n_minim_iter=3 energy=-1628.0420507469357 stress="-0.0076147624118325305 0.004236782528345292 -0.006976446012340539 0.004236782528345292 -0.008459507201317513 -0.005125081736847737 -0.006976446012340539 -0.005125081736847737 0.0006406764059450831" free_energy=-1628.0420507469357 pbc="T T T"
Si       3.05363331      -0.08252649       4.24360062      -0.42286513      -0.25974639      -0.21727434
Si      -0.34283411       4.03584599       0.89721391       0.42286513       0.25974639       0.21727434
Si       0.63744732      -1.99064625       2.63770766       0.01893608      -0.24319648      -0.15934307
Si       2.07335188       5.94396574       2.50310687      -0.01893608       0.24319648       0.15934307
Si       4.88427696       1.36378537       2.42403057       0.42478533       0.00387327      -0.11230670
Si      -2.17347775       2.58953412       2.71678396      -0.42478533      -0.00387327       0.11230670
Si       1.26661485       1.35848953       3.60189975       0.01963301       0.58016017      -0.20132386
Si       1.44418436       2.59482997       1.53891478      -0.01963301      -0.58016017       0.20132386
Si       1.21658149       5.87902709       0.31904819      -0.53256012      -0.17725690       0.32605562
Si       1.49421772      -1.92570760       4.82176634       0.53256012       0.17725690      -0.32605562
10
Lattice="5.674987094812353 0.5360308982664449 -0.14878225775411602 -2.0395371655249215 6.761092693633917 0.30015789076411664 -0.8820698235774929 -3.3205533998929426 4.966020341050489" Properties=species:S:1:pos:R:3:forces:R:3 unique_starting_index=450 config_type=initial n_minim_iter=4 energy=-1628.1168105404163 stress="-0.0006710956723188571 -0.0001430429376070081 0.0015032065050323866 -0.0001430429376070081 -0.004254912055002837 -0.0039119089590237905 0.0015032065050323866 -0.0039119089590237905 -0.006173910263412615" free_energy=-1628.1168105404163 pbc="T T T"
Si       3.09320658      -0.08743817       4.21149594      -0.36250243       0.05514463       0.05632367
Si      -0.33982647       4.06400837       0.90590003       0.36250243      -0.05514463      -0.05632367
Si       0.67246088      -2.00314421       2.60400877      -0.24578278      -0.12110120      -0.02139295
Si       2.08091922       5.97971440       2.51338721       0.24578278       0.12110120       0.02139295
Si       4.93661661       1.35209833       2.44200014       0.28974562       0.34058354      -0.10671514
Si      -2.18323651       2.62447186       2.67539583      -0.28974562      -0.34058354       0.10671514
Si       1.29971167       1.38114102       3.58179481       0.04258856       0.34824986      -0.17284179
Si       1.45366844       2.59542917       1.53560117      -0.04258856      -0.34824986       0.17284179
Si       1.18453527       5.89951288       0.35031697      -0.46662074       0.04939631       0.32097424
Si       1.56884484      -1.92294269       4.76707900       0.46662074      -0.04939631      -0.32097424
10
Lattice="5.6602269129574125 0.535080183843951 -0.15287741663212082 -2.040422683348106 6.830500500730121 0.3875325403582208 -0.8859836104241439 -3.290241184381307 4.947200716004968" Properties=species:S:1:pos:R:3:forces:R:3 unique_starting_index=450 config_type=initial n_minim_iter=5 energy=-1628.1724425385064 stress="0.0005524115324229539 -0.002074622912937808 -0.0010458686277825167 -0.002074622912937808 0.0031328635738782327 0.004834453746800693 -0.0010458686277825167 0.004834453746800693 0.001039510289637551" free_energy=-1628.1724425385064 pbc="T T T"
Si       3.04856528      -0.04185493       4.20880734       0.08430448       0.22582190       0.12545829
Si      -0.31474466       4.11719443       0.97304850      -0.08430448      -0.22582190      -0.12545829
Si       0.65915299      -2.00467935       2.58503776      -0.09151999      -0.25591723      -0.04254279
Si       2.07466763       6.08001885       2.59681808       0.09151999       0.25591723       0.04254279
Si       4.93704272       1.39401374       2.45564040       0.00761351       0.46915122      -0.17342176
Si      -2.20322210       2.68132576       2.72621544      -0.00761351      -0.46915122       0.17342176
Si       1.28910282       1.45597490       3.61882044      -0.05625428       0.38972653       0.12019743
Si       1.44471780       2.61936460       1.56303540       0.05625428      -0.38972653      -0.12019743
Si       1.15072374       5.95587746       0.43552131      -0.12663342       0.10686335       0.07193422
Si       1.58309688      -1.88053796       4.74633453       0.12663342      -0.10686335      -0.07193422
10
Lattice="5.6817204531760295 0.5659746637367219 -0.14547098997455118 -2.0095725020387682 6.8123930603056495 0.31966502846886 -0.895530494043583 -3.339097671424501 4.9780491961278655" Properties=species:S:1:pos:R:3:forces:R:3 unique_starting_index=450 config_type=initial n_minim_iter=6 energy=-1628.213337446944 stress="0.0007161051784069089 0.002074656040011184 0.0030648945224650186 0.002074656040011184 0.0011283537016492855 0.0024871597569237082 0.0030648945224650186 0.0024871597569237082 0.00108886858360511" free_energy=-1628.213337446944 pbc="T T T"
Si       3.04662063      -0.06467148       4.20775926       0.19222045       0.24212593       0.31611622
Si      -0.27000317       4.10394153       0.94448397      -0.19222045      -0.24212593      -0.31611622
Si       0.64945275      -2.03872059       2.60280935      -0.08293137      -0.25169786       0.08096261
Si       2.12716471       6.07799064       2.54943388       0.08293137       0.25169786      -0.08096261
Si       4.98055597       1.40304674       2.44920040       0.08937363       0.47656897      -0.19562242
Si      -2.20393852       2.63622331       2.70304283      -0.08937363      -0.47656897       0.19562242
Si       1.30904259       1.44654105       3.62019850      -0.04190151       0.35325210      -0.15116204
Si       1.46757486       2.59272900       1.53204474       0.04190151      -0.35325210       0.15116204
Si       1.16760010       5.95330528       0.39311063      -0.06877338       0.15304597       0.23051027
Si       1.60901736      -1.91403523       4.75913261       0.06877338      -0.15304597      -0.23051027
10
Lattice="5.719764909659073 0.5541549326804007 -0.18829368988985923 -2.043605622006852 6.8189833234294 0.20256913679747096 -0.922498297214124 -3.434198304208124 5.031842631329366" Properties=species:S:1:pos:R:3:forces:R:3 unique_starting_index=450 config_type=initial n_minim_iter=7 energy=-1628.2668294330135 stress="0.0009735135917467247 -0.001973513657942039 0.0007633557628121146 -0.001973513657942039 0.0004924607249182492 -0.0019382172984170644 0.0007633557628121146 -0.0019382172984170644 -0.0019778907380277187" free_energy=-1628.2668294330135 pbc="T T T"
Si       3.00954141      -0.14856535       4.16819578       0.30650200       0.34622796       0.38975738
Si      -0.25588042       4.08750530       0.87792230      -0.30650200      -0.34622796      -0.38975738
Si       0.63121435      -2.11980973       2.62649550      -0.21795323      -0.21323798       0.00999480
Si       2.12244664       6.05874968       2.41962258       0.21795323       0.21323798      -0.00999480
Si       5.02176951       1.36328349       2.37459997      -0.08780959       0.59205297      -0.31834457
Si      -2.26810852       2.57565646       2.67151811       0.08780960      -0.59205297       0.31834457
Si       1.29119478       1.41225654       3.58802016       0.27902622       0.27900669      -0.25649924
Si       1.46246621       2.52668341       1.45809792      -0.27902622      -0.27900670       0.25649924
Si       1.12203486       5.94854386       0.29524149      -0.01152204       0.20972415       0.15243962
Si       1.63162613      -2.00960391       4.75087659       0.01152204      -0.20972415      -0.15243962
10
Lattice="5.7721631670796985 0.6023230149387951 -0.2143002757178438 -2.0061052277764952 6.793852465092722 0.06436051504518997 -0.9691447310298156 -3.5464559700558853 5.126100939740038" Properties=species:S:1:pos:R:3:forces:R:3 unique_starting_index=450 config_type=initial n_minim_iter=8 energy=-1628.3481285830876 stress="0.0059022199003720445 0.005146221420125153 0.0007786167686580339 0.005146221420125153 -0.003948143935714615 -0.0033342563295522204 0.0007786167686580339 -0.0033342563295522204 0.0011280043674620742" free_energy=-1628.3481285830876 pbc="T T T"
Si       2.98715775      -0.19449850       4.17891040       0.48642529       0.27524097       0.31676803
Si      -0.19024455       4.04421801       0.79725078      -0.48642529      -0.27524096      -0.31676803
Si       0.58419658      -2.22489408       2.67620422      -0.18757488      -0.41066012       0.03209089
Si       2.21271663       6.07461359       2.29995696       0.18757488       0.41066012      -0.03209089
Si       5.10933789       1.41197582       2.30511174      -0.02225200       0.13097089      -0.40109357
Si      -2.31242468       2.43774369       2.67104944       0.02225201      -0.13097089       0.40109357
Si       1.31392280       1.42100376       3.57248234       0.39832792      -0.02539711      -0.04027280
Si       1.48299040       2.42871575       1.40367883      -0.39832792       0.02539711       0.04027280
Si       1.11954985       5.95238774       0.21007100       0.31136556       0.02853471       0.02246527
Si       1.67736336      -2.10266823       4.76609018      -0.31136556      -0.02853471      -0.02246527
10
Lattice="5.583966968051259 0.5238649720738828 -0.16216492227774135 -2.0424041574804646 6.947537250004504 0.04745905631380465 -0.8468150655261445 -3.5916893357588533 5.150639243641675" Properties=species:S:1:pos:R:3:forces:R:3 unique_starting_index=450 config_type=initial n_minim_iter=9 energy=-1628.4712373780687 stress="-0.006816600376230903 0.0027976279514753703 -0.0028903329283345275 0.0027976279514753703 0.004449292186738116 -0.003915088587831968 -0.0028903329283345275 -0.003915088587831968 -0.0018888161591067568" free_energy=-1628.4712373780687 pbc="T T T"
Si       2.96898996      -0.21142330       4.26859588      -0.11797631       0.19059895      -0.21629216
Si      -0.27424222       4.09113619       0.76733750       0.11797631      -0.19059895       0.21629216
Si       0.60295421      -2.30322314       2.70281714      -0.07149496      -0.70848921       0.11995156
Si       2.09179353       6.18293602       2.33311623       0.07149496       0.70848921      -0.11995156
Si       4.94780754       1.41792860       2.33042479       0.21074704      -0.39040266      -0.56866716
Si      -2.25305980       2.46178428       2.70550859      -0.21074704       0.39040266       0.56866716
Si       1.30081248       1.46234929       3.58983075       0.82691928      -0.23058469       0.93039629
Si       1.39393526       2.41736360       1.44610263      -0.82691928       0.23058469      -0.93039629
Si       1.00424780       6.05579413       0.23363480       0.27784866      -0.01570415      -0.12411369
Si       1.69049995      -2.17608124       4.80229858      -0.27784866       0.01570415       0.12411369
10
Lattice="5.525434574966866 0.3934500507450509 -0.10059766653691578 -2.174015586983366 6.942808382884614 0.07787624923610953 -0.7161037959995713 -3.5132788060339406 5.161964653091963" Properties=species:S:1:pos:R:3:forces:R:3 unique_starting_index=450 config_type=initial n_minim_iter=10 energy=-1628.5941002617935 stress="0.0008490402733059381 -0.011069653774006311 -0.0004873641323139101 -0.011069653774006311 -0.014126840688122044 0.003925476318336836 -0.0004873641323139101 0.003925476318336836 0.001830048553321336" free_energy=-1628.5941002617935 pbc="T T T"
Si       2.98180313      -0.21502303       4.34696944      -0.05015192       0.22119127      -0.53885286
Si      -0.34648794       4.03800266       0.79227380       0.05015192      -0.22119127       0.53885286
Si       0.64315412      -2.35320432       2.71984770      -0.00084843       0.07307301       0.17922832
Si       1.99216107       6.17618395       2.41939554       0.00084843      -0.07307302      -0.17922832
Si       4.92408647       1.36789463       2.35823447       0.44630529       0.20209450      -0.47726758
Si      -2.28877128       2.45508500       2.78100877      -0.44630529      -0.20209450       0.47726758
Si       1.32498473       1.49961201       3.66631089       0.80091004      -0.38515665       1.55166108
Si       1.31033046       2.32336761       1.47293234      -0.80091004       0.38515665      -1.55166108
Si       0.84318614       6.00090800       0.31913816       0.80252622       0.08583053      -0.16163138
Si       1.79212905      -2.17792837       4.82010508      -0.80252622      -0.08583053       0.16163138
10
Lattice="5.466067919923123 0.3696742298707608 -0.0793772879946249 -2.191752962319748 7.07582276748825 0.05150526538734557 -0.6695782873907267 -3.578598075930381 5.1544473623616565" Properties=species:S:1:pos:R:3:forces:R:3 unique_starting_index=450 config_type=initial n_minim_iter=11 energy=-1628.754575102893 stress="0.005469183931976945 -0.014428544077581056 0.0021652035659817923 -0.014428544077581056 -0.004848945490671456 0.006894493039232584 0.0021652035659817923 0.006894493039232584 -0.0009259465057909925" free_energy=-1628.754575102893 pbc="T T T"
Si       2.94872418      -0.21045390       4.34432326      -0.07838096       0.10715377      -0.51545216
Si      -0.34398750       4.07735282       0.78225208       0.07838096      -0.10715377       0.51545216
Si       0.63293237      -2.47172977       2.72418036      -0.21509487       0.21084196       0.19848213
Si       1.97180430       6.33862869       2.40239498       0.21509487      -0.21084196      -0.19848213
Si       4.90869825       1.41317433       2.31348718       0.22974570       0.06175985      -0.30352256
Si      -2.30396158       2.45372459       2.81308816      -0.22974571      -0.06175985       0.30352256
Si       1.34973508       1.56523049       3.69242606       0.50584992      -0.57750577       1.62194798
Si       1.25500159       2.30166844       1.43414928      -0.50584992       0.57750578      -1.62194798
Si       0.77417329       6.10901178       0.33627800       0.86694621       0.08287866      -0.13199507
Si       1.83056338      -2.24211286       4.79029734      -0.86694621      -0.08287866       0.13199507
10
Lattice="5.444597276549492 0.4436416769278035 -0.11047562446071357 -2.1045256284167295 7.167669580824925 0.04350253668574949 -0.7297201736428864 -3.6554703052796116 5.142398129351861" Properties=species:S:1:pos:R:3:forces:R:3 unique_starting_index=450 config_type=initial n_minim_iter=12 energy=-1629.0177246079716 stress="0.011262269125534827 -0.003216525700120717 0.0017829669867200886 -0.003216525700120717 0.005345559119026902 0.007381866777012211 0.0017829669867200886 0.007381866777012211 -0.0036819618696364393" free_energy=-1629.0177246079716 pbc="T T T"
Si       2.88756739      -0.16592121       4.28322997       0.18516847      -0.25311715      -0.15871315
Si      -0.27721591       4.12176216       0.79219507      -0.18516847       0.25311716       0.15871315
Si       0.57058370      -2.56312267       2.72188811      -0.35642826       0.29149613       0.11874175
Si       2.03976777       6.51896363       2.35353693       0.35642826      -0.29149613      -0.11874175
Si       4.92303330       1.50575764       2.22904793       0.18082394       0.24986587      -0.04109640
Si      -2.31268183       2.45008331       2.84637711      -0.18082394      -0.24986587       0.04109640
Si       1.38254172       1.61091942       3.72975545       0.04923260      -0.34178824       0.83386343
Si       1.22780976       2.34492153       1.34566959      -0.04923260       0.34178824      -0.83386343
Si       0.83451324       6.22214798       0.32847926       0.54544398       0.01595885      -0.02229792
Si       1.77583823      -2.26630703       4.74694579      -0.54544398      -0.01595885       0.02229792
10
Lattice="5.287728851634902 0.43657273646648637 -0.11247282939582846 -2.0614605902373335 7.210814048235459 -0.08330223294723083 -0.6919003095146713 -3.771902259142373 5.31475599610831" Properties=species:S:1:pos:R:3:forces:R:3 unique_starting_index=450 config_type=initial n_minim_iter=13 energy=-1629.1888102189432 stress="0.0033701266823600133 0.0005284893130068989 0.0063499192924152 0.0005284893130068989 0.0024419750429195658 0.005734238856784983 0.0063499192924152 0.005734238856784983 -0.0032533456909422786" free_energy=-1629.1888102189432 pbc="T T T"
Si       2.81036915      -0.23800360       4.37114204       0.22584996      -0.64651457      -0.12658164
Si      -0.27600120       4.11348812       0.74783889      -0.22584996       0.64651457       0.12658164
Si       0.54152059      -2.67687737       2.83696042      -0.30594405       0.43877714       0.03557862
Si       1.99284736       6.55236190       2.28202052       0.30594405      -0.43877714      -0.03557862
Si       4.81034567       1.49012531       2.20911511       0.31633180       0.24375801       0.36966334
Si      -2.27597771       2.38535922       2.90986583      -0.31633180      -0.24375801      -0.36966334
Si       1.38721712       1.54821592       3.85135214      -0.32586408      -0.33695088       0.46861313
Si       1.14715083       2.32726861       1.26762880       0.32586408       0.33695088      -0.46861313
Si       0.80993965       6.25261139       0.24176538       0.12233749       0.12135631       0.31539063
Si       1.72442830      -2.37712686       4.87721556      -0.12233749      -0.12135631      -0.31539063
10
Lattice="5.248053227080759 0.4467694415866252 -0.16300784505678423 -2.0386452373712016 7.197002441930967 -0.18132609295046453 -0.7268065301692506 -3.857599267211471 5.446073407408943" Properties=species:S:1:pos:R:3:forces:R:3 unique_starting_index=450 config_type=initial n_minim_iter=14 energy=-1629.2737152612644 stress="0.0030540951618727636 0.008873686980493336 0.0011101190878211925 0.008873686980493336 0.003634566518486476 -0.0020886692166324243 0.0011101190878211925 -0.0020886692166324243 -0.0014241805009094074" free_energy=-1629.2737152612644 pbc="T T T"
Si       2.75879964      -0.32286215       4.39413852       0.37128257      -0.74677864      -0.03777260
Si      -0.27619818       4.10903477       0.70760095      -0.37128257       0.74677864       0.03777260
Si       0.51324711      -2.70959186       2.91256465      -0.19418660       0.25231268      -0.08533560
Si       1.96935435       6.49576447       2.18917482       0.19418660      -0.25231268       0.08533560
Si       4.76676690       1.44504416       2.17914574       0.65953598       0.60390781       0.30084707
Si      -2.28416544       2.34112845       2.92259373      -0.65953598      -0.60390781      -0.30084707
Si       1.35770648       1.45436581       3.89938454      -0.09662017       0.01194541       0.00080171
Si       1.12489498       2.33180680       1.20235493       0.09662017      -0.01194541      -0.00080171
Si       0.82356805       6.23717859       0.13688353      -0.17819523       0.20160317       0.39167232
Si       1.65903341      -2.45100598       4.96485594       0.17819523      -0.20160317      -0.39167232
10
Lattice="5.164568087038957 0.3935046930050708 -0.1902486824871525 -2.0772031437354683 7.205026878628707 -0.2840050913044635 -0.6991088377536026 -3.932208981483571 5.5987657924015695" Properties=species:S:1:pos:R:3:forces:R:3 unique_starting_index=450 config_type=initial n_minim_iter=15 energy=-1629.3476913323032 stress="0.0020943963226491996 0.0028467436989907608 0.0005539932870943994 0.0028467436989907608 0.003086195588227092 -0.0060045214466984366 0.0005539932870943994 -0.0060045214466984366 0.005531045011198905" free_energy=-1629.3476913323032 pbc="T T T"
Si       2.70031686      -0.43432786       4.45511466       0.39454230      -0.60397193      -0.06731512
Si      -0.31206076       4.10065045       0.66939736      -0.39454230       0.60397193       0.06731512
Si       0.50524448      -2.77176489       3.00109109      -0.11260232       0.22665080      -0.20984671
Si       1.88301163       6.43808748       2.12342093       0.11260232      -0.22665080       0.20984671
Si       4.69690703       1.38097227       2.16146000       0.54968701       0.48224622       0.57999671
Si      -2.30865093       2.28535032       2.96305202      -0.54968701      -0.48224622      -0.57999671
Si       1.32082088       1.37609325       3.97763748      -0.12106279      -0.07575358       0.05216652
Si       1.06743523       2.29022934       1.14687453       0.12106279       0.07575358      -0.05216652
Si       0.74568665       6.21567115       0.06134227      -0.19868808       0.21825118       0.38546585
Si       1.64256945      -2.54934856       5.06316975       0.19868808      -0.21825118      -0.38546585
10
Lattice="5.102249517197041 0.32552606102551274 -0.19622424218845774 -2.132213369878443 7.15576146088897 -0.2237359650128915 -0.6638856112168048 -3.8479042360380697 5.592049791848437" Properties=species:S:1:pos:R:3:forces:R:3 unique_starting_index=450 config_type=initial n_minim_iter=16 energy=-1629.4438901267981 stress="-0.0069121020092789455 -0.004820292064604785 -0.0019024284531803496 -0.004820292064604785 -0.006827026892776015 -0.0013413883839870195 -0.0019024284531803496 -0.0013413883839870195 0.00040127671936035367" free_energy=-1629.4438901267981 pbc="T T T"
Si       2.67867009      -0.47074072       4.46092603       0.42947986      -0.24861187      -0.05470599
Si      -0.37251955       4.10412401       0.71116356      -0.42947986       0.24861187       0.05470599
Si       0.51967879      -2.69935354       2.98259028       0.10458300      -0.10968757      -0.13361791
Si       1.78647175       6.33273682       2.18949930      -0.10458300       0.10968757       0.13361791
Si       4.63400569       1.32540291       2.19819568       0.37940542       0.55042006       0.50845083
Si      -2.32785515       2.30798037       2.97389390      -0.37940542      -0.55042006      -0.50845083
Si       1.27633568       1.34341913       4.02620782      -0.04183282      -0.02844201       0.15480231
Si       1.02981486       2.28996416       1.14588176       0.04183282       0.02844201      -0.15480231
Si       0.67906632       6.14752427       0.11309125       0.02150456       0.40368922       0.20252963
Si       1.62708421      -2.51414098       5.05899833      -0.02150456      -0.40368922      -0.20252963
10
Lattice="5.114263296841816 0.33086220252422194 -0.20720391299182017 -2.1292703836620044 7.141213247875688 -0.19689909758054702 -0.6804013975440325 -3.8263252822558855 5.58142151358223" Properties=species:S:1:pos:R:3:forces:R:3 unique_starting_index=450 config_type=initial n_minim_iter=17 energy=-1629.54971730451 stress="-0.006848882377495245 -0.004293665772483237 -0.005068609147793497 -0.004293665772483237 0.0012679549094900616 -7.119692339475745e-05 -0.005068609147793497 -7.119692339475745e-05 -0.0033101334301611873" free_energy=-1629.54971730451 pbc="T T T"
Si       2.69875776      -0.50003557       4.44768896       0.30374591       0.28319876       0.03493628
Si      -0.39416625       4.14578574       0.72962954      -0.30374591      -0.28319876      -0.03493628
Si       0.49869524      -2.68244820       2.96077573       0.08591103      -0.75433794      -0.02914086
Si       1.80589628       6.32819837       2.21654278      -0.08591103       0.75433794       0.02914086
Si       4.68156759       1.38315354       2.21513995      -0.08417223      -0.14205133       0.49009165
Si      -2.37697608       2.26259663       2.96217855       0.08417223       0.14205133      -0.49009165
Si       1.26968426       1.35014737       4.06448684       0.07689913      -0.18851126       0.29967287
Si       1.03490726       2.29560280       1.11283167      -0.07689913       0.18851126      -0.29967286
Si       0.67892962       6.16066416       0.15993557       0.23811094       0.34253776      -0.04043948
Si       1.62566190      -2.51491400       5.01738293      -0.23811094      -0.34253776       0.04043948
10
Lattice="5.187379556254326 0.37243480255662714 -0.13590322991903048 -2.0904947415857045 7.050421417892072 -0.10145436609587372 -0.6628740102893996 -3.711891769596476 5.550742830164937" Properties=species:S:1:pos:R:3:forces:R:3 unique_starting_index=450 config_type=initial n_minim_iter=18 energy=-1629.6589252568265 stress="-0.00037770722052384763 0.00456129902755737 0.004156964686271943 0.00456129902755737 -7.744658989945862e-05 0.001240995011945765 0.004156964686271943 0.001240995011945765 0.002511499337327256" free_energy=-1629.6589252568265 pbc="T T T"
Si       2.83882100      -0.43563259       4.51490422       0.07250201       0.18786583       0.27270173
Si      -0.40481019       4.14659704       0.79848102      -0.07250201      -0.18786583      -0.27270173
Si       0.50824911      -2.62481111       2.94492672      -0.03247701      -0.70418350       0.17154478
Si       1.92576170       6.33577556       2.36845851       0.03247701       0.70418350      -0.17154478
Si       4.81812782       1.47854027       2.36307348       0.07663844      -0.26349085       0.52904683
Si      -2.38411702       2.23242418       2.95031176      -0.07663844       0.26349085      -0.52904683
Si       1.35849700       1.37064191       4.18966744      -0.07182154       0.03142500      -0.22501242
Si       1.07551381       2.34032255       1.12371779       0.07182154      -0.03142500       0.22501242
Si       0.77907305       6.14660780       0.29229832       0.29987742      -0.05447173       0.19125831
Si       1.65493775      -2.43564335       5.02108692      -0.29987742       0.05447173      -0.19125831
10
Lattice="5.233779377384666 0.3720222890594516 -0.14417550399316914 -2.1085091042694932 7.051298143171049 -0.0857538673164786 -0.6780206763067216 -3.701280112801212 5.516784367200256" Properties=species:S:1:pos:R:3:forces:R:3 unique_starting_index=450 config_type=initial n_minim_iter=19 energy=-1629.6991898980912 stress="0.003943592548836964 0.0019153210128184841 0.00026104168472722506 0.0019153210128184841 0.0014172282213245442 0.0007971617314092105 0.00026104168472722506 0.0007971617314092105 -0.00045187683386181015" free_energy=-1629.6991898980912 pbc="T T T"
Si       2.86817287      -0.42189358       4.49439980      -0.10959663       0.06792741       0.12821256
Si      -0.42092328       4.14393390       0.79245519       0.10959663      -0.06792741      -0.12821256
Si       0.50787185      -2.63794016       2.92882737      -0.24574835      -0.35556073      -0.01961090