10
Lattice="4.686475585690961 -0.18958301680707837 4.6560030335190564e-07 0.3888005192126843 9.59553257976916 -3.1515844323237334e-08 0.19439949677032284 4.797766346087808 7.70117099457023" Properties=species:S:1:pos:R:3:forces:R:3 unique_starting_index=99 config_type=initial n_minim_iter=12 energy=-1625.684449360489 stress="2.4719230351232973e-06 -2.480215716700221e-05 6.9755418318409766e-12 -2.480215716700221e-05 2.179610313153262e-05 -3.575399241254882e-12 6.9755418318409766e-12 -3.575399241254882e-12 -6.646799745615057e-05" free_energy=-1625.684449360489 pbc="T T T"
Si       3.58421475       6.47044802       5.35727234       0.00487080      -0.00037358       0.00607122
Si       3.38981479       1.67268171       2.34389931       0.00487080      -0.00037358      -0.00607122
Si       1.11373105       3.40257963       3.78581324      -0.00239684      -0.00431369      -0.00452734
Si       1.30813130       8.20034592       3.91535794      -0.00239684      -0.00431369       0.00452734
Si       3.66434393       8.42863280       3.92984126      -0.00234329       0.00702125       0.00392079
Si       3.46994369       3.63086650       3.77133037      -0.00234329       0.00702125      -0.00392079
Si       1.06259507       2.17778392       1.18186977       0.00180004       0.00162891      -0.00105201
Si       1.25699480       6.97555025       6.51930141       0.00180004       0.00162891       0.00105201
Si       1.38225608      10.02529374       2.57382619      -0.00193070      -0.00396289      -0.00013547
Si       1.18785557       5.22752747       5.12734497      -0.00193070      -0.00396289       0.00013547
