20
Lattice="8.312851496360802 0.1280663542262946 -1.0738166425624406e-17 -3.367388222159925 8.476826603677967 -7.107688462077409e-16 -9.187420993181816e-32 7.14266347799626e-16 8.51853877873837" Properties=species:S:1:pos:R:3:forces:R:3 unique_starting_index=386 config_type=initial n_minim_iter=1 energy=-3249.753504453555 stress="0.0002745142729475228 -3.853826121446139e-05 2.8896060852429786e-13 -3.853826121446139e-05 -4.995510949059586e-05 -4.8160330161833114e-12 2.8896060852429786e-13 -4.8160330161833114e-12 0.00022555887309398448" free_energy=-3249.753504453555 pbc="T T T"
Si       6.17347563       2.12952782       4.51079529      -0.00318199       0.01062478      -0.02746182
Si      -1.22801236       6.47536514       4.51079529       0.00318199      -0.01062478      -0.02746182
Si      -0.15021379       7.80589390       1.83267332      -0.01464714      -0.00049881      -0.01286396
Si       5.09567705       0.79899906       1.83267332       0.01464714       0.00049881      -0.01286396
Si       4.58240163       5.69152517       0.87479651       0.02776158      -0.00893146      -0.01147580
Si       0.36306164       2.91336779       0.87479651      -0.02776158       0.00893145      -0.01147579
Si       6.22330625       5.47675066       6.49140501       0.00819554       0.01956054      -0.00212986
Si      -1.27784299       3.12814230       6.49140501      -0.00819554      -0.01956054      -0.00212986
Si       6.59711884       3.09274263       2.33323269      -0.02136206      -0.04823815       0.00098019
Si      -1.65165557       5.51215033       2.33323269       0.02136206       0.04823815       0.00098019
Si       4.36253235       3.05584204       1.20973770       0.00358235       0.00016408       0.00089446
Si       0.58293092       5.54905092       1.20973770      -0.00358235      -0.00016408       0.00089446
Si       1.75492992       2.75232009       6.26881516       0.02480719      -0.03600098       0.03590727
Si       3.19053335       5.85257287       6.26881516      -0.02480719       0.03600098       0.03590727
Si       1.02816546       5.78834713       3.54039769      -0.04500497       0.03057872       0.00827409
Si       3.91729781       2.81654584       3.54039769       0.04500497      -0.03057872       0.00827409
Si       2.12524331       8.12390988       4.03896674      -0.02410869       0.02159059       0.02031822
Si       2.82021995       0.48098308       4.03896674       0.02410869      -0.02159059       0.02031822
Si       2.40534973       1.67843418       1.89027946      -0.00831062       0.01175435      -0.01244280
Si       2.54011354       6.92645878       1.89027946       0.00831062      -0.01175435      -0.01244280
20
Lattice="8.310350824945706 0.1284252150644592 -1.0768256353827107e-17 -3.366014275280641 8.47714921924329 -7.10795897025677e-16 -9.175852478789937e-32 7.14089412258741e-16 8.516428596351915" Properties=species:S:1:pos:R:3:forces:R:3 unique_starting_index=386 config_type=initial n_minim_iter=2 energy=-3249.7535727651743 stress="-0.00013557723074894803 1.2085885506383132e-06 -1.8739290284019137e-12 1.2085885506383132e-06 -0.0002530664629184765 -4.51565581862603e-12 -1.8739290284019137e-12 -4.51565581862603e-12 -0.00021186495954630426" free_energy=-3249.7535727651743 pbc="T T T"
Si       6.17169885       2.12992529       4.50962796      -0.00190993       0.00890267      -0.02560395
Si      -1.22736230       6.47564915       4.50962796       0.00190993      -0.00890267      -0.02560395
Si      -0.14986475       7.80631496       1.83219595      -0.01762660      -0.00257670      -0.01804597
Si       5.09420130       0.79925948       1.83219595       0.01762660       0.00257670      -0.01804597
Si       4.58131153       5.69201518       0.87455894       0.02742217      -0.01053460      -0.01567993
Si       0.36302502       2.91355926       0.87455894      -0.02742217       0.01053460      -0.01567992
Si       6.22167680       5.47735015       6.48979311       0.00315858       0.01908793       0.00171011
Si      -1.27734026       3.12822428       6.48979311      -0.00315858      -0.01908793       0.00171011
Si       6.59522205       3.09310381       2.33265649      -0.01876194      -0.04401275       0.00231038
Si      -1.65088551       5.51247062       2.33265649       0.01876194       0.04401275       0.00231038
Si       4.36135302       3.05619466       1.20943965       0.00582634       0.00153689      -0.00127529
Si       0.58298353       5.54937978       1.20943965      -0.00582634      -0.00153689      -0.00127529
Si       1.75456245       2.75247991       6.26732756       0.02627914      -0.03557785       0.03456217
Si       3.18977410       5.85309452       6.26732756      -0.02627914       0.03557785       0.03456217
Si       1.02801866       5.78876387       3.53953572      -0.04266201       0.02984715       0.01334536
Si       3.91631788       2.81681057       3.53953572       0.04266201      -0.02984715       0.01334536
Si       2.12490262       8.12448486       4.03800317      -0.02321727       0.02149081       0.02304786
Si       2.81943392       0.48108957       4.03800317       0.02321727      -0.02149081       0.02304786
Si       2.40468051       1.67864946       1.88978858      -0.00906382       0.00681098      -0.01437075
Si       2.53965603       6.92692498       1.88978858       0.00906382      -0.00681098      -0.01437075
20
Lattice="8.308028967192925 0.12915657325370938 -1.0829579610824286e-17 -3.3644090068412016 8.482410826485218 -7.112370746837072e-16 -9.191500659588083e-32 7.140798208034944e-16 8.516314205993591" Properties=species:S:1:pos:R:3:forces:R:3 unique_starting_index=386 config_type=initial n_minim_iter=3 energy=-3249.75370276059 stress="-9.266810825585674e-05 4.368044775957323e-05 -3.086931113447696e-12 4.368044775957323e-05 0.0003543177034204643 3.395593640949546e-12 -3.086931113447696e-12 3.395593640949546e-12 -7.109818836405146e-05" free_energy=-3249.75370276059 pbc="T T T"
Si       6.17011527       2.13186289       4.50938075       0.00268663       0.00404991      -0.02687472
Si      -1.22649532       6.47970451       4.50938075      -0.00268663      -0.00404991      -0.02687472
Si      -0.14932794       7.81137911       1.83206225      -0.01069260       0.00325145      -0.01331500
Si       5.09294789       0.80018830       1.83206225       0.01069260      -0.00325145      -0.01331500
Si       4.58066380       5.69601265       0.87445138       0.02022085      -0.01585503      -0.01104858
Si       0.36295615       2.91555475       0.87445138      -0.02022085       0.01585504      -0.01104858
Si       6.22039762       5.48154038       6.48970469       0.00877291       0.01123910       0.00046706
Si      -1.27677767       3.13002703       6.48970469      -0.00877291      -0.01123910       0.00046707
Si       6.59347150       3.09530859       2.33263682      -0.02124293      -0.03776493       0.00076089
Si      -1.64985154       5.51625881       2.33263682       0.02124294       0.03776493       0.00076089
Si       4.36040069       3.05853214       1.20942194       0.00484794       0.00041783       0.00002494
Si       0.58321927       5.55303526       1.20942194      -0.00484794      -0.00041784       0.00002494
Si       1.75446444       2.75415811       6.26749130       0.02888772      -0.02927387       0.03089302
Si       3.18915551       5.85740929       6.26749130      -0.02888772       0.02927388       0.03089301
Si       1.02787318       5.79282891       3.53956456      -0.03421288       0.02800578       0.01071521
Si       3.91574677       2.81873850       3.53956456       0.03421288      -0.02800578       0.01071521
Si       2.12477324       8.13009636       4.03810171      -0.02285869       0.02327290       0.01867841
Si       2.81884671       0.48147104       4.03810171       0.02285869      -0.02327290       0.01867841
Si       2.40407545       1.67999582       1.88966872      -0.00067616      -0.00203422      -0.01030123
Si       2.53954450       6.93157158       1.88966872       0.00067616       0.00203422      -0.01030123
20
Lattice="8.303074086091494 0.12800929390795177 -1.073338200587289e-17 -3.363465357088382 8.475502688263024 -7.106578379406201e-16 -9.246532603116179e-32 7.148314168261448e-16 8.525277948839125" Properties=species:S:1:pos:R:3:forces:R:3 unique_starting_index=386 config_type=initial n_minim_iter=4 energy=-3249.7546721818644 stress="-0.0004933951489259344 -6.069686096521586e-05 -7.764430718858046e-13 -6.069686096521586e-05 -6.362323616702358e-05 3.353943352923733e-12 -7.764430718858046e-13 3.353943352923733e-12 0.0004973907029655882" free_energy=-3249.7546721818644 pbc="T T T"
Si       6.16612063       2.12987309       4.51201190       0.02603907      -0.00343851       0.00723688
Si      -1.22651191       6.47363889       4.51201190      -0.02603907       0.00343850       0.00723688
Si      -0.15134644       7.80465511       1.83281834      -0.02388472       0.00434262      -0.00953282
Si       5.09095516       0.79885687       1.83281834       0.02388472      -0.00434262      -0.00953282
Si       4.57922051       5.68958396       0.87435947       0.00794364      -0.00103097      -0.00912249
Si       0.36038821       2.91392802       0.87435947      -0.00794364       0.00103097      -0.00912249
Si       6.21654755       5.47734649       6.49653858       0.01183225      -0.00350421       0.00619943
Si      -1.27693883       3.12616549       6.49653858      -0.01183225       0.00350421       0.00619943
Si       6.58754623       3.08837793       2.33519956      -0.00497777      -0.00761613      -0.01524353
Si      -1.64793751       5.51513406       2.33519956       0.00497777       0.00761613      -0.01524353
Si       4.35780533       3.05540300       1.21068456      -0.00484843       0.00580945      -0.00809210
Si       0.58180339       5.54810899       1.21068456       0.00484843      -0.00580945      -0.00809210
Si       1.75519245       2.74889472       6.27676893       0.02281293      -0.02170180       0.01115924
Si       3.18441627       5.85461726       6.27676893      -0.02281293       0.02170180       0.01115924
Si       1.02332579       5.79003480       3.54414821       0.00232222       0.00809553       0.00356506
Si       3.91628293       2.81347719       3.54414821      -0.00232222      -0.00809553       0.00356506
Si       2.12064464       8.12456408       4.04399444      -0.02180582       0.01059977      -0.00559291
Si       2.81896408       0.47894790       4.04399444       0.02180582      -0.01059977      -0.00559291
Si       2.40196255       1.67867605       1.89067543      -0.00923044       0.00803633       0.01942327
Si       2.53764617       6.92483593       1.89067543       0.00923044      -0.00803634       0.01942327
20
Lattice="8.309860376361797 0.12865941245076265 -1.0787893443722938e-17 -3.3655276679570303 8.473960926729012 -7.105285636121609e-16 -9.262519326287362e-32 7.143704179041108e-16 8.519779947699355" Properties=species:S:1:pos:R:3:forces:R:3 unique_starting_index=386 config_type=initial n_minim_iter=5 energy=-3249.754994807833 stress="2.2716748811357126e-05 -7.570583551324231e-05 -2.006774935477562e-12 -7.570583551324231e-05 1.7293495227544677e-05 -1.8587476561749923e-13 -2.006774935477562e-12 -1.8587476561749923e-13 -2.961274549049085e-05" free_energy=-3249.754994807833 pbc="T T T"
Si       6.17139123       2.13024543       4.50842454       0.01862143      -0.01106597       0.01997410
Si      -1.22705853       6.47237491       4.50842454      -0.01862143       0.01106597       0.01997410
Si      -0.15129877       7.80348901       1.83121497      -0.01333616       0.01479132      -0.01386544
Si       5.09563147       0.79913133       1.83121497       0.01333616      -0.01479132      -0.01386544
Si       4.58410345       5.68878549       0.87342872       0.00020616       0.00253339       0.00506909
Si       0.36022925       2.91383485       0.87342872      -0.00020616      -0.00253339       0.00506909
Si       6.22227756       5.47745196       6.49237104       0.00436967      -0.01407638       0.00774601
Si      -1.27794486       3.12516838       6.49237104      -0.00436967       0.01407638       0.00774601
Si       6.59261577       3.08728001       2.33367810      -0.00021358       0.00206197      -0.02880506
Si      -1.64828307       5.51534033       2.33367810       0.00021358      -0.00206197      -0.02880506
Si       4.36171708       3.05533459       1.20987303      -0.00293033       0.00296120      -0.00135544
Si       0.58261562       5.54728576       1.20987303       0.00293033      -0.00296119      -0.00135544
Si       1.75762530       2.74766623       6.27364819       0.00329192      -0.01134774      -0.00422347
Si       3.18670740       5.85495411       6.27364819      -0.00329192       0.01134774      -0.00422347
Si       1.02356659       5.79005270       3.54215962       0.00608135       0.00544639       0.00264709
Si       3.92076611       2.81256764       3.54215962      -0.00608135      -0.00544639       0.00264709
Si       2.12234063       8.12413553       4.04191291      -0.02457175       0.00429956      -0.01007336
Si       2.82199207       0.47848481       4.04191291       0.02457175      -0.00429957      -0.01007336
Si       2.40386918       1.67878794       1.88919533      -0.00088540       0.01178498       0.02288647
Si       2.54046352       6.92383240       1.88919533       0.00088540      -0.01178498       0.02288647
20
Lattice="8.310333961218046 0.13173031903781865 -1.1045384228157112e-17 -3.362556124213494 8.471890099702701 -7.103549279575697e-16 -9.307056456251317e-32 7.14417401712043e-16 8.520340289637733" Properties=species:S:1:pos:R:3:forces:R:3 unique_starting_index=386 config_type=initial n_minim_iter=6 energy=-3249.7550470510823 stress="2.6148675625611722e-05 0.0001395562013379944 1.0791590044827372e-12 0.0001395562013379944 -2.4508822520048663e-05 -1.5371302665820756e-12 1.0791590044827372e-12 -1.5371302665820756e-12 2.298579266394002e-05" free_energy=-3249.7550470510823 pbc="T T T"
Si       6.17265584       2.13227313       4.50876783       0.01972840      -0.01140750       0.01811758
Si      -1.22487801       6.47134729       4.50876783      -0.01972840       0.01140750       0.01811758
Si      -0.14859167       7.80279499       1.83115621      -0.00854974       0.01727710      -0.01117879
Si       5.09636950       0.80082543       1.83115621       0.00854974      -0.01727710      -0.01117879
Si       4.58656338       5.68990275       0.87346563       0.00030370       0.00074583       0.00412077
Si       0.36121445       2.91371767       0.87346563      -0.00030370      -0.00074583       0.00412077
Si       6.22469797       5.47918804       6.49286325       0.00083231      -0.00482346       0.00354091
Si      -1.27692014       3.12443238       6.49286325      -0.00083231       0.00482346       0.00354091
Si       6.59400649       3.08925220       2.33360166      -0.00181080       0.00157025      -0.02574322
Si      -1.64622866       5.51436822       2.33360166       0.00181080      -0.00157025      -0.02574322
Si       4.36306930       3.05668639       1.20993666      -0.00181708      -0.00081746       0.00006333
Si       0.58470853       5.54693403       1.20993666       0.00181708       0.00081746       0.00006333
Si       1.75888862       2.74780539       6.27417937       0.00542047      -0.00847076      -0.00505076
Si       3.18888921       5.85581504       6.27417937      -0.00542047       0.00847076      -0.00505076
Si       1.02564159       5.79004547       3.54246278       0.00606341       0.00576781       0.00244872
Si       3.92213624       2.81357495       3.54246278      -0.00606341      -0.00576782       0.00244872
Si       2.12515687       8.12427017       4.04218585      -0.02575662       0.00607011      -0.01032620
Si       2.82262096       0.47935025       4.04218585       0.02575662      -0.00607011      -0.01032620
Si       2.40457738       1.67963726       1.88945732       0.00386440       0.01563944       0.02400767
Si       2.54320045       6.92398317       1.88945732      -0.00386440      -0.01563944       0.02400767
20
Lattice="8.30952241353806 0.129954928334316 -1.0896520453905904e-17 -3.3640189707510975 8.47066841255684 -7.102524913732573e-16 -9.307056456251317e-32 7.14539749988101e-16 8.521799449147805" Properties=species:S:1:pos:R:3:forces:R:3 unique_starting_index=386 config_type=initial n_minim_iter=7 energy=-3249.7556362124346 stress="-3.7666773734761694e-05 8.750733146297839e-07 1.267995072085925e-12 8.750733146297839e-07 -8.622275951719872e-06 -3.5333383445704222e-12 1.267995072085925e-12 -3.5333383445704222e-12 -4.234381696950192e-05" free_energy=-3249.7556362124346 pbc="T T T"
Si       6.17442655       2.12927773       4.51099888       0.00927664      -0.00234674      -0.00835493
Si      -1.22892312       6.47134562       4.51099888      -0.00927664       0.00234673      -0.00835493
Si      -0.15269753       7.80328468       1.82886406       0.00605932       0.01136667       0.00017448
Si       5.09820096       0.79733866       1.82886406      -0.00605932      -0.01136667       0.00017448
Si       4.58624701       5.68732038       0.87359054      -0.02059408       0.00172282       0.00094426
Si       0.35925642       2.91330296       0.87359054       0.02059407      -0.00172281       0.00094426
Si       6.22378150       5.47592479       6.49489532      -0.01425528       0.01478842      -0.00108487
Si      -1.27827807       3.12469855       6.49489532       0.01425529      -0.01478842      -0.00108487
Si       6.59159483       3.08526895       2.33007832       0.00370586      -0.00119775       0.01506198
Si      -1.64609140       5.51535439       2.33007832      -0.00370586       0.00119775       0.01506198
Si       4.36186905       3.05536812       1.20996618      -0.00436931      -0.00377925      -0.00483667
Si       0.58363439       5.54525523       1.20996618       0.00436931       0.00377925      -0.00483667
Si       1.76016789       2.74358620       6.27633763      -0.00338262       0.00151041      -0.00022467
Si       3.18533554       5.85703714       6.27633763       0.00338262      -0.00151041      -0.00022467
Si       1.02321498       5.79078698       3.54399350       0.00108927      -0.01108384       0.00852095
Si       3.92228846       2.80983636       3.54399350      -0.00108927       0.01108384       0.00852095
Si       2.11845440       8.12381876       4.04243104      -0.01456925       0.01249976      -0.00535844
Si       2.82704904       0.47680459       4.04243104       0.01456925      -0.01249976      -0.00535844
Si       2.40376897       1.68091327       1.89257222      -0.00975418       0.01497040      -0.00484208
Si       2.54173447       6.91971008       1.89257222       0.00975418      -0.01497040      -0.00484208
20
Lattice="8.310908479431994 0.13066353456516006 -1.0955935994256128e-17 -3.363823825319686 8.468459363893164 -7.100672660474007e-16 -9.321500930834222e-32 7.146996023994926e-16 8.52370589338882" Properties=species:S:1:pos:R:3:forces:R:3 unique_starting_index=386 config_type=initial n_minim_iter=8 energy=-3249.755865322215 stress="0.00013560636633489225 -2.100130327072387e-05 -1.9756082306083824e-12 -2.100130327072387e-05 4.479450865557843e-05 2.4139649774024516e-12 -1.9756082306083824e-12 2.4139649774024516e-12 0.0001546454190078865" free_energy=-3249.755865322215 pbc="T T T"
Si       6.17717628       2.12880228       4.51188543       0.00387091      -0.00176089      -0.00699063
Si      -1.23009164       6.47032062       4.51188543      -0.00387091       0.00176089      -0.00699063
Si      -0.15235223       7.80303550       1.82850934      -0.00044264       0.00377436       0.00026549
Si       5.09943688       0.79608740       1.82850934       0.00044264      -0.00377436       0.00026549
Si       4.58643058       5.68649076       0.87388013      -0.00380802      -0.00273440      -0.00149125
Si       0.36065407       2.91263214       0.87388013       0.00380802       0.00273440      -0.00149125
Si       6.22455939       5.47606554       6.49653846      -0.00381354       0.00282468      -0.00178869
Si      -1.27747475       3.12305736       6.49653846       0.00381353      -0.00282468      -0.00178869
Si       6.59287138       3.08449104       2.33043523       0.00285926       0.00250292       0.01052647
Si      -1.64578673       5.51463186       2.33043523      -0.00285926      -0.00250292       0.01052647
Si       4.36248335       3.05488149       1.20984493      -0.00024747      -0.00911317       0.00158446
Si       0.58460130       5.54424141       1.20984493       0.00024747       0.00911317       0.00158446
Si       1.76106260       2.74224236       6.27804464      -0.00102850       0.00154406      -0.00193659
Si       3.18602205       5.85688054       6.27804464       0.00102850      -0.00154406      -0.00193659
Si       1.02364866       5.78947030       3.54564744      -0.00389542      -0.00923166       0.00027875
Si       3.92343598       2.80965260       3.54564744       0.00389542       0.00923166       0.00027875
Si       2.11699124       8.12362587       4.04277416      -0.00888624       0.00969412      -0.00122644
Si       2.83009341       0.47549703       4.04277416       0.00888624      -0.00969412      -0.00122644
Si       2.40354937       1.68252813       1.89355131       0.00441903       0.00576114       0.00077843
Si       2.54353527       6.91659477       1.89355131      -0.00441903      -0.00576114       0.00077843
20
Lattice="8.310320844468253 0.13149462518022612 -1.1025621661450062e-17 -3.36272762445182 8.467766372095447 -7.100091597532033e-16 -9.311871281112285e-32 7.146799957913448e-16 8.523472059536308" Properties=species:S:1:pos:R:3:forces:R:3 unique_starting_index=386 config_type=initial n_minim_iter=9 energy=-3249.755929449405 stress="3.275973623497821e-05 -6.558817983478985e-06 -3.803153421232132e-12 -6.558817983478985e-06 1.1253119050763978e-05 4.659446399637436e-12 -3.803153421232132e-12 4.659446399637436e-12 3.555833669153257e-05" free_energy=-3249.755929449405 pbc="T T T"
Si       6.17781694       2.12901294       4.51156358       0.00200569      -0.00238422      -0.00394072
Si      -1.23022373       6.47024806       4.51156358      -0.00200569       0.00238422      -0.00394072
Si      -0.15178000       7.80353461       1.82801104      -0.00422891      -0.00050133      -0.00184791
Si       5.09937322       0.79572639       1.82801104       0.00422891       0.00050133      -0.00184791
Si       4.58610378       5.68665308       0.87383614       0.00437419      -0.00595511      -0.00360250
Si       0.36148943       2.91260792       0.87383614      -0.00437419       0.00595511      -0.00360250
Si       6.22420880       5.47692548       6.49645205       0.00002515      -0.00404055      -0.00060227
Si      -1.27661559       3.12233552       6.49645205      -0.00002515       0.00404055      -0.00060227
Si       6.59269957       3.08470943       2.33046102       0.00346748       0.00665895       0.00681550
Si      -1.64510636       5.51455157       2.33046102      -0.00346748      -0.00665895       0.00681550
Si       4.36230348       3.05493122       1.20963789       0.00325628      -0.00998066       0.00372922
Si       0.58528973       5.54432978       1.20963789      -0.00325628       0.00998066       0.00372922
Si       1.76142769       2.74183619       6.27801861       0.00167285       0.00156796      -0.00345707
Si       3.18616552       5.85742481       6.27801861      -0.00167285      -0.00156796      -0.00345707
Si       1.02391857       5.78915110       3.54603155      -0.00484614      -0.00751274      -0.00212174
Si       3.92367464       2.81010990       3.54603155       0.00484614       0.00751274      -0.00212174
Si       2.11615896       8.12444881       4.04239588      -0.00532768       0.00731159       0.00248493
Si       2.83143425       0.47481219       4.04239588       0.00532768      -0.00731159       0.00248493
Si       2.40325079       1.68368545       1.89379770       0.01081337      -0.00141872       0.00254257
Si       2.54434242       6.91557555       1.89379770      -0.01081337       0.00141872       0.00254257
20
Lattice="8.309357770371422 0.13282654889343104 -1.1137301412037466e-17 -3.360968929456466 8.467092974407393 -7.099526963949026e-16 -9.292611981668413e-32 7.146419256321194e-16 8.523018024247266" Properties=species:S:1:pos:R:3:forces:R:3 unique_starting_index=386 config_type=initial n_minim_iter=10 energy=-3249.7559756480505 stress="-0.00010287349247409916 1.4607704326906742e-05 -1.6288384720871001e-12 1.4607704326906742e-05 -3.706975188902203e-05 1.9436929425591896e-12 -1.6288384720871001e-12 1.9436929425591896e-12 -0.00011547582734378653" free_energy=-3249.7559756480505 pbc="T T T"
Si       6.17851987       2.12949374       4.51092481       0.00111465      -0.00164239       0.00188059
Si      -1.23013103       6.47042578       4.51092481      -0.00111465       0.00164239       0.00188059
Si      -0.15098258       7.80431589       1.82728543      -0.00461194      -0.00305891      -0.00242509
Si       5.09937142       0.79560364       1.82728543       0.00461194       0.00305891      -0.00242509
Si       4.58605953       5.68694222       0.87358378       0.00845967      -0.00722227      -0.00315830
Si       0.36232930       2.91297730       0.87358378      -0.00845967       0.00722227      -0.00315830
Si       6.22384107       5.47817855       6.49619754       0.00291898      -0.00770585      -0.00024946
Si      -1.27545224       3.12174097       6.49619754      -0.00291898       0.00770585      -0.00024946
Si       6.59255410       3.08564372       2.33072312       0.00424754       0.01003763       0.00099770
Si      -1.64416527       5.51427580       2.33072312      -0.00424754      -0.01003763       0.00099770
Si       4.36224530       3.05484742       1.20953968       0.00659450      -0.00639902       0.00311833
Si       0.58614353       5.54507211       1.20953968      -0.00659450       0.00639902       0.00311833
Si       1.76201925       2.74158027       6.27771516       0.00516314       0.00090860      -0.00402029
Si       3.18636959       5.85833926       6.27771516      -0.00516314      -0.00090860      -0.00402029
Si       1.02421301       5.78871566       3.54631259      -0.00453476      -0.00386503      -0.00406771
Si       3.92417582       2.81120386       3.54631259       0.00453476       0.00386503      -0.00406771
Si       2.11525155       8.12608003       4.04201799      -0.00142116       0.00239187       0.00653334
Si       2.83313728       0.47383950       4.04201799       0.00142116      -0.00239187       0.00653334
Si       2.40338967       1.68508616       1.89414696       0.01060497      -0.00593630       0.00139088
Si       2.54499917       6.91483336       1.89414696      -0.01060497       0.00593630       0.00139088
20
Lattice="8.309688967644862 0.1332963281055293 -1.1176691674946773e-17 -3.3606269325338656 8.467280357701972 -7.099684081953574e-16 -9.321500930834222e-32 7.146680001477711e-16 8.523328996160478" Properties=species:S:1:pos:R:3:forces:R:3 unique_starting_index=386 config_type=initial n_minim_iter=11 energy=-3249.7560368435766 stress="-1.431409076309764e-06 1.0209135243544778e-06 -6.510483619696487e-13 1.0209135243544778e-06 -4.418077605757508e-06 2.889090279570774e-12 -6.510483619696487e-13 2.889090279570774e-12 3.9247390981956013e-07" free_energy=-3249.7560368435766 pbc="T T T"
Si       6.17910566       2.12972146       4.51089544       0.00227531       0.00195944       0.00368679
Si      -1.23004363       6.47085523       4.51089544      -0.00227531      -0.00195944       0.00368679
Si      -0.15090508       7.80459734       1.82719841       0.00346073       0.00190522       0.00284918
Si       5.09996711       0.79597935       1.82719841      -0.00346073      -0.00190522       0.00284918
Si       4.58696971       5.68685516       0.87332597      -0.00187911      -0.00151140       0.00295335
Si       0.36209232       2.91372153       0.87332597       0.00187911       0.00151140       0.00295335
Si       6.22442315       5.47833034       6.49635454       0.00075398       0.00091437      -0.00281361
Si      -1.27536112       3.12224635       6.49635454      -0.00075398      -0.00091437      -0.00281361
Si       6.59339383       3.08694827       2.33134863       0.00276662       0.00405758      -0.00108937
Si      -1.64433180       5.51362842       2.33134863      -0.00276662      -0.00405758      -0.00108937
Si       4.36299042       3.05435922       1.20989610       0.00420137       0.00203654      -0.00267520
Si       0.58607161       5.54621747       1.20989610      -0.00420137      -0.00203654      -0.00267520
Si       1.76248819       2.74196572       6.27755595       0.00474938      -0.00086014      -0.00055929
Si       3.18657383       5.85861097       6.27755595      -0.00474938       0.00086014      -0.00055929
Si       1.02414135       5.78832939       3.54617458      -0.00312405       0.00013410      -0.00342454
Si       3.92492068       2.81224730       3.54617458       0.00312405      -0.00013410      -0.00342454
Si       2.11532930       8.12714468       4.04250050      -0.00221418      -0.00176908       0.00487407
Si       2.83373273       0.47343200       4.04250050       0.00221418       0.00176908       0.00487407
Si       2.40455241       1.68512310       1.89440128      -0.00370386       0.00225826      -0.00380139
Si       2.54450961       6.91545359       1.89440128       0.00370386      -0.00225826      -0.00380139
