10
Lattice="6.13688322519644 -0.28149988239401524 2.345618992988187 0.07103497882433847 5.741773824923076 -0.24547961659946518 4.50408687771331 1.5691180651214485 7.531374410164822" Properties=species:S:1:pos:R:3:forces:R:3 unique_starting_index=406 config_type=initial n_minim_iter=1 energy=-1624.904654305198 stress="-0.0011407638594013066 0.000658321293627636 0.00036971212708133093 0.000658321293627636 0.0013012916831526516 0.00048138209913556996 0.00036971212708133093 0.00048138209913556996 0.0006253760449242042" free_energy=-1624.904654305198 pbc="T T T"
Si       8.99215668       3.76157233       8.74688670      -0.00703488      -0.01040208       0.22967740
Si       3.43145258       0.40352865       2.50920280      -0.22621664       0.06201325       0.42627454
Si       5.91866807       3.54382585       4.53159708       0.47353870      -0.08940222      -0.95375236
Si       7.07238046       3.01851254       7.12640773      -0.24090955       0.51821970       0.18100106
Si       5.67178992       1.47399161       5.91473093      -0.24164930      -0.73455001       0.26130794
Si       3.83071648       2.15121586       4.56772942      -0.46289145      -0.49515085       0.58916330
Si       7.89511129       0.75702947       6.63352487       0.46015461      -0.35437744      -0.89680977
Si       3.86548758       3.88466374       3.07449683       0.73457080       0.37736637      -0.42698686
Si       5.23267178       4.46698130       6.53312136      -0.14127248       1.08608335       0.29452712
Si       7.39428766       5.50541602       8.37186173      -0.34828980      -0.35980007       0.29559761
10
Lattice="6.250091602845769 -0.365577794069947 2.2824968514147512 0.007695347180570091 5.613372327813253 -0.2909501224332357 4.52889196194153 1.419072247313915 7.406934733529102" Properties=species:S:1:pos:R:3:forces:R:3 unique_starting_index=406 config_type=initial n_minim_iter=2 energy=-1625.290124581773 stress="0.0027310500122917367 -0.0014514625318486076 -0.0015234129044122023 -0.0014514625318486076 0.00352683578121914 -0.003906787547700431 -0.0015234129044122023 -0.003906787547700431 0.011748067671739281" free_energy=-1625.290124581773 pbc="T T T"
Si       9.07454886       3.49903101       8.58109860       0.15136122      -0.16455070       0.16385039
Si       3.46061000       0.33896984       2.49203208      -0.02362501       0.11949283       0.06433241
Si       6.01059340       3.35055560       4.33406559       0.00482674      -0.06820526      -0.21466265
Si       7.11399469       2.85249049       6.99261188      -0.34926456       0.29268918      -0.05142059
Si       5.71168226       1.26517155       5.82369923      -0.01735058      -0.58490184       0.21959214
Si       3.81440815       1.97941465       4.52518745       0.24382690       0.36200416       0.44756656
Si       8.04498847       0.56436707       6.42834205      -0.63277699      -0.41231442      -0.14323898
Si       3.94289986       3.75761066       2.94709010       0.88258075      -0.22332780       0.34188888
Si       5.23186809       4.34136084       6.41479060      -0.01977844       0.72078159      -0.25265432
Si       7.39712715       5.19641652       8.21202881      -0.23980003      -0.04166774      -0.57525384
10
Lattice="6.267762875945993 -0.36335811670384116 2.228258185578139 -0.0016916446427967682 5.532773101347263 -0.26441859669265777 4.540594745567703 1.4170880497984695 7.237344964744762" Properties=species:S:1:pos:R:3:forces:R:3 unique_starting_index=406 config_type=initial n_minim_iter=3 energy=-1625.3942130279884 stress="-0.006466275130257907 -0.0010807455015274087 -0.0015294653326935145 -0.0010807455015274087 -0.010661759365807755 -0.003068249336424285 -0.0015294653326935145 -0.003068249336424285 -0.0009609678655174668" free_energy=-1625.3942130279884 pbc="T T T"
Si       9.09613337       3.46202885       8.39986888       0.40346870      -0.29175450       0.03632498
Si       3.46242502       0.33964725       2.44796534      -0.01790094       0.18470345      -0.22319806
Si       6.03720715       3.30455171       4.21424111       0.07552926       0.02397748      -0.16351082
Si       7.11909936       2.84191051       6.84321223      -0.37881252       0.17308871      -0.04481883
Si       5.71889692       1.23149257       5.70093519       0.07537943      -0.56530796       0.12940652
Si       3.81003014       1.94881131       4.44672288       0.35495698       0.43345966       0.56154181
Si       8.07639637       0.55125963       6.25193551      -1.00944482      -0.23702602      -0.04786538
Si       3.97847721       3.71673715       2.88096960       0.95702457      -0.25419662       0.60495132
Si       5.23505368       4.33096204       6.28554023      -0.07169906       0.64233325      -0.23874773
Si       7.39748168       5.12794259       8.04142232      -0.38850159      -0.10927745      -0.61408382
10
Lattice="6.356542869418916 -0.3547097933021396 2.2025247652029845 -0.005222754596782597 5.555738886033773 -0.22587222259576306 4.615178487672392 1.466144341463041 7.1417338037920635" Properties=species:S:1:pos:R:3:forces:R:3 unique_starting_index=406 config_type=initial n_minim_iter=4 energy=-1625.4865709725634 stress="0.002329060318252738 -0.00040727572548714043 0.001489945398244253 -0.00040727572548714043 -0.0042494332040619535 -0.0015726615843890451 0.001489945398244253 -0.0015726615843890451 0.0007108381880461842" free_energy=-1625.4865709725634 pbc="T T T"
Si       9.23709758       3.52144362       8.31429029       0.50818420      -0.21206110      -0.08450139
Si       3.50656534       0.35823235       2.42843832       0.02007238       0.02407039      -0.27407525
Si       6.13955826       3.33927162       4.15208969       0.03511253      -0.02427864      -0.02539732
Si       7.21426023       2.91048655       6.77155687      -0.44958176       0.00324615      -0.12425722
Si       5.80021063       1.24224308       5.63926996       0.23965512      -0.24701962       0.01081743
Si       3.85963938       1.97467440       4.41859615       0.25999830       0.47239145       0.51108930
Si       8.19888807       0.57469838       6.14745006      -1.09618893       0.10879972       0.08950648
Si       4.07003679       3.75567642       2.86078384       0.86276105      -0.29950115       0.62225412
Si       5.30999756       4.42478939       6.22903508      -0.09121608       0.39848791      -0.22111779
Si       7.49546832       5.18632584       7.96218627      -0.28879681      -0.22413510      -0.50431837
10
Lattice="6.323302054466792 -0.33748237166098827 2.0720907007148743 -0.012106977306608473 5.633097940818785 -0.14376262232727383 4.532751195233079 1.5802704125518043 6.899980009482946" Properties=species:S:1:pos:R:3:forces:R:3 unique_starting_index=406 config_type=initial n_minim_iter=5 energy=-1625.6031002140185 stress="-0.00630469014618334 0.0010642854440900968 -0.0004651645509896912 0.0010642854440900968 -0.00257384843479183 0.0025088183485275084 -0.0004651645509896912 0.0025088183485275084 -0.0039723926342901264" free_energy=-1625.6031002140185 pbc="T T T"
Si       9.15112592       3.66586981       8.03205235       0.48530859      -0.19940596      -0.21483599
Si       3.46275278       0.39855833       2.34004091       0.08146822      -0.28318921      -0.35810548
Si       6.10982535       3.43012245       3.96315936       0.52610826      -0.05152706       0.36858061
Si       7.09430716       3.06833334       6.54289299      -0.55315677      -0.24110661      -0.12994003
Si       5.72673148       1.27802900       5.44451443       0.50167174       0.35136665      -0.19391426
Si       3.79089442       2.05308952       4.32309525      -0.03628985       0.64938219       0.34379522
Si       8.10033641       0.63825370       5.84872099      -1.04987115       0.41411484       0.08093861
Si       4.10974863       3.85073568       2.78641928       0.27337328      -0.15550308       0.40829825
Si       5.21756453       4.64607003       6.05585348      -0.03231250      -0.18863142      -0.10512946
Si       7.36114913       5.33614853       7.71327376      -0.19629981      -0.29550034      -0.19968746
10
Lattice="6.4364382341589685 -0.3733946380006886 2.041031541049612 -0.032532514999887685 5.703515731278552 -0.16310393687792685 4.598539093151199 1.5538108133531383 6.818178751213017" Properties=species:S:1:pos:R:3:forces:R:3 unique_starting_index=406 config_type=initial n_minim_iter=6 energy=-1625.7240826879397 stress="0.010718722403538784 -0.00040521076831500654 0.001017687267742092 -0.00040521076831500654 0.011480089978558946 0.0025375919113947666 0.001017687267742092 0.0025375919113947666 0.004271599138764008" free_energy=-1625.7240826879397 pbc="T T T"
Si       9.32326974       3.63054229       7.91628687       0.19650290      -0.08970579      -0.11219241
Si       3.52381851       0.37179374       2.29638515      -0.20674382      -0.22256686       0.07440711
Si       6.22530075       3.42928840       3.90462677       0.53371716      -0.09750881       0.34474581
Si       7.16603185       3.05022560       6.44884495      -0.48246765      -0.13305561      -0.04372066
Si       5.84143669       1.24839953       5.37267871       0.15025959       0.31703073      -0.31292772
Si       3.84765745       2.07944441       4.29170028      -0.27733485       0.29201641       0.21510067
Si       8.16754122       0.60546439       5.77497684       0.02552302       0.45603605      -0.33917928
Si       4.20755590       3.85915643       2.75968846       0.03805215       0.08614776      -0.04443351
Si       5.28199789       4.67099581       5.96171077      -0.06055937      -0.11235861       0.01001749
Si       7.44743400       5.32603757       7.58609577       0.08305086      -0.49603526       0.20818249
10
Lattice="6.4233863718133835 -0.39160516031231296 2.032731623186415 -0.035073280807496304 5.657890101717283 -0.2060357195119987 4.587597824500757 1.4812917621273487 6.774207506474344" Properties=species:S:1:pos:R:3:forces:R:3 unique_starting_index=406 config_type=initial n_minim_iter=7 energy=-1625.7880249496043 stress="0.004698094298342828 -0.00047145039120741 -0.000770842684229328 -0.00047145039120741 0.0047030998711084316 -0.00127717390598291 -0.000770842684229328 -0.00127717390598291 0.0007636296798396933" free_energy=-1625.7880249496043 pbc="T T T"
Si       9.31897859       3.52033647       7.84787554       0.06368574      -0.14792475      -0.09382132
Si       3.51188386       0.34254943       2.28007202      -0.19213528      -0.21204031       0.09851305
Si       6.23370971       3.36084083       3.85672344       0.57140032      -0.09805300       0.31780047
Si       7.12425908       2.96914772       6.39358275      -0.37427238      -0.16327183      -0.01045103
Si       5.83795642       1.18499688       5.33448727      -0.08214142       0.38335918      -0.44789724
Si       3.83193575       2.03858371       4.27432606      -0.24717932       0.24433992       0.13265170
Si       8.12385401       0.55460337       5.73098617       0.22418678       0.30483443      -0.22360584
Si       4.22320938       3.80033322       2.72344234      -0.03892566       0.16307341      -0.05240649
Si       5.26404758       4.59372839       5.89625196      -0.07283943      -0.11438170       0.08401142
Si       7.41900339       5.19772155       7.50474618       0.14822065      -0.35993535       0.19520528
10
Lattice="6.388871803108456 -0.377704997888516 2.0764125704157146 -0.027262306300622218 5.591936950318973 -0.20597764437442959 4.599857198984314 1.4714583250121727 6.824228199301197" Properties=species:S:1:pos:R:3:forces:R:3 unique_starting_index=406 config_type=initial n_minim_iter=8 energy=-1625.8439825695127 stress="-0.0039553562967199725 -0.0007737660183747214 -0.0011762338328365474 -0.0007737660183747214 -0.004023661977076051 -0.0018880246798039873 -0.0011762338328365474 -0.0018880246798039873 -0.0016495984839648705" free_energy=-1625.8439825695127 pbc="T T T"
Si       9.32501583       3.48221709       7.92369661      -0.03339085      -0.08651564      -0.00597928
Si       3.49509383       0.33455983       2.30450792      -0.22814731      -0.18383992       0.16361450
Si       6.25080176       3.32608670       3.91549419       0.51712617       0.00289081       0.22974429
Si       7.08752518       2.94090208       6.45515924      -0.28637588      -0.13672715       0.08640676
Si       5.83997906       1.18900164       5.37429519      -0.37312839       0.33418547      -0.60355249
Si       3.82605693       2.04331962       4.32855458      -0.33031065       0.09540700       0.05913237
Si       8.07773361       0.57557495       5.78910350       0.53128117       0.15667212      -0.10681641
Si       4.23432898       3.76243044       2.76684563       0.06033616       0.15395828      -0.18136807
Si       5.26600124       4.55219928       5.94634912      -0.05374919      -0.04392707       0.09820863
Si       7.41717875       5.12871969       7.57128579       0.19635877      -0.29210390       0.26060969
10
Lattice="6.407792709822156 -0.32065294421019447 2.134301366175132 0.0071581424431412174 5.520278094694203 -0.17046152619561053 4.687553955525543 1.5259789309496221 6.861697115199563" Properties=species:S:1:pos:R:3:forces:R:3 unique_starting_index=406 config_type=initial n_minim_iter=9 energy=-1625.9364804040185 stress="-0.010600332703292347 0.002064982681710624 -0.001212947995920029 0.002064982681710624 -0.011393699011680206 -0.005337625299411077 -0.001212947995920029 -0.005337625299411077 -0.004629940453847387" free_energy=-1625.9364804040185 pbc="T T T"
Si       9.47015518       3.52537488       8.01356136      -0.15906450       0.10471858       0.28742906
Si       3.49982042       0.34557247       2.33969781      -0.08278823      -0.15317084       0.09437123
Si       6.39798666       3.33811622       3.99994253       0.32352755       0.15886901       0.00583545
Si       7.10866501       2.98524426       6.52910687      -0.16260815      -0.21150656       0.16016536
Si       5.90793098       1.25889015       5.39308826      -0.55774771       0.29291824      -0.80490334
Si       3.85515108       2.10705455       4.41056944      -0.40124992      -0.12256168      -0.23637138
Si       8.12377468       0.68176872       5.83032884       0.63534961       0.06570938       0.32178662
Si       4.34188214       3.76672525       2.83377140       0.29623492      -0.08513151      -0.20368346
Si       5.35089148       4.58901421       6.01545996      -0.19325300       0.04654659       0.14731322
Si       7.53026914       5.10850401       7.66267994       0.30159943      -0.09639121       0.22805723
10
Lattice="6.476473867352259 -0.2625353028965213 2.208952452903128 0.00020403868769376231 5.462100616724559 -0.0227174268359758 4.820676114574187 1.7003233860890292 6.944782827317478" Properties=species:S:1:pos:R:3:forces:R:3 unique_starting_index=406 config_type=initial n_minim_iter=10 energy=-1626.0664101105501 stress="-0.009881046710374842 0.0016083307370673664 0.0009019904368240994 0.0016083307370673664 -0.021647342992914414 0.0005301446467755944 0.0009019904368240994 0.0005301446467755944 -0.009212222337116986" free_energy=-1626.0664101105501 pbc="T T T"
Si       9.68640632       3.68301413       8.21133653      -0.34263644       0.53937015       0.65514146
Si       3.51963730       0.37237079       2.39879975       0.04086474      -0.30484204      -0.02993342
Si       6.61823164       3.40202731       4.17990846       0.24032701       0.63559496      -0.53065130
Si       7.14481205       3.12485737       6.68861608      -0.13165974      -0.22703564       0.24829137
Si       6.00815592       1.41809942       5.42937407      -0.43140720       0.20217731      -0.73783760
Si       3.88392894       2.25546559       4.55891808      -0.47706305      -0.64376083      -0.41845207
Si       8.25333665       0.87090091       5.90535014       0.50246923       0.17474912       0.70196951
Si       4.48562336       3.81701212       2.98887475       0.64095456      -0.22543897      -0.37664074
Si       5.44883802       4.74255291       6.20127355      -0.36112431      -0.13399658       0.24148537
Si       7.69057590       5.19394918       7.89036986       0.31927521      -0.01681748       0.24662743
10
Lattice="6.463705378671471 -0.22545410494821091 2.2764376486048286 -0.011950820590656153 5.607266194351675 0.10982568799018516 4.86497287255039 1.9091586960205973 7.070921708503978" Properties=species:S:1:pos:R:3:forces:R:3 unique_starting_index=406 config_type=initial n_minim_iter=11 energy=-1626.2607152302662 stress="0.003857271660850556 0.0015557461771157932 0.003627221722711324 0.0015557461771157932 -0.0029093404886468338 0.0005915170678202225 0.003627221722711324 0.0005915170678202225 0.003035997162127941" free_energy=-1626.2607152302662 pbc="T T T"
Si       9.73067934       3.95991455       8.44924027      -0.65082392       0.17841737       0.62621357
Si       3.48844074       0.39375292       2.46590933       0.45915284      -0.42660816      -0.41575853
Si       6.74251010       3.58735689       4.36703390       0.30804363       0.77834835      -0.81713623
Si       7.07404558       3.34199489       6.87521004      -0.23758126      -0.11194000       0.24024797
Si       5.99334851       1.62158867       5.46984450      -0.10597195      -0.37955829      -0.16325193
Si       3.83117124       2.45216621       4.70501903      -0.36517377      -0.40117936      -0.51370289
Si       8.30451935       1.07325498       6.02090489      -0.01858139       0.18804756       1.29126174
Si       4.55065750       3.99324058       3.12836795       0.54576543      -0.15991759      -0.19103415
Si       5.44652261       5.02639827       6.41659265      -0.14010244       0.22927065       0.08940366
Si       7.74673221       5.44292944       8.15790922       0.20527282       0.10511947      -0.14624322
10
Lattice="6.396866414765889 -0.2562566118059455 2.177009133897291 -0.06668971467934676 5.78581536616973 0.2074487521440915 4.739737399912326 2.039271934822087 6.945994211864123" Properties=species:S:1:pos:R:3:forces:R:3 unique_starting_index=406 config_type=initial n_minim_iter=12 energy=-1626.3956849976746 stress="0.00947707670545736 -0.0010163530924034757 0.0007505393800864259 -0.0010163530924034757 0.009576103913445681 0.0012347352492577202 0.0007505393800864259 0.0012347352492577202 0.0035299461623500943" free_energy=-1626.3956849976746 pbc="T T T"
Si       9.52982062       4.13247131       8.31530520      -0.72223350      -0.33787723       0.22068460
Si       3.42446760       0.38369063       2.40485725       0.41078894      -0.29828846      -0.49232862
Si       6.69139015       3.72117598       4.27758314       0.34817232       0.52142902      -0.66338000
Si       6.86397089       3.49265723       6.76959366      -0.40553391       0.01458264       0.16820469
Si       5.85239106       1.70202039       5.31471264       0.27539926      -0.19895054       0.08801704
Si       3.67873777       2.56876005       4.65023997      -0.13227923       0.22959443      -0.24587491
Si       8.20051284       1.14852903       5.87003893      -0.06051197      -0.16269663       1.00362003
Si       4.51119379       4.13176378       3.09212087       0.12945354       0.00315705      -0.02053241
Si       5.27330174       5.27462383       6.36715127       0.07648414       0.13480449       0.20454932
Si       7.56733023       5.63502701       8.06275018       0.08026041       0.09424523      -0.26295974
10
Lattice="6.282367717877712 -0.24039887655203565 2.1653669636723354 -0.07267959696999206 5.836637038999069 0.2657879520149181 4.6467343775214855 2.1264405950235012 6.953146137827722" Properties=species:S:1:pos:R:3:forces:R:3 unique_starting_index=406 config_type=initial n_minim_iter=13 energy=-1626.493445722227 stress="0.0024444815474576605 -0.0027389658533169283 -0.002137830876480893 -0.0027389658533169283 0.006934383146208479 0.003058328737913868 -0.002137830876480893 0.003058328737913868 0.000979927598097123" free_energy=-1626.493445722227 pbc="T T T"
Si       9.32982963       4.23863968       8.35273305      -0.57546132      -0.53613820       0.05989305
Si       3.36027957       0.37462145       2.39303802       0.18624820      -0.07573351      -0.47279963
Si       6.63857059       3.81173789       4.28589425       0.27748362       0.29831705      -0.47015633
Si       6.67284371       3.58412481       6.80001575      -0.34547960      -0.05279679       0.00651973
Si       5.72727747       1.77075188       5.28094880       0.44259294      -0.05554131       0.23994650
Si       3.55987700       2.64922786       4.67446463       0.21408795       0.64551080      -0.06147455
Si       8.06804546       1.23490339       5.88701599      -0.20360873      -0.51164715       0.68951235
Si       4.47199843       4.19900298       3.11589378       0.04566362      -0.08917998       0.11338281
Si       5.15312626       5.40649557       6.42286242       0.02798885       0.18054034       0.23015316
Si       7.43201495       5.72807500       8.10663719      -0.06951552       0.19666875      -0.33497708
10
Lattice="6.18401976088786 -0.19607481716378142 2.2013465080612233 -0.010913989019109551 5.7935171286711755 0.20077047080240665 4.624885014359178 2.0784268151955136 6.960874791385259" Properties=species:S:1:pos:R:3:forces:R:3 unique_starting_index=406 config_type=initial n_minim_iter=14 energy=-1626.6206257367687 stress="-0.010400389594517459 0.0024733797114810697 -0.005089227817875378 0.0024733797114810697 -0.003763972011387572 -0.0027446585859150856 -0.005089227817875378 -0.0027446585859150856 -0.006042125548971031" free_energy=-1626.6206257367687 pbc="T T T"
Si       9.21922894       4.18717696       8.37628174      -0.11216538      -0.28651868       0.27633622
Si       3.33657440       0.34513082       2.37755791      -0.11567969       0.03684065      -0.24521790
Si       6.64299174       3.83906512       4.24722483       0.11403418       0.01916076      -0.12495077
Si       6.57482187       3.54667216       6.80957651      -0.19443923      -0.26778006      -0.15246157
Si       5.68643516       1.74718402       5.27869278       0.35128301       0.28180695       0.12658442
Si       3.52700723       2.64198890       4.67155609       0.56563689       0.53721163      -0.34315899
Si       7.96253424       1.24600285       5.97019413      -0.00916216      -0.62141987       0.42583068
Si       4.50285652       4.17570589       3.09642766       0.09001185      -0.32156900       0.35778385
Si       5.14381655       5.37786354       6.41315043      -0.49748215       0.22716413       0.01908123
Si       7.40724362       5.65925793       8.07530047      -0.19203732       0.39510348      -0.33982718
10
Lattice="6.204831971082034 -0.21070498713200894 2.279891738228583 -0.02236395092093025 5.750374736352134 0.18214703518705508 4.695326662619253 2.0363325260812757 7.053897302294573" Properties=species:S:1:pos:R:3:forces:R:3 unique_starting_index=406 config_type=initial n_minim_iter=15 energy=-1626.6938544657905 stress="-0.008738902872448148 -0.0023243611930762595 -0.0013038837767078266 -0.0023243611930762595 -0.004983683593862399 9.363280360483059e-05 -0.0013038837767078266 9.363280360483059e-05 -0.0062990297508110984" free_energy=-1626.6938544657905 pbc="T T T"
Si       9.28138929       4.10556770       8.52514491      -0.01286423       0.13778934       0.32042514
Si       3.36908852       0.31524715       2.40774049      -0.32451273      -0.19970114       0.05543824
Si       6.69528294       3.80332314       4.32236642      -0.02199930      -0.03750460      -0.07938344
Si       6.61465694       3.48187803       6.91403911      -0.17829722      -0.19240663      -0.19279931
Si       5.75393006       1.71415197       5.36742375       0.18594862       0.34456125       0.06426116
Si       3.57451437       2.62591793       4.72863492       0.58037359       0.16636048      -0.39937284
Si       8.00834639       1.20456229       6.12359246       0.30316019      -0.44438456       0.18647931
Si       4.54186491       4.11848768       3.15900004       0.25325925      -0.21187806       0.22069594
Si       5.19024856       5.31926815       6.49912064      -0.61040322       0.21236267      -0.00185149
Si       7.47828397       5.58625504       8.17908426      -0.17466496       0.22480124      -0.17389271
10
Lattice="6.2573975047751915 -0.1614597278179405 2.3979498881094896 0.04146498795514435 5.666701923675275 0.11489128370495821 4.8172934836391965 1.9818170028270776 7.241195084007639" Properties=species:S:1:pos:R:3:forces:R:3 unique_starting_index=406 config_type=initial n_minim_iter=16 energy=-1626.7840971591177 stress="-0.0004745573971935538 -0.0020603564058527322 8.363754903117188e-05 -0.0020603564058527322 -0.0005737511928127274 0.0031390188806333518 8.363754903117188e-05 0.0031390188806333518 0.0004045652646812102" free_energy=-1626.7840971591177 pbc="T T T"
Si       9.42467102       4.05075705       8.78409456       0.27974756       0.40684355       0.40091549
Si       3.43163825       0.30097039       2.46110760      -0.60579984      -0.41870660       0.34495811
Si       6.81368192       3.80468474       4.42526145      -0.18413126      -0.21963752      -0.05125630
Si       6.74397279       3.41316155       7.09368452      -0.03200276      -0.17107009      -0.24329523
Si       5.88897424       1.70654219       5.53993317       0.07229012       0.33519084      -0.09582468
Si       3.69946108       2.59798934       4.80999815       0.44221330      -0.14737220      -0.39109899
Si       8.12364500       1.19222380       6.40124221       0.60690636      -0.04830061      -0.17912903
Si       4.65025337       4.05551537       3.24101438       0.60108579      -0.18460294       0.18160044
Si       5.32398231       5.23139202       6.64059544      -0.77470642       0.35664050      -0.11812765
Si       7.66312206       5.52870449       8.35339151      -0.40560285       0.09101505       0.15125784
10
Lattice="6.343464303489139 -0.1074947686749794 2.5267584119220565 0.10475498391191765 5.599621105214189 0.062479497591780536 4.9963416540852155 1.9482610083505938 7.383669727080706" Properties=species:S:1:pos:R:3:forces:R:3 unique_starting_index=406 config_type=initial n_minim_iter=17 energy=-1626.855458118786 stress="0.007321581327263388 -0.0010962989369114546 0.006945373901077999 -0.0010962989369114546 0.003733439090225838 0.0014868217691620484 0.006945373901077999 0.0014868217691620484 -0.0007552725335075216" free_energy=-1626.855458118786 pbc="T T T"
Si       9.66691233       4.01837240       9.02876334       0.11500902       0.74091303       0.58956128
Si       3.49409517       0.27061107       2.51512812      -0.45019211      -0.68781449       0.39929143
Si       7.03976683       3.82220651       4.51450412      -0.57842182      -0.35584210       0.16495508
Si       6.87782242       3.36944874       7.24405563       0.15267283       0.02145951      -0.23070652
Si       6.06867488       1.71449259       5.66701431      -0.06429415       0.38900594      -0.20007746
Si       3.83872396       2.60319232       4.89489937       0.52284491      -0.63855748      -0.72020391
Si       8.30592000       1.20483987       6.64123692       0.77318656       0.30796274      -0.35813216
Si       4.86122840       4.01602207       3.33282534       0.55824014       0.05261493       0.26608321
Si       5.48478754       5.21683577       6.76288364      -0.68608677       0.25611181      -0.16528447
Si       7.90481839       5.46744072       8.50029313      -0.34295861      -0.08585389       0.25451353
10
Lattice="6.396751083303352 -0.0883381296187417 2.5938290999506513 0.15560868831020733 5.481438385264424 -0.043265655721381496 5.057879091642732 1.8229939009710874 7.538124067038445" Properties=species:S:1:pos:R:3:forces:R:3 unique_starting_index=406 config_type=initial n_minim_iter=18 energy=-1626.9550110568762 stress="0.01385062017797093 -0.003806010522000744 0.0027275337370039187 -0.003806010522000744 0.008653501718881549 -0.0005606576925671377 0.0027275337370039187 -0.0005606576925671377 0.006549431915352733" free_energy=-1626.9550110568762 pbc="T T T"
Si       9.75224896       3.87920596       9.22364424      -0.02686769       0.25801603       0.06096936
Si       3.52345444       0.23053307       2.55846032      -0.42589793      -0.81527817       0.50400823
Si       7.09706524       3.73952101       4.52230105      -0.36370286      -0.44115265       0.27477106
Si       6.97567745       3.22473464       7.35627428       0.17037481       0.33082468      -0.11653635
Si       6.16470081       1.64375592       5.80632459      -0.18438294       0.24076509      -0.53704562
Si       3.94784440       2.49161231       4.91900661       0.32164556      -0.32638364      -0.21275482
Si       8.42396733       1.10475920       6.84367909       0.71824735       0.48784680      -0.73592248
Si       4.95977082       3.90001222       3.36019233       0.41041735       0.26460080       0.29631720
Si       5.53286111       5.06083784       6.83725542      -0.18701202       0.15291147      -0.13331975
Si       8.00032726       5.31835020       8.59873033      -0.43282162      -0.15215042       0.59951317
10
Lattice="6.373144271412627 -0.03733317367438535 2.592094994347601 0.18825516434294629 5.454519421522992 -0.0075896132037531205 5.0383814756196665 1.890091397649306 7.580410558570795" Properties=species:S:1:pos:R:3:forces:R:3 unique_starting_index=406 config_type=initial n_minim_iter=19 energy=-1627.0582977349131 stress="0.010369764072409237 0.001003204213424007 -0.0001648598770274257 0.001003204213424007 0.008063690488030312 0.001291696555403953 -0.0001648598770274257 0.001291696555403953 0.009938129827150661" free_energy=-1627.0582977349131 pbc="T T T"
Si       9.73519426       3.98077651       9.29085769      -0.06913630      -0.23913500      -0.03288000
Si       3.48683830       0.24722754       2.57907182      -0.24595388      -0.59518330       0.16561749
Si       7.09851299       3.77649789       4.55470101      -0.38181691      -0.40641248       0.35853448