22
Lattice="7.545160138759625 -0.637598912301007 0.09997637472963256 1.0388184893992385 7.291331962630372 3.57450635526393 3.1089543202119607 7.14809775577311 12.902810807377453" Properties=species:S:1:pos:R:3:forces:R:3 unique_starting_index=408 config_type=initial n_minim_iter=1 energy=-3578.186968096255 stress="-0.0007107020726041088 -0.0005359967199800637 0.00032612686828065315 -0.0005359967199800637 -0.00039868365102345063 -0.00035711003182962975 0.00032612686828065315 -0.00035711003182962975 -0.0011145134556601408" free_energy=-3578.186968096255 pbc="T T T"
Si       6.48795905       5.33759871       6.72725472      -0.04925166      -0.12013061       0.00164263
Si       6.37915828       9.22054373      11.23752901       0.10675055       0.00931694      -0.16028436
Si       5.11354461       8.67955888       6.50461162       0.02758216      -0.08743286       0.20484114
Si       2.93066764       8.50666791       7.57511336       0.03822599       0.09027827      -0.02960932
Si       2.77461882       6.17695441       7.03022500      -0.15424873      -0.22376859       0.14396566
Si       2.14594313       2.90420327       5.64129149       0.09642817       0.10014452       0.08094580
Si       3.05533775      12.20891819      13.97957371       0.03161006       0.14477120       0.11889656
Si       9.45435480      10.03159919      12.50606988       0.02130437       0.02648434      -0.11791460
Si       3.53610946       4.67580831       8.68001428       0.07214435       0.01710423      -0.13042417
Si       4.62706217       6.49159702       5.56941245      -0.05887530      -0.01551308      -0.03047556
Si       6.06059536       2.75691143       2.02844175      -0.01679742      -0.18326223       0.13340575
Si       6.67263713       7.04797890      10.21772999      -0.06437297       0.11055977      -0.06966370
Si       8.46828483       6.15153456      11.38487042       0.11332446      -0.07052594      -0.09815470
Si       7.64710305      11.94472869      14.46511330       0.03805247      -0.03141406       0.10041299
Si       6.08403454       2.79969754       5.50209662       0.03891830       0.12527223      -0.02979980
Si       8.46446654       4.05428945       6.75273233       0.07784775       0.13009716      -0.01798278
Si       5.81389376       5.15947398       4.12023784       0.04655156      -0.00945313      -0.01144778
Si       4.06475179       3.53050150       4.21632810      -0.01102248       0.01374576      -0.11167445
Si       6.71026098       7.43420268       7.80995955      -0.04201065       0.07069813       0.10496523
Si       6.92670973      11.33352698      12.24023530      -0.06532897      -0.10934700       0.17116739
Si       4.05339621       9.80454658      11.38163866      -0.12327122      -0.01157148      -0.15975889
Si       8.41675208       9.02047157       7.36106405      -0.12356078       0.02394643      -0.09305304
22
Lattice="7.553686401613803 -0.6310618859096535 0.09557174118507447 1.04476598801921 7.299434502135178 3.5851870709220073 3.1120854786605556 7.163691655824868 12.930021975179866" Properties=species:S:1:pos:R:3:forces:R:3 unique_starting_index=408 config_type=initial n_minim_iter=2 energy=-3578.189279805215 stress="0.0009475819449429708 -0.00013552238233315437 -0.0001450479629886284 -0.00013552238233315437 0.00124859022932512 -6.935939951437777e-05 -0.0001450479629886284 -6.935939951437777e-05 0.0009318541668811138" free_energy=-3578.189279805215 pbc="T T T"
Si       6.49681612       5.35088739       6.73971727      -0.05718713      -0.11112237       0.01663261
Si       6.38944189       9.23955983      11.26047884       0.11829837       0.02124479      -0.16405422
Si       5.12417082       8.69383938       6.52012803       0.01488227      -0.08626610       0.21035054
Si       2.93792313       8.52007148       7.59300509       0.06705399       0.09832702      -0.02005309
Si       2.77921698       6.18725649       7.04631791      -0.14760902      -0.19862153       0.13507452
Si       2.14838432       2.91192242       5.65288305       0.08950559       0.08821498       0.07269018
Si       3.06254347      12.22904826      14.01234839       0.03735620       0.09809286       0.07105869
Si       9.46812733      10.05481538      12.53035761       0.03438898       0.04691245      -0.09823139
Si       3.54008799       4.68758774       8.69700178       0.04106875      -0.00654414      -0.09546019
Si       4.63532952       6.50360690       5.58130469      -0.04592261      -0.01985858      -0.01708746
Si       6.06929583       2.76497383       2.03105143      -0.01913382      -0.15449123       0.10864297
Si       6.68129018       7.06549492      10.23754784      -0.05517994       0.12447583      -0.07757023
Si       8.47823470       6.17019849      11.40526883       0.09692334      -0.07822386      -0.09108345
Si       7.65939509      11.96859829      14.49603061       0.04933289      -0.02971143       0.09192737
Si       6.09105177       2.81095004       5.51079765       0.03888383       0.11527787      -0.03331486
Si       8.47495620       4.06935662       6.76329377       0.08007281       0.12830455      -0.01063722
Si       5.82353924       5.17079889       4.12795740       0.01638261      -0.00636177      -0.02714018
Si       4.07053673       3.53924905       4.22388013      -0.00564077       0.00223378      -0.10583976
Si       6.72072916       7.45041564       7.82598270      -0.02539267       0.06547651       0.10620896
Si       6.93846484      11.35470464      12.26717660      -0.05896655      -0.11556705       0.15620038
Si       4.06054832       9.82184877      11.40651805      -0.11502094       0.01004818      -0.15919304
Si       8.43072699       9.03889955       7.37559360      -0.15409619       0.00815923      -0.06912115
22
Lattice="7.546983761160021 -0.6119115965625652 0.08989577843350274 1.0584380242857552 7.28695270032686 3.5978244439414713 3.118045173628279 7.16991083384608 12.948151778471143" Properties=species:S:1:pos:R:3:forces:R:3 unique_starting_index=408 config_type=initial n_minim_iter=3 energy=-3578.1939371361013 stress="-0.000498922968670991 0.0011915940335956233 -0.0007605769951906147 0.0011915940335956233 -0.0010263227656400842 0.0004421004855420641 -0.0007605769951906147 0.0004421004855420641 0.00029437819008977685" free_energy=-3578.1939371361013 pbc="T T T"
Si       6.49956481       5.35932059       6.74851669      -0.08112186      -0.08736600       0.05318452
Si       6.40042850       9.24532872      11.27615852       0.12178027       0.02399877      -0.13751780
Si       5.13661496       8.68999863       6.53709642      -0.02969526      -0.05486658       0.17850216
Si       2.95120534       8.51561917       7.60889033       0.07763441       0.09662153       0.00300972
Si       2.78495719       6.18408714       7.06064691      -0.14775042      -0.11928255       0.06851929
Si       2.15116078       2.91828115       5.66099178       0.08590533       0.06575765       0.01519230
Si       3.07987588      12.22437846      14.03993899       0.07834228       0.00523558       0.01117218
Si       9.47694172      10.06750429      12.54691338       0.05363883       0.03996983      -0.05195542
Si       3.54354613       4.69551081       8.70659918       0.00970071      -0.03360124      -0.00795010
Si       4.64274866       6.50419898       5.59167445      -0.07679507      -0.00898030      -0.00945553
Si       6.06989497       2.77200352       2.03429582      -0.01303141      -0.13665747       0.03151594
Si       6.68551805       7.07774912      10.25027606      -0.06406324       0.11547560      -0.10767917
Si       8.48057667       6.18824085      11.41613669       0.08467122      -0.01409895      -0.06246967
Si       7.67277092      11.97387971      14.52067168       0.02268776      -0.04942446       0.09460828
Si       6.09027220       2.82672944       5.51471670       0.05864645       0.10447493      -0.03580136
Si       8.47513300       4.08906468       6.76868187       0.10792762       0.13048300      -0.02566641
Si       5.82912357       5.17579130       4.13459991       0.00815612      -0.00188079      -0.05277966
Si       4.07301558       3.54506640       4.22817188      -0.04286023       0.02726843      -0.10213108
Si       6.72768586       7.45755788       7.83977488       0.01515932       0.04480618       0.11876481
Si       6.95097530      11.35571662      12.29059625      -0.02803650      -0.10710710       0.16931505
Si       4.07135461       9.82068097      11.42468184      -0.09610145      -0.02524365      -0.12590669
Si       8.43906262       9.04423942       7.38782222      -0.14479490      -0.01558241      -0.02447138
22
Lattice="7.560592654426978 -0.6257530587700785 0.11714019754892915 1.0593988991525385 7.283615644191232 3.610048985131628 3.157133538923773 7.173144674443061 12.968484637237726" Properties=species:S:1:pos:R:3:forces:R:3 unique_starting_index=408 config_type=initial n_minim_iter=4 energy=-3578.208868015816 stress="0.0007667289360044536 -0.00024381466494278036 0.000620003559413804 -0.00024381466494278036 -0.0008428005969952892 0.0011213171288641905 0.000620003559413804 0.0011213171288641905 4.934898098514318e-05" free_energy=-3578.208868015816 pbc="T T T"
Si       6.52135954       5.34475583       6.78003094      -0.05723593      -0.02523678       0.04518876
Si       6.44073874       9.23984313      11.30248197       0.00236211       0.05132519      -0.06477156
Si       5.15271031       8.67699815       6.57687063      -0.00403726      -0.07281944       0.13132091
Si       2.97085482       8.51730629       7.62883144      -0.07628005       0.07062510       0.04002414
Si       2.79556524       6.17215983       7.08468938      -0.02471811       0.08255722       0.02652005
Si       2.17483612       2.92299701       5.67582779       0.03181276       0.04465216      -0.04492189
Si       3.11569084      12.23006945      14.06973835       0.08004659      -0.10548922      -0.04869450
Si       9.52100359      10.05803250      12.58895580       0.05578032       0.05554992       0.02983045
Si       3.57475533       4.69474487       8.72091624       0.00637093      -0.11010490       0.07420507
Si       4.65517279       6.49599063       5.61533656      -0.02378904      -0.00575140       0.00529061
Si       6.08090662       2.75212855       2.06514249       0.01664193      -0.07414704      -0.07046296
Si       6.71725472       7.07745045      10.27910204       0.03463309      -0.02886591       0.02751832
Si       8.52981989       6.17715093      11.45049330      -0.06385776       0.09193290      -0.10107567
Si       7.71775997      11.96479606      14.56842006       0.02035500      -0.03134329       0.05782192
Si       6.11737173       2.82538544       5.53901492       0.03222701       0.14051562      -0.10042748
Si       8.51054535       4.08437235       6.80411064      -0.00231985       0.09264153      -0.03595396
Si       5.84514990       5.16515783       4.16065896       0.00915710       0.00393123       0.00222918
Si       4.08740238       3.54009733       4.24169748       0.02459006       0.05782889      -0.10475807
Si       6.75200671       7.45133500       7.87930988      -0.04534564      -0.06610843       0.05005911
Si       6.98285950      11.34196212      12.33854860      -0.05882367      -0.09964835       0.16131560
Si       4.09514127       9.81802103      11.44327803       0.01221752      -0.04938219      -0.06051652
Si       8.45496242       9.03014749       7.42598013       0.03021287      -0.02266283      -0.01974150
22
Lattice="7.544463908190135 -0.6249601738003954 0.11335327972922493 1.0568865966126715 7.288489984140617 3.5855790514173207 3.143059680308209 7.148763537160683 12.94154157408564" Properties=species:S:1:pos:R:3:forces:R:3 unique_starting_index=408 config_type=initial n_minim_iter=5 energy=-3578.2140373950756 stress="-0.0003450040332207274 0.00023533604475442247 0.00018717017490057965 0.00023533604475442247 3.4019292028935345e-06 -0.0004240144137595403 0.00018717017490057965 -0.0004240144137595403 0.000260490187879556" free_energy=-3578.2140373950756 pbc="T T T"
Si       6.50271598       5.33471789       6.75786123      -0.08463978      -0.04653704       0.08324402
Si       6.42416153       9.22708274      11.26299849       0.01165489       0.06928098      -0.05891470
Si       5.13999330       8.67478148       6.54948847      -0.01086651      -0.07906497       0.08280438
Si       2.96243621       8.51519619       7.59833581      -0.11268130       0.00053235       0.02977499
Si       2.78310215       6.16074385       7.06469261       0.05396979       0.14270695       0.04196830
Si       2.16905530       2.91422197       5.66512107       0.01203032       0.05473465      -0.07081601
Si       3.10403400      12.21453255      14.02782234       0.07193217      -0.18340387      -0.04014729
Si       9.49594250      10.04445974      12.54625394       0.03085193       0.06740542       0.03444186
Si       3.56318435       4.67776353       8.70076294      -0.03645141      -0.06903396       0.05946640
Si       4.64196405       6.49361265       5.58997850      -0.06592722      -0.02732278       0.02493260
Si       6.06727955       2.74982586       2.05308131       0.02189876       0.01233690      -0.12997952
Si       6.69670344       7.06484025      10.24856268       0.06090978      -0.07733836       0.05012853
Si       8.50698886       6.15656193      11.42036381      -0.11164307       0.08574400      -0.03890513
Si       7.69546771      11.94645022      14.52491177       0.05352047       0.01960847       0.07492296
Si       6.10242251       2.81937032       5.52330791       0.01145433       0.14331225      -0.05004296
Si       8.49070954       4.07787716       6.78314271      -0.03272464       0.04212103      -0.02936600
Si       5.83207946       5.16513390       4.13865135       0.03965716       0.00925636      -0.06435635
Si       4.07660705       3.53640017       4.22384137       0.02866487       0.06806006      -0.09014223
Si       6.73364476       7.44580721       7.85200415      -0.03507223      -0.08999472       0.04005159
Si       6.96116689      11.32706628      12.29998548      -0.01054962      -0.06420410       0.10469513
Si       4.07886535       9.80413194      11.40384522       0.03296144      -0.03469220      -0.04487409
Si       8.43191708       9.02923736       7.38827952       0.07104987      -0.04350739      -0.00888646
22
Lattice="7.5493272860105645 -0.6336803297941088 0.09611111375625156 1.0418010356694285 7.297878884839249 3.5820553070110517 3.108989928740754 7.164100739051814 12.913092865463042" Properties=species:S:1:pos:R:3:forces:R:3 unique_starting_index=408 config_type=initial n_minim_iter=6 energy=-3578.216931406667 stress="9.65810207606527e-06 -0.0004492258615208343 -0.001014310417289559 -0.0004492258615208343 0.0006968631808858809 0.00045952501951868177 -0.001014310417289559 0.00045952501951868177 -0.0011343791307345556" free_energy=-3578.216931406667 pbc="T T T"
Si       6.48367868       5.33664524       6.73553281      -0.06275748      -0.02232039       0.10273552
Si       6.39530620       9.24093625      11.22941097      -0.01387478       0.06146065      -0.04342116
Si       5.11932681       8.68112146       6.53670724      -0.05134096      -0.05659550       0.04771237
Si       2.93730602       8.52908762       7.58341214      -0.09908495      -0.03106111      -0.00008563
Si       2.76109844       6.16981251       7.05144499       0.09167531       0.20326649       0.00503650
Si       2.15652660       2.92216196       5.65046900      -0.02998189       0.09319096      -0.14490636
Si       3.06413985      12.23429875      14.00198482       0.04999769      -0.13516938      -0.02247037
Si       9.46453703      10.05724630      12.50663047       0.03310274       0.06592353       0.00728877
Si       3.54146878       4.68481393       8.67822077      -0.03098296      -0.10941542       0.10722351
Si       4.62357486       6.49944162       5.57366579      -0.06626625      -0.04947389       0.00790294
Si       6.06352606       2.74525466       2.03720085      -0.01363521       0.04811047      -0.15296960
Si       6.67080877       7.07433327      10.21777330       0.03928865      -0.05777653       0.06510356
Si       8.48005742       6.16445461      11.38028273      -0.04860428       0.02354798      -0.03092071
Si       7.65687126      11.96270921      14.49019716       0.06913921       0.00603933       0.12449675
Si       6.09189647       2.82496106       5.49891220       0.04083159       0.12565186      -0.07276102
Si       8.47730803       4.08178499       6.75278373      -0.06649330       0.01591461      -0.04611923
Si       5.82189644       5.16774718       4.12031678       0.02288951       0.03621472      -0.00912919
Si       4.06627131       3.54072207       4.20560429       0.00178437       0.04838349      -0.10883328
Si       6.71137453       7.45234263       7.82944350      -0.00139454      -0.10809305       0.00771067
Si       6.92495288      11.33884901      12.27307590      -0.02278544      -0.06895571       0.06406386
Si       4.04464080       9.81893088      11.37586987       0.08188067      -0.04352601       0.04924461
Si       8.41006710       9.03517047       7.36077567       0.07661230      -0.04531710       0.04309749
22
Lattice="7.5780438309762115 -0.6307801455380785 0.1232748491914886 1.0574501415986695 7.252472879882829 3.5925437782919327 3.16462477168277 7.109114781188715 12.969756052595406" Properties=species:S:1:pos:R:3:forces:R:3 unique_starting_index=408 config_type=initial n_minim_iter=7 energy=-3578.237538879864 stress="0.0020229988235129404 -0.001235755818210214 -8.343433015652225e-05 -0.001235755818210214 -0.001469291509428978 -0.0007882631467646627 -8.343433015652225e-05 -0.0007882631467646627 0.0014062677411542795" free_energy=-3578.237538879864 pbc="T T T"
Si       6.51502600       5.28402400       6.79324953      -0.08701542      -0.06959213       0.09565488
Si       6.46754457       9.18637384      11.26671279      -0.12995165       0.04823731       0.00342955
Si       5.15865025       8.60723105       6.60125234      -0.04512763       0.02800494      -0.06134764
Si       2.96387757       8.48107353       7.61782074      -0.08139005      -0.02409498       0.04647291
Si       2.78950710       6.13157921       7.09854431       0.15555338       0.13260780       0.03336216
Si       2.19254655       2.91529029       5.67181174      -0.03976563       0.07462812      -0.10097599
Si       3.13653106      12.13469529      14.05839871      -0.04528432      -0.02338558       0.03721146
Si       9.55042541       9.99821508      12.57636023       0.02706931       0.05509709       0.01688732
Si       3.58424976       4.63600948       8.72435222      -0.00182924      -0.04945759       0.03818258
Si       4.64638732       6.45076889       5.60648073       0.07889766      -0.10043365      -0.01902922
Si       6.09350863       2.71405706       2.05424335       0.02203611      -0.03186657      -0.07316255
Si       6.73284363       7.02315029      10.27587774       0.05196259      -0.09754213       0.08138927
Si       8.54617005       6.12176085      11.43571945       0.01771699      -0.06617808       0.00908437
Si       7.74529533      11.87658300      14.58384279       0.00481399      -0.05818211       0.07517961
Si       6.14025560       2.83203497       5.52774401       0.00995228       0.08342907      -0.12277860
Si       8.53433550       4.06795099       6.79937208      -0.11406404      -0.02578141      -0.00211779
Si       5.86405769       5.13492930       4.14385404       0.00278028       0.10444437      -0.00783178
Si       4.09756517       3.52555302       4.21024279       0.03894692       0.08913127      -0.06904945
Si       6.75674869       7.39347064       7.89122675       0.04463045      -0.05330246      -0.03435848
Si       6.98460065      11.24102930      12.36492295      -0.00622871       0.06797395       0.02494380
Si       4.09427442       9.74438587      11.40955942       0.14501221      -0.08814278       0.01167929
Si       8.46370227       8.97023694       7.40479401      -0.04871547       0.00440555       0.01717431
22
Lattice="7.561585330413927 -0.6149153759674452 0.1430603399602473 1.0822461419508733 7.282513549992785 3.6062007486090297 3.210889211020822 7.160564261039169 12.982300719433319" Properties=species:S:1:pos:R:3:forces:R:3 unique_starting_index=408 config_type=initial n_minim_iter=8 energy=-3578.2453181546043 stress="0.0005785868198877387 -0.00024922895653946194 0.0009507674019796978 -0.00024922895653946194 0.0006887196174063852 0.0002746939462015855 0.0009507674019796978 0.0002746939462015855 0.0008413040594578558" free_energy=-3578.2453181546043 pbc="T T T"
Si       6.52704857       5.32143387       6.82145958      -0.09089002       0.02307076       0.11419725
Si       6.50994922       9.25247840      11.28622966      -0.10280236       0.02706716       0.04694795
Si       5.18568999       8.65033977       6.63614138      -0.08340091      -0.01389539      -0.10059902
Si       2.99468729       8.52906230       7.63715429      -0.01303927      -0.06831818       0.10227444
Si       2.81724313       6.17190081       7.11758430       0.07989687       0.12323512       0.04459800
Si       2.21328384       2.94508510       5.67595869      -0.06471852       0.06218239      -0.11957304
Si       3.20220243      12.19676909      14.07956524      -0.14377760       0.02412465       0.14335719
Si       9.59239427      10.07678623      12.61117032       0.03992655       0.06329681       0.04086815
Si       3.61181861       4.66874553       8.73821642       0.01976394      -0.08073188      -0.06873638
Si       4.66331111       6.48794311       5.62743777       0.16960583      -0.04284278      -0.03094758
Si       6.09350507       2.73550240       2.07036609       0.01418998      -0.03346164      -0.06042635
Si       6.76548831       7.07704693      10.30085572       0.00553460      -0.06017870       0.13228678
Si       8.57314008       6.18177626      11.45766705       0.09224274      -0.14969658      -0.00224485
Si       7.80175138      11.95457837      14.62413997       0.00013780      -0.05483397       0.06605915
Si       6.15223684       2.87526122       5.54120201       0.00087079       0.06360871      -0.13192953
Si       8.54543097       4.11748732       6.82336444      -0.04243605       0.00390272      -0.00890922
Si       5.87803541       5.17201271       4.16363833      -0.02166757       0.08965813       0.01960191
Si       4.11002653       3.55689146       4.21668182       0.06595952       0.10342158      -0.10023750
Si       6.78045524       7.44157629       7.92250188       0.06943856      -0.07679167      -0.10175691
Si       7.02854785      11.30583420      12.40621842      -0.00665138       0.03442042      -0.00649488
Si       4.14020439       9.80012125      11.42518955       0.13466342      -0.03597630       0.03037188
Si       8.48744011       9.02737265       7.43776241      -0.12284692      -0.00126135      -0.00870744
22
Lattice="7.564283905308772 -0.6006637005805667 0.11888529765928964 1.0853089456883054 7.283227978271195 3.582688768265202 3.1847149992673565 7.1568328015253275 12.91674085589639" Properties=species:S:1:pos:R:3:forces:R:3 unique_starting_index=408 config_type=initial n_minim_iter=9 energy=-3578.256261324511 stress="-0.0002426698794152043 0.0008098902853075955 -0.0005647818743073989 0.0008098902853075955 -0.0005516835459509821 -0.0003319767483851469 -0.0005647818743073989 -0.0003319767483851469 -0.0015519044318814707" free_energy=-3578.256261324511 pbc="T T T"
Si       6.50928927       5.32480304       6.78074747      -0.06200218      -0.00631436       0.11112887
Si       6.49393687       9.26307817      11.20940686      -0.04472167      -0.00887925       0.01077255
Si       5.17938438       8.65015409       6.59231767      -0.13335870       0.02055505      -0.13473140
Si       2.98131514       8.52939664       7.59564566       0.09909975      -0.05720192       0.04268323
Si       2.81249645       6.18466502       7.08166854      -0.00615332      -0.04853888       0.00822485
Si       2.20158920       2.95335270       5.63504491      -0.03372583       0.09460443      -0.09236468
Si       3.18350157      12.18385156      14.00846035      -0.10946846       0.08648274       0.17977499
Si       9.58119093      10.09377890      12.52552602       0.05583206       0.03112680      -0.06656453
Si       3.59369812       4.66033395       8.69201997      -0.00096565      -0.02574553      -0.06074183
Si       4.65982623       6.48913635       5.58544884       0.11423610      -0.03397643      -0.01377071
Si       6.09649198       2.74313480       2.03053927      -0.04366596      -0.07463066       0.02261488
Si       6.75260156       7.07782116      10.24021860      -0.07292315       0.04895829       0.05402558
Si       8.55172669       6.18864382      11.37739232       0.20998931      -0.20406585       0.06717482
Si       7.78667629      11.95752081      14.54406138       0.01462746      -0.07438089       0.13786101
Si       6.14619256       2.89679288       5.48875770      -0.00324884       0.00946323      -0.06601093
Si       8.53344938       4.13380047       6.76345926       0.03507216       0.04697815      -0.00608698
Si       5.88015977       5.18525862       4.12137886       0.00681743       0.09310076       0.01424371
Si       4.10843882       3.57009522       4.17239721      -0.00358908       0.08068041      -0.10721730
Si       6.77365544       7.44145918       7.86556843       0.12836503       0.01984571      -0.09981793
Si       7.01223386      11.30572704      12.33683053      -0.00109045       0.05375725      -0.03657964
Si       4.13062988       9.79559307      11.35745066       0.07025885      -0.01712100       0.03661703
Si       8.48408530       9.03632112       7.37396547      -0.21938487      -0.03469804      -0.00123559
22
Lattice="7.530404923352194 -0.6166769699988475 0.10784026886125456 1.060165846963999 7.2893625866699745 3.604568180087945 3.137449258666357 7.1734528526364265 12.965952171902677" Properties=species:S:1:pos:R:3:forces:R:3 unique_starting_index=408 config_type=initial n_minim_iter=10 energy=-3578.2625200115867 stress="-0.00262784172613571 -0.00021913459523486482 -0.0012138085660718752 -0.00021913459523486482 -0.0006310821792462886 0.00025964029049665624 -0.0012138085660718752 0.00025964029049665624 0.00036291447829598706" free_energy=-3578.2625200115867 pbc="T T T"
Si       6.45090950       5.31977774       6.81104016      -0.05143641       0.01855828       0.12529979
Si       6.42881575       9.27476575      11.24685776       0.04827406      -0.05748070      -0.02331979
Si       5.12378099       8.64803152       6.62455260      -0.14020235       0.03888917      -0.15496223
Si       2.93657592       8.53837757       7.63351344       0.10805016      -0.04784888       0.06336048
Si       2.77829240       6.19765629       7.11599880       0.03281190      -0.09453819       0.01938977
Si       2.17786342       2.96652718       5.64822889      -0.04366219       0.11000902      -0.05478940
Si       3.12396426      12.20002198      14.07458211      -0.00679943       0.13370281       0.10278106
Si       9.50286261      10.10313881      12.56851654       0.02796362       0.02218235      -0.07115893
Si       3.55538959       4.66215068       8.72255686      -0.10089074       0.03342510      -0.01240323
Si       4.61812197       6.48714356       5.60718123       0.12744775      -0.04947325      -0.03570181
Si       6.05970565       2.72961430       2.02795469      -0.07750003      -0.10380679       0.01795522
Si       6.69303826       7.08118514      10.27984914      -0.10857634       0.10013734       0.01616526
Si       8.48659088       6.18716256      11.40956076       0.28348467      -0.21097042       0.08663281
Si       7.70941192      11.96609969      14.60968676      -0.03436555      -0.10436263       0.10773539
Si       6.10630607       2.90441833       5.49510741       0.01417399      -0.04098420      -0.02928119
Si       8.47551964       4.13358470       6.77804985       0.01782178       0.00011593      -0.01016318
Si       5.83824729       5.18545655       4.13295364       0.01278926       0.15284613       0.02009071
Si       4.07823280       3.57612384       4.17535437      -0.06080181       0.03268000      -0.10758607
Si       6.71769055       7.43815398       7.89426491       0.06446140      -0.02657670      -0.01099813
Si       6.93712151      11.31088171      12.39346702       0.06031419       0.04769380      -0.04392326
Si       4.07934423       9.80532901      11.40130631      -0.03087310      -0.00426088      -0.03703086
Si       8.41024545       9.03121918       7.39938848      -0.14248481       0.05006272       0.03190758
22
Lattice="7.5486342121966885 -0.6092900689360792 0.11983414546069693 1.0764163996120841 7.300113154030698 3.6036778321000456 3.174216283382305 7.191699183167441 12.950466403539092" Properties=species:S:1:pos:R:3:forces:R:3 unique_starting_index=408 config_type=initial n_minim_iter=11 energy=-3578.279777169348 stress="-0.0008103861424837907 -8.573704744572956e-05 -0.00047880852751089694 -8.573704744572956e-05 -0.0003671906898276865 9.677035227518492e-05 -0.00047880852751089694 9.677035227518492e-05 0.00013848533137412086" free_energy=-3578.279777169348 pbc="T T T"
Si       6.47091320       5.32892070       6.82597015       0.04384344       0.03420461       0.09181616
Si       6.47418585       9.30301889      11.23187544       0.05107073      -0.04543953      -0.01830063
Si       5.14838947       8.65838092       6.63188321      -0.09955466       0.00177392      -0.16062726
Si       2.96353735       8.55553047       7.63463516       0.04343897      -0.00334023       0.05430315
Si       2.80382006       6.21479632       7.12018441       0.02250021      -0.11721936      -0.04026978
Si       2.19683487       2.98885216       5.63320455      -0.01161547       0.08598176      -0.02298445