16
Lattice="4.853177360776189 2.344426931681035e-29 3.1769973887445032e-15 -4.3646984516206234e-29 6.921573436780518 1.567053550334629e-14 -1.6008553707880725e-14 -5.5261590815338315e-14 24.45464724305587" Properties=species:S:1:pos:R:3:forces:R:3 unique_starting_index=226 config_type=initial n_minim_iter=7 energy=-2596.9271090062743 stress="-2.430660275761569e-05 3.457598305112537e-16 5.788684857555258e-16 3.457598305112537e-16 6.6338270844457844e-06 2.2376323490171167e-13 5.788684857555258e-16 2.2376323490171167e-13 9.67695518474602e-07" free_energy=-2596.9271090062743 pbc="T T T"
Si       2.42644026       1.15919912       9.26435608       0.00197735      -0.00864464      -0.00205803
Si       2.42673710       5.76237432       9.26435608      -0.00197735       0.00864464      -0.00205803
Si      -0.00014842       5.76237432       9.26435608       0.00197735       0.00864464      -0.00205803
Si       4.85332578       1.15919912       9.26435608      -0.00197735      -0.00864464      -0.00205803
Si       4.85323100       1.37116872      18.16124334      -0.00032566       0.00427852      -0.00000000
Si      -0.00005364       5.55040472      18.16124334       0.00032566      -0.00427852      -0.00000000
Si       2.42664232       5.55040472      18.16124334      -0.00032566      -0.00427852       0.00000000
Si       2.42653504       1.37116872      18.16124334       0.00032566       0.00427852       0.00000000
Si       0.00025134       2.26457444      11.38422814      -0.00407580       0.00263275       0.00104163
Si       4.85292602       4.65699900      11.38422814       0.00407580      -0.00263275       0.00104163
Si       2.42684002       4.65699900      11.38422814      -0.00407580      -0.00263275       0.00104163
Si       2.42633734       2.26457444      11.38422814       0.00407580       0.00263275       0.00104163
Si       2.42656399       1.17184298       6.89631654       0.00047854       0.00833163       0.00101639
Si       2.42661337       5.74973046       6.89631654      -0.00047854      -0.00833163       0.00101639
Si       4.85315268       5.74973046       6.89631654       0.00047854      -0.00833163       0.00101639
Si       0.00002469       1.17184298       6.89631654      -0.00047854       0.00833163       0.00101639
