8
Lattice="6.662917251367066 1.061603575150046 0.86757862850947 2.684977090986652 6.18969841512598 0.867578628509468 2.6849770909866533 2.0827770416171396 5.892970298734925" Properties=species:S:1:pos:R:3:forces:R:3 unique_starting_index=452 config_type=initial n_minim_iter=1 energy=-1299.0781584114823 stress="0.0011682007289947867 -0.00043720623719720127 -0.00035729983812633314 -0.00043720623719720127 0.0013926703646379263 -0.00027716285369059924 -0.00035729983812633314 -0.00027716285369059924 0.0015053108843352814" free_energy=-1299.0781584114823 pbc="T T T"
Si      10.08216239       7.68181777       4.79547477       0.08753655       0.07365372      -0.20487141
Si       8.54040520       8.21666785       6.57303199      -0.15849108       0.13106095       0.11297530
Si       9.94746294       6.26371600       6.74319984       0.09310626      -0.18753123       0.10593899
Si       2.77440887       3.47085407       1.08510195       0.06888954       0.12404771       0.15632166
Si       2.38927778       2.25101727       3.18526164       0.18943523       0.02249347       0.09043452
Si       4.05169737       1.42664040       1.57164386       0.13728106       0.16033620       0.00403448
Si       5.04180651       3.91100500       3.19620660       0.03807177       0.02953284       0.02413525
Si      11.20533404       8.69214585       7.10351787      -0.45582933      -0.35359365      -0.28896879
8
Lattice="6.650382909476681 1.0645944848528897 0.870022901869819 2.6847574428724013 6.176814043888645 0.8700229018698149 2.6847574428724013 2.0826066572771276 5.87985723411912" Properties=species:S:1:pos:R:3:forces:R:3 unique_starting_index=452 config_type=initial n_minim_iter=2 energy=-1299.0824239939038 stress="-0.0028355009087763137 0.0008126789283722517 0.0006641489051439659 0.0008126789283722517 -0.0032527450801059666 0.0005151902931876491 0.0006641489051439659 0.0005151902931876491 -0.0034621212603540568" free_energy=-1299.0824239939038 pbc="T T T"
Si      10.07091903       7.67357620       4.79104422       0.06798900       0.03379291      -0.18779331
Si       8.53181448       8.20726525       6.56583775      -0.15482938       0.10993960       0.07051199
Si       9.93668457       6.25761364       6.73541816       0.04963687      -0.17259182       0.09369650
Si       2.77261353       3.46598752       1.08702025       0.10461890       0.11391044       0.12339863
Si       2.38971356       2.24905185       3.18011056       0.16511356       0.06562492       0.08705634
Si       4.04653725       1.42841495       1.57074355       0.13634616       0.13546592       0.04697482
Si       5.03669928       3.90704325       3.19296892       0.01994200       0.01546931       0.01264205
Si      11.18931640       8.67972072       7.09336364      -0.38881711      -0.30161127      -0.24648701
8
Lattice="6.676840305129457 1.071434902458368 0.8756131243064442 2.69796158227689 6.2007396745037795 0.8756131243064261 2.69796158227688 2.092849306459616 5.902190494627775" Properties=species:S:1:pos:R:3:forces:R:3 unique_starting_index=452 config_type=initial n_minim_iter=3 energy=-1299.121355553271 stress="0.00037188351278835636 0.00077030674861828 0.0006295209263755217 0.00077030674861828 -2.3605998870400017e-05 0.0004883288419117227 0.0006295209263755217 0.0004883288419117227 -0.00022206553370946857" free_energy=-1299.121355553271 pbc="T T T"
Si      10.12333251       7.71349667       4.79200464      -0.09137720      -0.03400889       0.09824413
Si       8.55345839       8.25582200       6.60476745       0.06397263      -0.11076238      -0.05289144
Si       9.98838375       6.26668768       6.77525024      -0.05566148       0.08033569      -0.09801165
Si       2.79387768       3.49310487       1.10836766       0.01736952       0.02811551       0.13094687
Si       2.42049406       2.26310384       3.20243384       0.13403596      -0.01647554       0.00147657
Si       4.07809023       1.45209355       1.58006881       0.03155140       0.13028243      -0.01643961
Si       5.06230356       3.92690488       3.20920052      -0.01006982      -0.00781131      -0.00638367
Si      11.19174660       8.68160587       7.09490424      -0.08982102      -0.06967551      -0.05694120
8
Lattice="6.663888681514854 1.0550420385271118 0.862216317118028 2.6788631679111754 6.192270842775709 0.8622163171180064 2.6788631679111616 2.078034379693301 5.896559020700759" Properties=species:S:1:pos:R:3:forces:R:3 unique_starting_index=452 config_type=initial n_minim_iter=4 energy=-1299.123820218879 stress="-0.0005352537000281986 -0.0007379951011782509 -0.0006031147540982881 -0.0007379951011782509 -0.000156353572172002 -0.00046784517612532536 -0.0006031147540982881 -0.00046784517612532536 3.378128767604201e-05" free_energy=-1299.123820218879 pbc="T T T"
Si      10.08354435       7.68297808       4.76287685      -0.10046592      -0.04940611       0.13503972
Si       8.51003081       8.22589199       6.58066038       0.09366915      -0.12776916      -0.07530750
Si       9.94893042       6.23198003       6.75072018      -0.07283501       0.11540371      -0.11021404
Si       2.78175998       3.48689817       1.10302695       0.00575215       0.01798607       0.11830099
Si       2.41121451       2.25297537       3.19741496       0.11719017      -0.02414513      -0.00593179
Si       4.06906542       1.44482987       1.57114261       0.01885145       0.11615062      -0.02248034
Si       5.04119978       3.91053436       3.19582197      -0.00863768      -0.00670038      -0.00547578
Si      11.13626387       8.63856708       7.05973148      -0.05352433      -0.04151963      -0.03393125
8
Lattice="6.673554334755402 1.0600709725141677 0.8663261333936002 2.6861374993091522 6.200382509209008 0.8663261333935757 2.686137499309135 2.083677187775235 5.903689829848016" Properties=species:S:1:pos:R:3:forces:R:3 unique_starting_index=452 config_type=initial n_minim_iter=5 energy=-1299.1278198736725 stress="0.0006297881547671168 0.00012084363311909867 9.875754193869434e-05 0.00012084363311909867 0.0005677448415776274 7.660770357778339e-05 9.875754193869434e-05 7.660770357778339e-05 0.0005366110462217772" free_energy=-1299.1278198736725 pbc="T T T"
Si      10.09982329       7.69732766       4.77547224      -0.09022275      -0.03011173       0.03272010
Si       8.52880174       8.23788010       6.59221442       0.00281624      -0.09387110      -0.03602432
Si       9.96687705       6.24675253       6.76016740      -0.05159966       0.01615365      -0.08481746
Si       2.79061117       3.49698545       1.11753570      -0.04163262       0.01544115       0.09559113
Si       2.42913260       2.25751382       3.20441104       0.08336113      -0.06438208      -0.00390346
Si       4.08103672       1.46025580       1.57419702       0.00460439       0.08488206      -0.06231536
Si       5.05171793       3.91869344       3.20248985      -0.02179563      -0.01690720      -0.01381714
Si      11.14274090       8.64359141       7.06383753       0.11446890       0.08879525       0.07256650
8
Lattice="6.6691066907093255 1.0568582483947397 0.8637005857310238 2.6819197802900367 6.196873381097355 0.8637005857310054 2.681919780290024 2.0804054398074414 5.900773814438644" Properties=species:S:1:pos:R:3:forces:R:3 unique_starting_index=452 config_type=initial n_minim_iter=6 energy=-1299.1303026018504 stress="8.549921799311255e-05 -4.1119198854889434e-05 -3.3604005037502044e-05 -4.1119198854889434e-05 0.0001066105631722292 -2.6067129661582784e-05 -3.3604005037502044e-05 -2.6067129661582784e-05 0.000117204387881932" free_energy=-1299.1303026018504 pbc="T T T"
Si      10.08585076       7.68769287       4.77321536      -0.04965837      -0.00353572      -0.03854580
Si       8.52132695       8.22537338       6.58322201      -0.04961688      -0.03853139       0.00421084
Si       9.95407063       6.24232290       6.74970184      -0.01577208      -0.04717682      -0.03859822
Si       2.78645246       3.49422455       1.11832854      -0.04992116       0.03565637       0.08003750
Si       2.42831858       2.25342923       3.20154756       0.07043587      -0.06962134       0.01900414
Si       4.07732848       1.46036732       1.57076445       0.02212380       0.06704031      -0.07201135
Si       5.04559359       3.91394270       3.19860738      -0.02140819      -0.01660665      -0.01357152
Si      11.13394960       8.63677187       7.05826437       0.09381699       0.07277525       0.05947442
8
Lattice="6.66823318571934 1.0563687017077918 0.8633005114912595 2.6812284138657057 6.196149033533309 0.8633005114912478 2.681228413865698 2.0798691364919395 5.900143641807813" Properties=species:S:1:pos:R:3:forces:R:3 unique_starting_index=452 config_type=initial n_minim_iter=7 energy=-1299.1321303087122 stress="-0.00018037585995596902 -7.681503719033748e-05 -6.277585622884746e-05 -7.681503719033748e-05 -0.0001409376150271104 -4.869617959951015e-05 -6.277585622884746e-05 -4.869617959951015e-05 -0.00012114719753298355" free_energy=-1299.1321303087122 pbc="T T T"
Si      10.07968596       7.68479115       4.77487055      -0.00909655       0.02834462      -0.08923657
Si       8.52080550       8.21914254       6.58004880      -0.08149770       0.01152971       0.04554690
Si       9.94972717       6.24289955       6.74422769       0.02519260      -0.09060736       0.00222890
Si       2.78435036       3.49479116       1.12292173      -0.06676607       0.04964113       0.06605000
Si       2.43226503       2.25024589       3.20118816       0.05566793      -0.08322137       0.03549420
Si       4.07735461       1.46443502       1.56771643       0.03148093       0.04939147      -0.08862272
Si       5.04362259       3.91241377       3.19735789      -0.02174996      -0.01687177      -0.01378819
Si      11.13494838       8.63754664       7.05889754       0.06676883       0.05179358       0.04232748
8
Lattice="6.673188851142566 1.0596397275822385 0.865973705335342 2.6856289215907814 6.200135731643233 0.8659737053353577 2.6856289215907956 2.0832826764033223 5.903518174726761" Properties=species:S:1:pos:R:3:forces:R:3 unique_starting_index=452 config_type=initial n_minim_iter=8 energy=-1299.1363541674375 stress="-0.0008436432971781567 -0.00017512382560959172 -0.00014311716054126087 -0.00017512382560959172 -0.0007537315281327635 -0.00011101812491225483 -0.00014311716054126087 -0.00011101812491225483 -0.0007086131623488703" free_energy=-1299.1363541674375 pbc="T T T"
Si      10.07503878       7.69022856       4.78438846       0.10532077       0.13271779      -0.14899038
Si       8.52973312       8.21205288       6.58348198      -0.08963483       0.13174579       0.15972870
Si       9.95383831       6.25106128       6.73659635       0.15473737      -0.13226366       0.09729997
Si       2.77975308       3.50632754       1.14980549      -0.14277128       0.06166293       0.02951586
Si       2.45886501       2.23867109       3.20714005       0.00441018      -0.14853265       0.05455039
Si       4.08738559       1.48932244       1.55518822       0.02422671      -0.00166605      -0.15642069
Si       5.04491268       3.91341450       3.19817573      -0.02800754      -0.02172587      -0.01775512
Si      11.15500622       8.65310580       7.07161302      -0.02828138      -0.02193829      -0.01792872
8
Lattice="6.72409843603025 1.0896723097775347 0.8905173552263745 2.7273768189857863 6.241978949610394 0.8905173552264374 2.727376818985838 2.115667147213881 5.939635922305201" Properties=species:S:1:pos:R:3:forces:R:3 unique_starting_index=452 config_type=initial n_minim_iter=9 energy=-1299.1598298613999 stress="0.0012987639372208887 -5.7480613610328445e-06 -4.697503225315724e-06 -5.7480613610328445e-06 0.0013017150821475576 -3.643923972522696e-06 -4.697503225315724e-06 -3.643923972522696e-06 0.0013031959962418185" free_energy=-1299.1598298613999 pbc="T T T"
Si      10.15436765       7.78139825       4.82800176       0.13987097       0.25940538       0.24697967
Si       8.60844029       8.27374908       6.66414092       0.31924441       0.06245322       0.20502830
Si      10.06186963       6.30458783       6.78099506       0.28603703       0.25616731       0.02037451
Si       2.78209394       3.57256328       1.24992149      -0.30059103      -0.11730347       0.05881062
Si       2.56725222       2.21326387       3.25211284      -0.04154366      -0.29967279      -0.12666531
Si       4.15212319       1.58460528       1.52133427      -0.18836050       0.00546318      -0.26844782
Si       5.08808065       3.94690055       3.22554166      -0.07376378      -0.05721967      -0.04676186
Si      11.27384080       8.74528757       7.14694710      -0.14089345      -0.10929316      -0.08931810
8
Lattice="6.757766422456654 1.109175001746349 0.9064556198918052 2.7546384550980214 6.269740280639756 0.9064556198919107 2.754638455098105 2.136814407651249 5.963667425734256" Properties=species:S:1:pos:R:3:forces:R:3 unique_starting_index=452 config_type=initial n_minim_iter=10 energy=-1299.1692665921366 stress="0.002732725053684485 -0.0001471348008213415 -0.00012024357071306399 -0.0001471348008213415 0.0028082667251445033 -9.327474015879266e-05 -0.00012024357071306399 -9.327474015879266e-05 0.002846174104384031" free_energy=-1299.1692665921366 pbc="T T T"
Si      10.20147783       7.84568615       4.85986595       0.23182850       0.34160061       0.46497168
Si       8.66279923       8.30843232       6.72079607       0.56488017       0.09433545       0.24216794
Si      10.13585232       6.34171729       6.80370177       0.38851582       0.48346037       0.04422249
Si       2.77284472       3.62036356       1.33182434      -0.34266055      -0.29950718       0.02362620
Si       2.65191393       2.18198132       3.28264623      -0.12054431      -0.32282619      -0.29821354
Si       4.19612247       1.66071706       1.48459803      -0.37530241      -0.02810930      -0.25697658
Si       5.11217652       3.96559208       3.24081702      -0.15216788      -0.11803891      -0.09646542
Si      11.35089646       8.80506081       7.19579583      -0.19454936      -0.15091486      -0.12333277
8
Lattice="6.753060642308872 1.1145393662218666 0.910839561396376 2.758664269461746 6.263848456496559 0.9108395613964744 2.7586642694618253 2.1399372922966067 5.957020612487175" Properties=species:S:1:pos:R:3:forces:R:3 unique_starting_index=452 config_type=initial n_minim_iter=11 energy=-1299.2353892087158 stress="-0.002223255566024571 0.0027349098320826634 0.002235061540065555 0.0027349098320826634 -0.0036274080851463357 0.0017337708049922395 0.002235061540065555 0.0017337708049922395 -0.004332022121787611" free_energy=-1299.2353892087158 pbc="T T T"
Si      10.22510299       7.88825570       4.87087890      -0.19955862      -0.04564387       0.27894219
Si       8.68733779       8.32652423       6.76032001       0.20634731      -0.25900036      -0.10027636
Si      10.18295925       6.35495870       6.81356082      -0.09383002       0.23712497      -0.23384488
Si       2.72322402       3.61321970       1.35210993      -0.04111284      -0.06636721       0.09648836
Si       2.65745299       2.12932978       3.27160591       0.06856289      -0.06004661      -0.08425206
Si       4.17686494       1.67137929       1.43519946      -0.07450547       0.08991222      -0.04206665
Si       5.09711971       3.95391229       3.23127190      -0.02657910      -0.02061781      -0.01684957
Si      11.34904605       8.80362541       7.19462277       0.16067585       0.12463867       0.10185897
8
Lattice="6.769220118411408 1.1137454112193466 0.9101907143047187 2.7619132536823265 6.279697845569608 0.9101907143048666 2.761913253682445 2.1424575781366197 5.972681784085161" Properties=species:S:1:pos:R:3:forces:R:3 unique_starting_index=452 config_type=initial n_minim_iter=12 energy=-1299.258545640503 stress="0.002546686311252901 0.0014789144923636215 0.0012086193273153532 0.0014789144923636215 0.0017873846793406707 0.0009375441651950055 0.0012086193273153532 0.0009375441651950055 0.0014063615328120875" free_energy=-1299.258545640503 pbc="T T T"
Si      10.22390705       7.91872566       4.88629204      -0.05967909       0.00332571       0.15784387
Si       8.70754752       8.32010150       6.78711047       0.13562715      -0.09643086      -0.02817284
Si      10.21217491       6.36832379       6.80193185      -0.01161776       0.14300712      -0.08888944
Si       2.68496204       3.63753475       1.41453632       0.04456990      -0.14228193      -0.00749758
Si       2.71188399       2.07585425       3.28300282      -0.02347772       0.05204199      -0.13793935
Si       4.19090262       1.72397157       1.38052542      -0.12673128       0.00829411       0.07846800
Si       5.08924585       3.94780441       3.22628033      -0.01263111      -0.00979814      -0.00800738
Si      11.38022502       8.82781141       7.21438839       0.05393991       0.04184200       0.03419471
8
Lattice="6.747868063174142 1.093863090082507 0.8939422037427187 2.737346229671237 6.263960047506275 0.8939422037428648 2.737346229671356 2.123400568762902 5.960494791958483" Properties=species:S:1:pos:R:3:forces:R:3 unique_starting_index=452 config_type=initial n_minim_iter=13 energy=-1299.2661406707357 stress="-0.00047289881870278013 -0.00038716069521817047 -0.0003164009188357592 -0.00038716069521817047 -0.0002741234617214802 -0.00024543693507121943 -0.0003164009188357592 -0.00024543693507121943 -0.00017437654457751545" free_energy=-1299.2661406707357 pbc="T T T"
Si      10.16893154       7.87103832       4.85914059      -0.02627187       0.03914401       0.01137169
Si       8.65890810       8.27582964       6.74578494       0.01181161      -0.03015586       0.03609557
Si      10.15231574       6.33347367       6.76677592       0.03138224       0.00413848      -0.03673973
Si       2.67291387       3.61572805       1.38769619       0.01229609      -0.03992708      -0.00402978
Si       2.67920565       2.07180426       3.26697762      -0.00846876       0.01486879      -0.03832497
Si       4.16678505       1.69642487       1.37974768      -0.03561575       0.00039953       0.02220278
Si       5.06226485       3.92687484       3.20917597       0.01807046       0.01401753       0.01145560
Si      11.32301254       8.78343083       7.17811907      -0.00320402      -0.00248541      -0.00203116
8
Lattice="6.751547619108694 1.0974468771333898 0.8968709966813034 2.7417323753230374 6.2666329462740435 0.8968709966814483 2.741732375323156 2.1268029677984197 5.96253093947351" Properties=species:S:1:pos:R:3:forces:R:3 unique_starting_index=452 config_type=initial n_minim_iter=14 energy=-1299.2664200594782 stress="8.487509701267294e-05 0.00012222540375779047 9.988676674676279e-05 0.00012222540375779047 2.2122321498397497e-05 7.748366261657549e-05 9.988676674676279e-05 7.748366261657549e-05 -9.367453829963063e-06" free_energy=-1299.2664200594782 pbc="T T T"
Si      10.17899201       7.87874448       4.86640854      -0.03162886       0.03358004      -0.01167757
Si       8.66979467       8.28342163       6.75188947      -0.01247183      -0.02945276       0.03523290
Si      10.16228139       6.34215495       6.77300025       0.02466101      -0.01920692      -0.03587893
Si       2.67728731       3.61615671       1.38686320       0.01394355      -0.01366987       0.00189425
Si       2.67958510       2.07622210       3.26756357       0.00262840       0.01372092      -0.01377331
Si       4.16828768       1.69643089       1.38396036      -0.00977354       0.00522258       0.01618885
Si       5.06810388       3.93140427       3.21287757       0.02004198       0.01554687       0.01270543
Si      11.33591922       8.79344273       7.18630114      -0.00740072      -0.00574085      -0.00469162
8
Lattice="6.752469778796136 1.0966721449640116 0.8962378591441857 2.741211266441033 6.267718779574556 0.8962378591443239 2.7412112664411468 2.126398735814741 5.963721104840499" Properties=species:S:1:pos:R:3:forces:R:3 unique_starting_index=452 config_type=initial n_minim_iter=15 energy=-1299.2668458308062 stress="0.00047547535249420895 -2.8698839652103328e-05 -2.3453666482686888e-05 -2.8698839652103328e-05 0.0004902098686487132 -1.8193369487219446e-05 -2.3453666482686888e-05 -1.8193369487219446e-05 0.0004976037374549547" free_energy=-1299.2668458308062 pbc="T T T"
Si      10.17648627       7.88140237       4.86573325      -0.02555850       0.02281426      -0.02047763
Si       8.66904329       8.28102753       6.75462861      -0.02139192      -0.02089571       0.02643512
Si      10.16423276       6.34087828       6.77010865       0.01574272      -0.02612684      -0.02574133
Si       2.67987762       3.61492721       1.38699753      -0.00744436       0.01880124      -0.01522038
Si       2.68011954       2.07875920       3.26633195      -0.01267177      -0.00443278       0.02145558
Si       4.16774087       1.69712302       1.38669191       0.01635975      -0.01728234      -0.00861652
Si       5.07026411       3.93307999       3.21424704       0.01045617       0.00811101       0.00662860
Si      11.33194769       8.79036195       7.18378342       0.02450792       0.01901116       0.01553657
8
Lattice="6.751115766428498 1.0974511794898243 0.896874512713643 2.7416291637094172 6.266213586511456 0.8968745127137797 2.74162916370953 2.1267229050001206 5.96211927830059" Properties=species:S:1:pos:R:3:forces:R:3 unique_starting_index=452 config_type=initial n_minim_iter=16 energy=-1299.2672346903605 stress="-0.00017985017165682467 0.00010536794651171457 8.611026898544194e-05 0.00010536794651171457 -0.00023394799966713686 6.679703560069113e-05 8.611026898544194e-05 6.679703560069113e-05 -0.00026109466662698616" free_energy=-1299.2672346903605 pbc="T T T"
Si      10.17199822       7.88493205       4.86505588      -0.01140907       0.01111445       0.01150119
Si       8.66796520       8.27667071       6.75822249       0.01022379      -0.01440354       0.00860158
Si      10.16653565       6.33917406       6.76512343       0.00792856       0.00851996      -0.01582793
Si       2.67852400       3.61382912       1.38898490      -0.01578823       0.03782900      -0.02943766
Si       2.68145757       2.07701820       3.26486010      -0.02457137      -0.00999246       0.04293339
Si       4.16634069       1.69886387       1.38527888       0.03271525      -0.03376638      -0.01834179
Si       5.07093998       3.93360428       3.21467550       0.01148227       0.00890697       0.00727908
Si      11.33362383       8.79166216       7.18484600      -0.01058120      -0.00820799      -0.00670785
8
Lattice="6.749849100410246 1.0948130870326902 0.8947185736329831 2.738758970056148 6.265642654810737 0.8947185736331119 2.7387589700562547 2.1244964526903085 5.961989099813376" Properties=species:S:1:pos:R:3:forces:R:3 unique_starting_index=452 config_type=initial n_minim_iter=17 energy=-1299.2675713250642 stress="-5.221507632704455e-05 -0.00015549511686099155 -0.00012707591896214785 -0.00015549511686099155 2.7618955101496185e-05 -9.857469132660597e-05 -0.00012707591896214785 -9.857469132660597e-05 6.768025395792166e-05" free_energy=-1299.2675713250642 pbc="T T T"
Si      10.16479445       7.88518493       4.86112984      -0.01257981      -0.01044449       0.00914536
Si       8.66249620       8.27063731       6.75925211       0.00353828      -0.01389601      -0.01205646
Si      10.16498939       6.33392467       6.75900583      -0.01324440       0.00705296      -0.01121687
Si       2.67554288       3.61280177       1.38369615      -0.00203621       0.01372360      -0.00421861
Si       2.67549810       2.07547028       3.26490648      -0.00186358      -0.00162383       0.01428881
Si       4.16460436       1.69315691       1.38375271       0.01278630      -0.00520637      -0.00443668
Si       5.07012255       3.93297018       3.21415729       0.01742857       0.01351961       0.01104868
Si      11.32787264       8.78720088       7.18120009      -0.00402914      -0.00312547      -0.00255424
8
Lattice="6.750472131921914 1.0957103351460773 0.895451835375755 2.739782954245299 6.2660230215047035 0.8954518353758812 2.7397829542454044 2.1252907725998935 5.962215832004585" Properties=species:S:1:pos:R:3:forces:R:3 unique_starting_index=452 config_type=initial n_minim_iter=18 energy=-1299.2676426554785 stress="1.940722899092556e-05 -4.528607672986114e-05 -3.700933490689543e-05 -4.528607672986114e-05 4.265793462909477e-05 -2.8708689693069207e-05 -3.700933490689543e-05 -2.8708689693069207e-05 5.432531104566235e-05" free_energy=-1299.2676426554785 pbc="T T T"
Si      10.16582846       7.88660131       4.86269572      -0.00129778      -0.00428607       0.00265314
Si       8.66451282       8.27118716       6.76032830       0.00136897      -0.00169129      -0.00472856
Si      10.16661839       6.33558850       6.75933036      -0.00447415       0.00256191      -0.00071580
Si       2.67718098       3.61351208       1.38330103      -0.00485791       0.00111924      -0.00012837
Si       2.67566738       2.07711804       3.26568126      -0.00111388      -0.00472948       0.00112239
Si       4.16569967       1.69305049       1.38521319      -0.00012382      -0.00111821      -0.00485827
Si       5.07216094       3.93455139       3.21544951       0.01346468       0.01044476       0.00853581
Si      11.33024583       8.78904180       7.18270455      -0.00296610      -0.00230085      -0.00188033
8
Lattice="6.750581570400141 1.0960123580098504 0.8956986587550901 2.740102703378508 6.266053925914927 0.8956986587552153 2.7401027033786134 2.125538806803226 5.962196966768434" Properties=species:S:1:pos:R:3:forces:R:3 unique_starting_index=452 config_type=initial n_minim_iter=19 energy=-1299.2676543194434 stress="1.3830324710570626e-05 6.304773747809277e-06 5.152478986304155e-06 6.304773747809277e-06 1.0593326161737055e-05 3.996860482433563e-06 5.152478986304155e-06 3.996860482433563e-06 8.968992903477586e-06" free_energy=-1299.2676543194434 pbc="T T T"
Si      10.16607788       7.88705614       4.86320222       0.00145713      -0.00309027      -0.00087198
Si       8.66514333       8.27128281       6.76067316      -0.00106142       0.00177685      -0.00285474
Si      10.16712095       6.33611044       6.75935543      -0.00263090      -0.00042046       0.00230974
Si       2.67746914       3.61369802       1.38328260      -0.00468896      -0.00295681       0.00140545
Si       2.67575740       2.07739243       3.26586714      -0.00040215      -0.00473776      -0.00317746
Si       4.16595142       1.69307881       1.38544507      -0.00402984       0.00061931      -0.00401013
Si       5.07293132       3.93514899       3.21593789       0.01211686       0.00939923       0.00768137
Si      11.33082605       8.78949189       7.18307237      -0.00076071      -0.00059009      -0.00048224
8
Lattice="6.750591663550972 1.0964867302427443 0.8960863319137513 2.7405646871959455 6.2659457508740575 0.8960863319138683 2.740564687196045 2.1258971745866213 5.962013759647291" Properties=species:S:1:pos:R:3:forces:R:3 unique_starting_index=452 config_type=initial n_minim_iter=20 energy=-1299.267678698061 stress="-2.8815850169863113e-05 0.00012471011141262792 0.00010191734874997797 0.00012471011141262792 -9.28442861563754e-05 7.905880841190678e-05 0.00010191734874997797 7.905880841190678e-05 -0.0001249742226416431" free_energy=-1299.267678698061 pbc="T T T"
Si      10.16601656       7.88759844       4.86393811       0.00697705      -0.00081074      -0.00980507
Si       8.66593119       8.27101725       6.76105806      -0.00772848       0.00918724       0.00115802
Si      10.16763098       6.33679292       6.75901853       0.00094955      -0.00822283       0.00877265
Si       2.67743793       3.61379165       1.38307793      -0.00347293      -0.01160560       0.00469004
Si       2.67557343       2.07740744       3.26599965       0.00134976      -0.00393203      -0.01230711
Si       4.16603435       1.69286758       1.38543339      -0.01210465       0.00450090      -0.00140253
Si       5.07542174       3.93708085       3.21751667       0.00851735       0.00660704       0.00539949
Si      11.33142565       8.78995700       7.18345248       0.00551236       0.00427602       0.00349451
8
Lattice="6.748397897091409 1.0931491105301254 0.8933587153151443 2.736786414815332 6.26465077039436 0.8933587153152158 2.7367864148153926 2.122966311974157 5.961287873224614" Properties=species:S:1:pos:R:3:forces:R:3 unique_starting_index=452 config_type=initial n_minim_iter=21 energy=-1299.26790516316 stress="-5.729232257186565e-05 -3.3279042846214496e-05 -2.719677671771517e-05 -3.3279042846214496e-05 -4.020624559756525e-05 -2.109694761162723e-05 -2.719677671771517e-05 -2.109694761162723e-05 -3.163233067926735e-05" free_energy=-1299.26790516316 pbc="T T T"
Si      10.15879695       7.88043387       4.85749749      -0.00334376      -0.00288904       0.00049738
Si       8.65664075       8.26594850       6.75531952      -0.00091654      -0.00321690      -0.00293023
Si      10.15889629       6.32944352       6.75519403      -0.00362973      -0.00001447      -0.00256897
Si       2.66893372       3.60914132       1.37938676       0.00299595       0.00306528       0.00149279
Si       2.66905829       2.07029998       3.26217749       0.00275311       0.00238634       0.00270663
Si       4.15941552       1.68784031       1.37922940       0.00371394       0.00188897       0.00179957
Si       5.08639941       3.94559639       3.22447586      -0.00051650      -0.00040066      -0.00032743
Si      11.32354796       8.78384617       7.17845850      -0.00105648      -0.00081952      -0.00066974
