18
Lattice="5.894797661530963 0.5589532921740907 0.39745320450726945 1.0385666287484383 5.6104036593124205 1.3585607858129423 -0.6951714116234039 2.588676540044509 11.966444391119378" Properties=species:S:1:pos:R:3:forces:R:3 unique_starting_index=392 config_type=initial n_minim_iter=1 energy=-2929.8517870897363 stress="-0.0008962608772229248 -0.0025041604395648147 -0.00037005999772468906 -0.0025041604395648147 -0.0009069076874006344 0.0008763577321466372 -0.00037005999772468906 0.0008763577321466372 -0.0008052400364911327" free_energy=-2929.8517870897363 pbc="T T T"
Si       3.27868442       4.13006014       9.28082329      -0.03528943       0.04981443       0.12658677
Si       4.10431115       4.20412796       7.03413571       0.12916482      -0.12263624      -0.01284992
Si       6.71247896       5.57242450       4.65992660       0.13352910       0.07010937       0.05279329
Si       5.45212470       6.64968505       9.23953271       0.14142007       0.05601158       0.08486719
Si       2.07846746       3.86293324       2.54540134      -0.02135280      -0.14087137       0.17949836
Si       4.02074712       4.38743395       1.25239436      -0.09119818       0.00760631      -0.02524946
Si       1.53527069       2.55553958       9.77397229      -0.11330765      -0.03102098      -0.08036129
Si       5.11132213       3.72102623      10.76796812      -0.02275898      -0.01957025      -0.10214169
Si       1.80992898       4.12933236       6.24633913      -0.06497614      -0.02044630       0.11599901
Si       3.08736536       6.51484225       9.33506346      -0.18468783      -0.07645833      -0.01515605
Si       0.21426601       4.03637105       8.02063629       0.21234507       0.01254975      -0.13291897
Si       6.70916776       6.96132904      11.17616502       0.10385900       0.11643472      -0.14765971
Si       4.81352484       4.43003673       3.68396627      -0.02188155      -0.07211933      -0.02256671
Si       4.62780134       2.02419202       3.87270333       0.19329971       0.10367631      -0.14350867
Si       0.46504520       4.08976142       0.87765820      -0.24050929      -0.05431330       0.05368826
Si       1.55531387       1.84394951       5.78981223       0.10362874      -0.24454058       0.09049933
Si       5.12961419       2.30699188       6.10428130      -0.17445091       0.16751168       0.06581351
Si       2.33220756       1.61028821       3.51286705      -0.04683377       0.19826253      -0.08733326
18
Lattice="5.907697956183981 0.587014216436192 0.4012139338229014 1.067684117796301 5.622687155067164 1.3521009066480676 -0.675880755976777 2.570147150344857 11.979824205471584" Properties=species:S:1:pos:R:3:forces:R:3 unique_starting_index=392 config_type=initial n_minim_iter=2 energy=-2929.8593072306194 stress="0.002314746457313611 -0.00010779257849568288 0.00013223700945838292 -0.00010779257849568288 0.0008069827703344938 -0.000369554751728846 0.00013223700945838292 -0.000369554751728846 0.0015653399644549183" free_energy=-2929.8593072306194 pbc="T T T"
Si       3.30993359       4.13755974       9.29099062      -0.04520884       0.01690126       0.12363310
Si       4.13658498       4.21846973       7.04064375       0.08266370      -0.08332717       0.03343394
Si       6.75400120       5.60628271       4.66272311       0.09195590      -0.00975621       0.07510916
Si       5.49979136       6.67184714       9.24678225       0.12260801       0.10812710       0.06366912
Si       2.10182991       3.87444225       2.54524796      -0.01624981      -0.12309497       0.12672197
Si       4.04862523       4.41187143       1.24972190      -0.07769724       0.01223918      -0.01570483
Si       1.55609283       2.55090508       9.78522137      -0.09383706       0.00178140      -0.09108965
Si       5.14484247       3.73365433      10.78116797      -0.03992837      -0.07714946      -0.10221476
Si       1.83643248       4.13455292       6.25084252      -0.06608711      -0.06624498       0.10165852
Si       3.12879406       6.52480117       9.34053526      -0.15149059      -0.05026308       0.00001002
Si       0.24026316       4.03117426       8.02561202       0.20148707      -0.00971231      -0.16011506
Si       6.76158275       6.98706475      11.18552257       0.06861195       0.13751004      -0.14907727
Si       4.84498034       4.45387385       3.68546925       0.00645820      -0.04126807      -0.00900570
Si       4.64884152       2.04361372       3.87770918       0.14040222       0.14305506      -0.11272056
Si       0.48447472       4.09724395       0.87284879      -0.20507236      -0.02920357       0.03620002
Si       1.57116013       1.84366584       5.79708325       0.07251102      -0.20702552       0.09227366
Si       5.15251486       2.32590187       6.11360977      -0.12909599       0.08699554       0.07077932
Si       2.34594070       1.61925729       3.51670456       0.03796929       0.19043575      -0.08356100
18
Lattice="5.894556178193897 0.5994598744511457 0.4011734879129106 1.077414785151346 5.622619993019382 1.3490787401922029 -0.6672437028903885 2.565352124246818 11.96129647169941" Properties=species:S:1:pos:R:3:forces:R:3 unique_starting_index=392 config_type=initial n_minim_iter=3 energy=-2929.862554270082 stress="-0.0007865773583255219 0.0009782702073878476 0.00012017689121684984 0.0009782702073878476 -0.0007145194894737358 -0.0006205390022771473 0.00012017689121684984 -0.0006205390022771473 -0.0009747041365414827" free_energy=-2929.862554270082 pbc="T T T"
Si       3.31165225       4.14147708       9.27736519      -0.06629505       0.01028508       0.13323099
Si       4.13701209       4.22384954       7.02983296       0.06120784      -0.03516986       0.03866504
Si       6.75079845       5.61795366       4.65579171       0.07338870      -0.02035350       0.07163362
Si       5.50264365       6.67991159       9.23265703       0.10990181       0.11315522       0.05818602
Si       2.10526852       3.87625739       2.54176668      -0.00621354      -0.12455779       0.11167329
Si       4.04793837       4.41876557       1.24732222      -0.08128815       0.00576606      -0.03399989
Si       1.55837199       2.55130233       9.76972756      -0.06216312       0.01830835      -0.09063373
Si       5.14141005       3.74089073      10.76427161      -0.05332969      -0.07690414      -0.05704472
Si       1.84124662       4.13543385       6.24149800      -0.05181921      -0.07559919       0.08846008
Si       3.13541239       6.52689707       9.32557484      -0.16317158      -0.05398065       0.01829624
Si       0.25056159       4.02859940       8.01194017       0.19112811      -0.01604741      -0.15236141
Si       6.76197770       6.99759006      11.16728341       0.08233229       0.11504168      -0.13782366
Si       4.84318036       4.46162005       3.67953742       0.00390175      -0.01897987       0.00113217
Si       4.64329323       2.05287555       3.87129888       0.13949136       0.15270682      -0.12664434
Si       0.49098896       4.09634461       0.87103082      -0.19789088      -0.01149584       0.03367570
Si       1.57247440       1.84392060       5.78875769       0.09513662      -0.19457044       0.08372225
Si       5.14481449       2.33561281       6.10498461      -0.11662082       0.04325162       0.06542570
Si       2.34417077       1.62415415       3.51088332       0.04230355       0.16914386      -0.10559337
18
Lattice="5.882550142006514 0.6041089370465911 0.4013356215012095 1.0766970819159827 5.64274762851737 1.3662244689377046 -0.6689034223342385 2.6058297960651866 11.9851481282799" Properties=species:S:1:pos:R:3:forces:R:3 unique_starting_index=392 config_type=initial n_minim_iter=4 energy=-2929.8725091636593 stress="-0.001242504649894079 0.0009532820652405565 -0.00045232503723128566 0.0009532820652405565 0.0014461161199087241 0.0014825806387573574 -0.00045232503723128566 0.0014825806387573574 0.0004445817067035681" free_energy=-2929.8725091636593 pbc="T T T"
Si       3.30170089       4.18075341       9.30429686      -0.06777937       0.03376045       0.06572111
Si       4.13002957       4.25483237       7.05063545       0.04499326      -0.02660774       0.06987335
Si       6.74001877       5.64908006       4.67752561       0.03582272       0.00063224       0.03409820
Si       5.49418259       6.72941716       9.26396461       0.06964747      -0.03080215       0.01030026
Si       2.10105510       3.89130481       2.55912261      -0.03778819      -0.06886528       0.09254609
Si       4.03836140       4.43630694       1.25915698      -0.11695533       0.00257349      -0.02565689
Si       1.55046878       2.58639496       9.78713794      -0.05813237       0.02830031      -0.09562243
Si       5.12735179       3.78121487      10.78537260      -0.04261825      -0.09963933      -0.01445330
Si       1.83511534       4.16335632       6.26383958       0.00366607      -0.15381022       0.02343027
Si       3.12339137       6.57075590       9.35567853      -0.13006425      -0.09183966       0.05537151
Si       0.25459603       4.06233377       8.02968572       0.10652872       0.08817837      -0.07162887
Si       6.74930520       7.05441805      11.19559421       0.07942124       0.12413317      -0.04749551
Si       4.83356812       4.48503821       3.69514794       0.03028430      -0.00887690       0.00075481
Si       4.63764011       2.07514335       3.87705400       0.17215276       0.10976409      -0.06108569
Si       0.48502170       4.10978921       0.88458641      -0.09957224      -0.00050909      -0.01008396
Si       1.57053514       1.85972486       5.80389371       0.08769338      -0.08517112       0.03291477
Si       5.12926553       2.36322376       6.12006578      -0.09200778       0.06013420      -0.01693861
Si       2.33953770       1.64465371       3.51663609       0.01470786       0.11864517      -0.04204511
18
Lattice="5.888367438430113 0.5857672934741234 0.40849362096317215 1.0644840609962225 5.624300547826254 1.3540634064238843 -0.6592038012989576 2.5744534788003177 11.971289375657385" Properties=species:S:1:pos:R:3:forces:R:3 unique_starting_index=392 config_type=initial n_minim_iter=5 energy=-2929.885132293525 stress="0.0004371720028597016 0.0001652936168118026 0.0011566273052505578 0.0001652936168118026 -0.0011501538664294192 0.0004839567689180895 0.0011566273052505578 0.0004839567689180895 -0.00038949260466065164" free_energy=-2929.885132293525 pbc="T T T"
Si       3.30460275       4.14249027       9.30093322      -0.02954034       0.00079687       0.02828979
Si       4.13780845       4.21458954       7.04502283      -0.03580578       0.08199649       0.14212434
Si       6.74390082       5.60761726       4.67548400       0.03023340       0.01143728       0.08348839
Si       5.50214332       6.68268097       9.25449336      -0.07653351      -0.10818652      -0.03583636
Si       2.09554373       3.86447318       2.55890291      -0.07720873       0.02850003      -0.06293968
Si       4.02766389       4.41301148       1.25274493      -0.16212752       0.01867614      -0.04941232
Si       1.55510745       2.55446665       9.77269857      -0.04256801       0.04276463      -0.03605286
Si       5.13634393       3.72995980      10.77424843      -0.04950995      -0.08062645       0.01068740
Si       1.83234585       4.13018386       6.25820149       0.13450515      -0.08836626      -0.08398352
Si       3.11376460       6.52255921       9.34073828       0.00917640      -0.06207617       0.05883359
Si       0.26588026       4.03507767       8.00837558      -0.00322999       0.11536682       0.04681767
Si       6.75903602       7.00196745      11.17587182       0.02554423       0.09021820       0.03095862
Si       4.83267277       4.45170300       3.68961576       0.04731070       0.05114839       0.00877912
Si       4.65200989       2.05681661       3.87052199       0.12035520       0.01185631      -0.03400574
Si       0.46490223       4.09612043       0.87697251       0.01613642      -0.00633857       0.02946824
Si       1.58081460       1.82748318       5.80309327      -0.03195814      -0.07626792      -0.03125357
Si       5.13071455       2.33439722       6.12164393       0.06567139      -0.03173348      -0.12792598
Si       2.34424644       1.63636684       3.50948192       0.05954909       0.00083420       0.02196286
18
Lattice="5.881839895959415 0.5813131363457279 0.3960168380568402 1.0565113711766168 5.629373953378408 1.3425959466092352 -0.684145445164703 2.557976670736308 11.971139345586568" Properties=species:S:1:pos:R:3:forces:R:3 unique_starting_index=392 config_type=initial n_minim_iter=6 energy=-2929.887539318044 stress="-0.00033745142560297084 -0.00016596686960113503 -0.00030358903588486783 -0.00016596686960113503 0.00019237546676372769 -0.0005470791980657065 -0.00030358903588486783 -0.0005470791980657065 -3.2704427080300586e-05" free_energy=-2929.887539318044 pbc="T T T"
Si       3.27933701       4.13012248       9.29112013      -0.04680415       0.00725409       0.00101777
Si       4.11767273       4.20503911       7.03258596      -0.03478177       0.07064410       0.15443179
Si       6.72543361       5.60255062       4.65490187       0.04578030       0.02551245       0.09695143
Si       5.47472187       6.67236917       9.23489252      -0.08191135      -0.11433654      -0.12411988
Si       2.08499184       3.86285913       2.54986254      -0.05328765       0.03190869      -0.05255128
Si       4.01623636       4.41433925       1.23695032      -0.18532719       0.01988421      -0.04518055
Si       1.53136576       2.54036792       9.76641326      -0.05206626       0.05477349      -0.02890264
Si       5.10689565       3.71140859      10.75967825      -0.01750191      -0.11778763       0.03718972
Si       1.81538275       4.12249434       6.24955329       0.11536950      -0.09516272      -0.08033243
Si       3.08576584       6.51235863       9.32621229       0.01991718      -0.07002994       0.05244802
Si       0.24886031       4.02772275       8.00156927       0.01296085       0.14171713       0.05756495
Si       6.72669873       6.98955048      11.15201809       0.02187338       0.11144494       0.11075755
Si       4.81797799       4.44796397       3.67333878       0.03496078       0.02326451      -0.00106832
Si       4.64114594       2.05114628       3.85730500       0.12789466       0.00551744      -0.04702090
Si       0.45750163       4.09994376       0.86969109       0.04109431       0.01808123      -0.03141394
Si       1.56741823       1.81629476       5.79902272      -0.02164614      -0.05922152      -0.04634894
Si       5.11117935       2.32395280       6.10893637       0.04437868      -0.05585732      -0.07950655
Si       2.33456319       1.63286141       3.50207542       0.02909678       0.00239340       0.02608420
18
Lattice="5.88595843551351 0.5843835322470242 0.38197611497576756 1.0555197528278513 5.638285093070685 1.3508807987029063 -0.7145574396664265 2.5846345411863165 11.974761629987471" Properties=species:S:1:pos:R:3:forces:R:3 unique_starting_index=392 config_type=initial n_minim_iter=7 energy=-2929.897876651389 stress="0.0019366641557286089 0.00023997077692951928 -0.0017482127887800223 0.00023997077692951928 -0.00020109167402431128 0.0014467145524934524 -0.0017482127887800223 0.0014467145524934524 -2.9367789516536626e-05" free_energy=-2929.897876651389 pbc="T T T"
Si       3.25355792       4.15576266       9.29517900      -0.04297299      -0.02590709      -0.02784187
Si       4.10569878       4.22704803       7.04176307       0.00716551      -0.01393266       0.07859904
Si       6.72802294       5.62146686       4.65780091       0.02186551       0.00925963      -0.04856871
Si       5.45738572       6.69469698       9.22735413      -0.11521436      -0.04756636      -0.07733477
Si       2.07570011       3.86890458       2.55393351      -0.08013447       0.12110218      -0.04242911
Si       3.99966989       4.42432743       1.23044546      -0.03917144       0.02422040       0.03949580
Si       1.50063902       2.56738427       9.75779242      -0.01719863       0.07817628      -0.02772243
Si       5.08042915       3.72651810      10.74967170      -0.02566986      -0.08323893       0.07218412
Si       1.80867893       4.12857847       6.24971081       0.09354348      -0.12931133      -0.01422414
Si       3.05934321       6.53022557       9.33384468       0.09523934      -0.01227708       0.07170616
Si       0.23980336       4.05916383       8.00385756       0.03890692       0.06495546       0.00385663
Si       6.71194287       7.03587407      11.14572611      -0.07548550       0.04433298       0.09717158
Si       4.81717375       4.46214212       3.66876134       0.07541030       0.07804496      -0.02926284
Si       4.65348288       2.07013296       3.83942830       0.01594247      -0.06458355      -0.04496399
Si       0.44959610       4.10571219       0.87708715      -0.04602725      -0.01136818      -0.06006684
Si       1.55708496       1.81593571       5.79796640      -0.06008390       0.02682463      -0.07371587
Si       5.09783500       2.34084154       6.09422351       0.06860887       0.02459125      -0.00658110
Si       2.33208272       1.65144871       3.49599781       0.08527599      -0.08332260       0.08969833
18
Lattice="5.868637583908051 0.5812425738302708 0.3954796301078068 1.0512638002097494 5.652298052828077 1.3508552173929518 -0.6873930102135702 2.5825692813678125 11.991177819092927" Properties=species:S:1:pos:R:3:forces:R:3 unique_starting_index=392 config_type=initial n_minim_iter=8 energy=-2929.9033599291943 stress="5.859348960598728e-05 -0.0003213176308436167 -5.405616914412042e-06 -0.0003213176308436167 0.0010647259539670972 0.0008198884889805224 -5.405616914412042e-06 0.0008198884889805224 0.0015989375097300571" free_energy=-2929.9033599291943 pbc="T T T"
Si       3.25837022       4.15791163       9.31781652      -0.01492081      -0.02315538      -0.01589331
Si       4.10654238       4.23138843       7.06670779       0.04753479      -0.06176923       0.03408324
Si       6.71779283       5.62930279       4.68111660       0.02049420      -0.00892723      -0.02575403
Si       5.45559960       6.69891328       9.24677783      -0.03316213       0.00786406      -0.00854863
Si       2.06905939       3.87525130       2.56025709      -0.09942243       0.09487940      -0.02239579
Si       3.97780521       4.43381444       1.23567172       0.02001549       0.05973202       0.00116527
Si       1.51225236       2.56810938       9.77189438       0.00447346       0.09017641       0.00371068
Si       5.08421287       3.71774885      10.77613944      -0.06028925      -0.04788822       0.06835726
Si       1.81837271       4.12728068       6.25967603       0.09649418      -0.13468318      -0.07541510
Si       3.06371545       6.53426373       9.35405098       0.06054008       0.00803631       0.02910630
Si       0.25907053       4.06983359       8.01333457       0.01609457       0.02473520       0.02388777
Si       6.71406684       7.04891427      11.17477495      -0.14494639      -0.01561452      -0.01946469
Si       4.80975707       4.46904823       3.68191387       0.07305205       0.05002597      -0.01994678
Si       4.65533495       2.07254281       3.84999841       0.02066086      -0.05419067      -0.01256612
Si       0.44369683       4.11604513       0.87602166      -0.07088164      -0.01427458      -0.00228391
Si       1.56484068       1.80815243       5.80958011      -0.00792936       0.07107774      -0.04381347
Si       5.09384054       2.33869381       6.11157353      -0.00405223       0.04220406       0.01250458
Si       2.33428715       1.65520641       3.50526650       0.07624457      -0.08822815       0.07326675
18
Lattice="5.874468138194394 0.5830606539573479 0.3949838277542919 1.0543172448019307 5.655092677061914 1.3408427239961604 -0.6847127844131333 2.5702892798003476 11.95541198329444" Properties=species:S:1:pos:R:3:forces:R:3 unique_starting_index=392 config_type=initial n_minim_iter=9 energy=-2929.906843871208 stress="0.00023989040921689137 -0.0001333011215933911 0.00022421288262227965 -0.0001333011215933911 0.0008740540423019413 3.083304437116707e-05 0.00022421288262227965 3.083304437116707e-05 -0.0006224557971436351" free_energy=-2929.906843871208 pbc="T T T"
Si       3.26341761       4.15070770       9.28872093      -0.01990243      -0.01846999       0.02930031
Si       4.11341568       4.22799401       7.04703470       0.06603320      -0.07414793      -0.01803976
Si       6.72828465       5.63020123       4.66479631       0.01508654      -0.01024611      -0.02132690
Si       5.46279160       6.69320978       9.21307632      -0.03243319       0.04157663       0.00992392
Si       2.07009552       3.87759236       2.54796854      -0.07698888       0.04857564      -0.01859053
Si       3.97996264       4.43810941       1.22711552       0.05306777       0.05963838       0.00060430
Si       1.51557480       2.56166256       9.74185013       0.00407837       0.09267788       0.01112865
Si       5.09081946       3.70641889      10.74521427      -0.06049188      -0.03446211       0.06457112
Si       1.82638063       4.11952139       6.23595104       0.07739214      -0.11597444      -0.04380116
Si       3.07162560       6.52782367       9.32330946       0.05557094       0.01856159       0.02254269
Si       0.26343467       4.06627658       7.98768702       0.03943936      -0.01503056       0.00543534
Si       6.72337203       7.04517987      11.13873097      -0.14075193      -0.03063737      -0.06200357
Si       4.81841817       4.47106468       3.66741648       0.06491002       0.04291833      -0.00780699
Si       4.66410883       2.07069294       3.83646798      -0.01028592      -0.04319264      -0.06581398
Si       0.44437257       4.11803195       0.86870644      -0.11813803      -0.01285451       0.01734560
Si       1.56760642       1.80233729       5.79068411      -0.02041840       0.05625089      -0.00845278
Si       5.10151485       2.33459572       6.09206946       0.00264040       0.05284833       0.06246563
Si       2.33999946       1.65203450       3.49563665       0.10119191      -0.05803202       0.02251811
18
Lattice="5.873360813384091 0.5854476550470461 0.3912337989004571 1.0572465346818367 5.640485453747625 1.3359227770842967 -0.6900032609788943 2.551317067560874 11.965137183303955" Properties=species:S:1:pos:R:3:forces:R:3 unique_starting_index=392 config_type=initial n_minim_iter=10 energy=-2929.909429854118 stress="-0.0005713738634654451 0.0002457247325786408 -1.7035255261823996e-05 0.0002457247325786408 -0.0014673635511729564 -0.0007208381383563309 -1.7035255261823996e-05 -0.0007208381383563309 -0.0001608563783623542" free_energy=-2929.909429854118 pbc="T T T"
Si       3.25829910       4.13283375       9.29280350       0.00564285      -0.03212992       0.02903138
Si       4.11214186       4.21306488       7.05100760       0.05377925      -0.05567782      -0.01151786
Si       6.72967761       5.61650519       4.66132028       0.04108741      -0.03776556      -0.02079802
Si       5.45839910       6.67011858       9.21035738      -0.01266905       0.14017017       0.03144947
Si       2.06726023       3.86907151       2.54405694      -0.04082066       0.03083720      -0.02263123
Si       3.97830881       4.43069920       1.22050303       0.05132893       0.05919740       0.02333003
Si       1.50998452       2.55017065       9.74713890      -0.00589140       0.05662097       0.01429665
Si       5.08342135       3.68624613      10.75132557      -0.07517304      -0.00544022       0.05034637
Si       1.82965100       4.09882408       6.23427179       0.02628166      -0.04255704       0.00779939
Si       3.07119831       6.50315845       9.32621710       0.02158670       0.06753244      -0.00032976
Si       0.26331791       4.05112404       7.99212367       0.10263403      -0.08774115      -0.06771021
Si       6.71726746       7.02343031      11.13909015      -0.14604382      -0.04609167      -0.06145292
Si       4.82094722       4.46176365       3.66329594       0.04965339       0.05024654      -0.01918265
Si       4.66547646       2.06452099       3.83271119      -0.03190609      -0.01315596      -0.03123412
Si       0.44389132       4.10703430       0.86518363      -0.13425957      -0.02376435       0.02200252
Si       1.56438843       1.79239058       5.79237755       0.00621890      -0.02091211       0.00193781
Si       5.09910722       2.32664774       6.09206495      -0.00504966       0.01030406       0.05002880
Si       2.34193736       1.64481946       3.49744054       0.09360019      -0.04967299       0.00463435
18
Lattice="5.882890025103145 0.5915765686040112 0.3935670771997807 1.0638112228302474 5.660023148524411 1.3304734149936406 -0.6811844896928342 2.5573472532706725 11.919363039060224" Properties=species:S:1:pos:R:3:forces:R:3 unique_starting_index=392 config_type=initial n_minim_iter=11 energy=-2929.9168689122603 stress="5.857461731921552e-05 0.0001862702655835381 0.00021435089268182219 0.0001862702655835381 -0.0001627373490071387 -0.0007202001623344323 0.00021435089268182219 -0.0007202001623344323 -0.002192805799140617" free_energy=-2929.9168689122603 pbc="T T T"
Si       3.26587715       4.14542916       9.26627887       0.04587690       0.04869192       0.05197090
Si       4.13325760       4.22394119       7.03881131       0.04662731      -0.02287060      -0.07457691
Si       6.75623519       5.63871759       4.65285864       0.02211147      -0.02167734      -0.00232465
Si       5.47256710       6.69790669       9.17450609      -0.01951913       0.04452045       0.00202567
Si       2.06119150       3.88830523       2.53333934       0.04114236      -0.08226472      -0.06086376
Si       3.97747838       4.45711023       1.21487238      -0.01064159       0.05000826       0.04717499
Si       1.51425882       2.57208727       9.70623976      -0.06775497      -0.00373257       0.02893978
Si       5.08934886       3.68600057      10.72081301      -0.05039284       0.02158370       0.04012842
Si       1.85399989       4.09098136       6.20522800       0.01444690       0.03345588       0.03140958
Si       3.08769307       6.52227287       9.29889743      -0.01570043       0.06302603      -0.01067879
Si       0.28670585       4.07032202       7.95788601       0.06630302      -0.06151121      -0.03673302
Si       6.72737527       7.05870738      11.09637698      -0.07403429      -0.04814141      -0.03428694
Si       4.84467584       4.48713180       3.64964316       0.03033053       0.01739421       0.01228126
Si       4.69026218       2.07546570       3.80876312      -0.04690429       0.02010309      -0.00529347
Si       0.42952323       4.11856654       0.86271577      -0.08179181      -0.02166612       0.04981323
Si       1.57232063       1.79074415       5.76921499      -0.03104135      -0.04710724       0.05607621
Si       5.11147866       2.34120410       6.07285270       0.05481682       0.00204246      -0.01983107
Si       2.36388455       1.65012529       3.48834866       0.07612539       0.00814521      -0.07523145
18
Lattice="5.879578446884576 0.5919785871484844 0.3953297397787371 1.06330807335127 5.658691298961502 1.3428554563493673 -0.6813536246479925 2.573108547817247 11.961186335198997" Properties=species:S:1:pos:R:3:forces:R:3 unique_starting_index=392 config_type=initial n_minim_iter=12 energy=-2929.920762921923 stress="-2.3828986905170995e-05 -8.343885690930646e-05 -0.00013470064041031494 -8.343885690930646e-05 0.00025395002080735185 0.00034797048795984627 -0.00013470064041031494 0.00034797048795984627 0.0007603795482479792" free_energy=-2929.920762921923 pbc="T T T"
Si       3.26337343       4.15724538       9.30506840       0.06700913       0.06325179      -0.01076693
Si       4.13503795       4.22819939       7.06819370       0.00938583       0.01834046      -0.01262210
Si       6.75609603       5.64119063       4.67627633       0.03303606      -0.01834361      -0.00573074
Si       5.46852517       6.71125047       9.21330306      -0.00862323      -0.02176866      -0.04041951
Si       2.05684623       3.88899612       2.54577638       0.04195437      -0.06863292      -0.06818207
Si       3.97283471       4.46076237       1.22599961      -0.08352561       0.04886229       0.05327342
Si       1.50905659       2.58851943       9.74004632      -0.08785529      -0.04308319       0.01807400
Si       5.08073460       3.69623736      10.76299621      -0.03733345       0.01882209       0.03297104
Si       1.85653799       4.09180593       6.23058752       0.02143870       0.05929709       0.00747350
Si       3.08473663       6.53339856       9.33922432      -0.03665007       0.05250026      -0.01066306
Si       0.29355582       4.07878083       7.98578511       0.02599863      -0.00148282      -0.01520149
Si       6.71645189       7.07169178      11.13828044      -0.04592574      -0.02369203       0.04482441
Si       4.84613458       4.49254219       3.66679129       0.02876295       0.01304239       0.00933331
Si       4.69026951       2.08116633       3.82054256      -0.00297204       0.02187116       0.08150223
Si       0.42020395       4.11557859       0.87328957       0.01000904      -0.02335801       0.03909535
Si       1.57138319       1.79437263       5.79134944      -0.00614945      -0.05239156       0.01268060
Si       5.10817650       2.35114661       6.09552375       0.05825043      -0.03476103      -0.10917214
Si       2.36884526       1.65429151       3.50074756       0.01318973      -0.00847369      -0.02646982
18