10
Lattice="6.3683700000000005 1.8710669004640376e-16 3.6477112621277055e-32 -2.2043266171592704 5.974703391950363 -8.453202534655406e-31 -2.0820216914203646 -2.987351695975181 5.460580982837336" Properties=species:S:1:pos:R:3:forces:R:3 unique_starting_index=198 config_type=initial n_minim_iter=1 energy=-1594.0089672565894 stress="-0.28095761965981986 -0.5653794687996493 0.059433124327597786 -4.538082918629534e-13 4.598723557288709e-12 -0.3854547174620647" pbc="T T T"
Si      -1.63759743       4.33557040       2.74011189      16.46346864      25.08638003       0.62069874
Si      -2.55237405       3.02301948       2.72046908     -17.83703172     -24.12908124      -0.62069874
Si      -0.56672919       1.63913299       2.74011189     -16.46346864     -25.08638003       0.62069874
Si       0.34804743       2.95168391       2.72046908      17.83703172      24.12908124      -0.62069874
Si      -3.75091419       1.63913299       5.45075957     -16.46346864     -25.08638003      -0.62069874
Si      -0.75411588       5.93903561       0.00982140      17.83703172      24.12908125       0.62069874
Si       3.75091419      -1.63913299       5.45075957      16.46346864      25.08638003      -0.62069874
Si       4.91815926       0.03566778       0.00982140     -17.83703172     -24.12908125       0.62069874
Si       2.08202169       2.98735169      -0.00000001      -0.00000000      -0.00000000      -0.00000000
Si       3.18418500      -0.00000000       2.73029049       0.00000000      -0.00000000       0.00000000
10
Lattice="6.405859682465895 0.0514527765279345 -2.835114356614024e-17 -2.169030996220428 6.0276853100580405 -2.8108180060475165e-17 -2.1184143431227325 -3.039569043292987 5.453842179407265" Properties=species:S:1:pos:R:3:forces:R:3 unique_starting_index=198 config_type=initial n_minim_iter=2 energy=-1597.5639924848322 stress="-0.2520393214672744 -0.5048737238383806 0.06609987614031611 9.05801894329477e-12 -3.0271611074583366e-12 -0.3426467179809568" pbc="T T T"
Si      -1.61053250       4.37626147       2.73679236      14.42885998      22.13039088       0.49624409
Si      -2.54478894       3.03576027       2.71704981     -15.76802248     -21.19706743      -0.49624409
Si      -0.55849850       1.65142384       2.73679236     -14.42885998     -22.13039088       0.49624409
Si       0.37575794       2.99192504       2.71704981      15.76802248      21.19706743      -0.49624409
Si      -3.76142834       1.62569745       5.44397090     -14.42885998     -22.13039088      -0.49624409
Si      -0.70875755       6.00576769       0.00987127      15.76802248      21.19706743       0.49624409
Si       3.76142834      -1.62569745       5.44397090      14.42885998      22.13039088      -0.49624409
Si       4.94558624       0.07337039       0.00987127     -15.76802248     -21.19706743       0.49624409
Si       2.11841434       3.03956904      -0.00000001      -0.00000000      -0.00000000      -0.00000000
Si       3.20292984       0.02572639       2.72692108       0.00000000      -0.00000000       0.00000000
10
Lattice="6.78980575018305 0.5760277621492681 2.8925580378707593e-16 -1.809780919779906 6.569472058726339 2.1658835255240145e-16 -2.4900124152015715 -3.572749910437803 5.376057108388841" Properties=species:S:1:pos:R:3:forces:R:3 unique_starting_index=198 config_type=initial n_minim_iter=3 energy=-1617.303281421703 stress="-0.048833798028426884 -0.10351830661156664 0.08014345846079113 -4.435420620320146e-12 2.3018519917572775e-12 -0.07410964335088192" pbc="T T T"
Si      -1.33361264       4.79432790       2.69826116       4.45391472       6.11083380       0.01512636
Si      -2.46956202       3.16443119       2.67779594      -4.19142366      -6.29377580      -0.01512636
Si      -0.47616828       1.77514415       2.69826116      -4.45391472      -6.11083380       0.01512636
Si       0.65978109       3.40504086       2.67779594       4.19142366       6.29377580      -0.01512636
Si      -3.87107116       1.48713027       5.36582449      -4.45391472      -6.11083380      -0.01512636
Si      -0.24510937       6.68977689       0.01023260       4.19142366       6.29377580       0.01512636
Si       3.87107115      -1.48713028       5.36582449       4.45391472       6.11083380      -0.01512636
Si       5.22513419       0.45572293       0.01023260      -4.19142366      -6.29377580       0.01512636
Si       2.49001241       3.57274991      -0.00000001       0.00000000      -0.00000000       0.00000000
Si       3.39490287       0.28801388       2.68802855      -0.00000000       0.00000000      -0.00000000
10
Lattice="6.919995343922449 0.771563323365575 6.960695706551208e-16 -1.6713959650600834 6.75929589897144 6.336708138000102e-16 -2.624299689431182 -3.7654296111685066 5.232168130804455" Properties=species:S:1:pos:R:3:forces:R:3 unique_starting_index=198 config_type=initial n_minim_iter=4 energy=-1619.8230875991947 stress="-0.011430626197372923 -0.03063445029914855 0.08326879663420216 -1.4157484474674648e-12 -7.111879022718221e-12 -0.026025442893990326" pbc="T T T"
Si      -1.22366878       4.94529836       2.62606248       2.53270185       3.05909283       0.04978975
Si      -2.43885722       3.20170689       2.60610564      -1.99333114      -3.43500489      -0.04978975
Si      -0.44772719       1.81399753       2.62606248      -2.53270185      -3.05909283       0.04978975
Si       0.76746125       3.55758900       2.60610564       1.99333114       3.43500488      -0.04978975
Si      -3.90772486       1.42821587       5.22218971      -2.53270185      -3.05909283      -0.04978975
Si      -0.06823673       6.93723695       0.00997841       1.99333114       3.43500488       0.04978975
Si       3.90772486      -1.42821588       5.22218971       2.53270185       3.05909283      -0.04978975
Si       5.31683611       0.59362227       0.00997841      -1.99333114      -3.43500488       0.04978975
Si       2.62429969       3.76542961      -0.00000000       0.00000000       0.00000000       0.00000000
Si       3.45999767       0.38578166       2.61608406      -0.00000000       0.00000000       0.00000000
10
Lattice="6.974671437128212 0.8832268599482367 8.634309273654046e-16 -1.585560414801248 6.849242988319319 4.617269339808134e-16 -2.6945555111634807 -3.866234924133777 5.001414591520451" Properties=species:S:1:pos:R:3:forces:R:3 unique_starting_index=198 config_type=initial n_minim_iter=5 energy=-1621.318634288506 stress="0.006543050406688844 -0.002737316974776558 0.08368307242518952 -7.82771111345683e-12 -1.6754704719026817e-11 -0.01257695714952827" pbc="T T T"
Si      -1.15234120       5.02209868       2.51033975       1.50760753       1.79605538       0.22565022
Si      -2.41596514       3.20901040       2.49107483      -1.16319227      -2.03609408      -0.22565022
Si      -0.43321922       1.82714430       2.51033975      -1.50760753      -1.79605538       0.22565022
Si       0.83040472       3.64023259       2.49107483       1.16319227       2.03609408      -0.22565022
Si      -3.92055494       1.38553087       4.99178213      -1.50760753      -1.79605538      -0.22565022
Si       0.03762452       7.06485408       0.00963246       1.16319227       2.03609409       0.22565022
Si       3.92055494      -1.38553088       4.99178213       1.50760753       1.79605538      -0.22565022
Si       5.35148650       0.66761576       0.00963246      -1.16319227      -2.03609408       0.22565022
Si       2.69455551       3.86623492      -0.00000000      -0.00000000      -0.00000000      -0.00000000
Si       3.48733572       0.44161343       2.50070729      -0.00000000      -0.00000000       0.00000000
10
Lattice="6.946047104247416 0.9591474544761628 8.282002817482445e-16 -1.504424988858275 6.8486669992598355 6.037207445389983e-16 -2.7208110576945694 -3.903907226867998 4.660750693126328" Properties=species:S:1:pos:R:3:forces:R:3 unique_starting_index=198 config_type=initial n_minim_iter=6 energy=-1622.776607852302 stress="0.011504652545647488 0.004371704806626419 0.0513083991749324 -1.7304684663859305e-12 -2.131636540457843e-12 -0.009666726913112328" pbc="T T T"
Si      -1.08458287       5.03248806       2.33995638       0.73470399       1.12753733       0.75854412
Si      -2.37600311       3.17951676       2.32079430      -0.80352956      -1.07956965      -0.75854412
Si      -0.41984213       1.81617893       2.33995638      -0.73470399      -1.12753733       0.75854412
Si       0.87157811       3.66915023       2.32079430       0.80352956       1.07956965      -0.75854412
Si      -3.89286568       1.33660520       4.65116965      -0.73470399      -1.12753733      -0.75854412
Si       0.11936562       7.09348373       0.00958103       0.80352956       1.07956965       0.75854412
Si       3.89286567      -1.33660521       4.65116965       0.73470399       1.12753733      -0.75854412
Si       5.32225649       0.71433072       0.00958103      -0.80352956      -1.07956965       0.75854412
Si       2.72081106       3.90390722      -0.00000000       0.00000000       0.00000000       0.00000000
Si       3.47302355       0.47957372       2.33037534       0.00000000       0.00000000      -0.00000000
10
Lattice="6.826260652961435 1.0663528127709447 6.758855556163179e-16 -1.3623841399779761 6.773392966498427 9.732689789131328e-16 -2.7319382564917283 -3.9198728896346853 4.2658890523936135" Properties=species:S:1:pos:R:3:forces:R:3 unique_starting_index=198 config_type=initial n_minim_iter=7 energy=-1623.0096143642188 stress="-0.00022968175036509623 0.0024514958205362476 -0.04305507964536619 -6.8553322527438596e-12 -4.250559023865546e-12 0.0036335905706489555" pbc="T T T"
Si      -0.97090100       4.99198209       2.14553394       0.10146419       0.79505678       2.56348779
Si      -2.28752438       3.10284851       2.12035511      -0.71078914      -0.37039043      -2.56348779
Si      -0.39148315       1.78141087       2.14553394      -0.10146419      -0.79505678       2.56348779
Si       0.92514024       3.67054445       2.12035511       0.71078914       0.37039043      -2.56348779
Si      -3.80461347       1.24823446       4.25329963      -0.10146419      -0.79505678      -2.56348779
Si       0.24394817       7.05724094       0.01258941       0.71078914       0.37039043       2.56348779
Si       3.80461347      -1.24823447       4.25329963       0.10146419       0.79505678      -2.56348779
Si       5.21992834       0.78250484       0.01258941      -0.71078913      -0.37039043       2.56348779
Si       2.73193825       3.91987289      -0.00000000       0.00000000      -0.00000000       0.00000000
Si       3.41313032       0.53317640       2.13294452       0.00000000      -0.00000000       0.00000000
10
Lattice="6.824278638544916 1.0423730535950566 8.298399521159401e-16 -1.3841955204964456 6.763233197251078 8.482695138826217e-16 -2.720041559024234 -3.9028031254230666 4.429789075802603" Properties=species:S:1:pos:R:3:forces:R:3 unique_starting_index=198 config_type=initial n_minim_iter=8 energy=-1623.3726699522258 stress="0.0011676341962478132 0.0033253480482154777 -0.008169041565462257 -1.2376223284462202e-11 8.540006486366449e-12 0.002924181043102868" pbc="T T T"
Si      -0.98517185       4.98952449       2.23496034       0.06969803       0.87572177       1.36556698
Si      -2.30205507       3.10001809       2.19482873      -0.79746318      -0.36850903      -1.36556698
Si      -0.39902368       1.77370870       2.23496034      -0.06969803      -0.87572176       1.36556698
Si       0.91785954       3.66321510       2.19482873       0.79746318       0.36850903      -1.36556698
Si      -3.81116299       1.25252217       4.40972327      -0.06969803      -0.87572176      -1.36556698
Si       0.22576178       7.04483169       0.02006580       0.79746318       0.36850903       1.36556698
Si       3.81116299      -1.25252218       4.40972327       0.06969803       0.87572176      -1.36556698
Si       5.21432133       0.76077455       0.02006580      -0.79746318      -0.36850903       1.36556698
Si       2.72004156       3.90280312      -0.00000000       0.00000000       0.00000000      -0.00000000
Si       3.41213932       0.52118652       2.21489453       0.00000000       0.00000000      -0.00000000
10
Lattice="6.8109072426333555 1.0138977063827552 2.3195456825816084e-15 -1.4062823071718231 6.74083200349179 1.6073475935591182e-15 -2.7023124677307644 -3.8773648549372703 4.4741308766046135" Properties=species:S:1:pos:R:3:forces:R:3 unique_starting_index=198 config_type=initial n_minim_iter=9 energy=-1623.4854920546884 stress="0.0012228765875123347 0.00332014638931649 0.007220510727854132 7.210085589663394e-12 -2.2679135474858892e-13 0.0028422659536010988" pbc="T T T"
Si      -0.99919698       4.98031633       2.26258088       0.12510117       0.86174169       1.05996502
Si      -2.31599982       3.09092526       2.21154999      -0.76517023      -0.41564836      -1.05996502
Si      -0.40708533       1.76051566       2.26258088      -0.12510117      -0.86174169       1.05996502
Si       0.90971751       3.64990673       2.21154999       0.76517023       0.41564836      -1.05996502
Si      -3.81253895       1.25356681       4.44861543      -0.12510117      -0.86174169      -1.05996502
Si       0.20657635       7.02032273       0.02551544       0.76517023       0.41564836       1.05996502
Si       3.81253895      -1.25356682       4.44861543       0.12510117       0.86174169      -1.05996502
Si       5.19804858       0.73440697       0.02551544      -0.76517023      -0.41564836       1.05996502
Si       2.70231247       3.87736485      -0.00000000       0.00000000       0.00000000       0.00000000
Si       3.40545362       0.50694885       2.23706543       0.00000000       0.00000000       0.00000000
10
Lattice="6.801310528283179 0.9944256625762007 3.1541989363496208e-15 -1.4212288937080726 6.725088529693494 1.9823391205170466e-15 -2.69004081728755 -3.8597570961348446 4.446479009404109" Properties=species:S:1:pos:R:3:forces:R:3 unique_starting_index=198 config_type=initial n_minim_iter=10 energy=-1623.5583368240925 stress="0.0009940344429426587 0.002937067450275592 0.001198517764106538 -2.0348827598330727e-12 -7.246118366952268e-12 0.00263324086603787" pbc="T T T"
Si      -1.00844820       4.97376111       2.25146422       0.17221374       0.83186117       1.12918207
Si      -2.32532365       3.08426585       2.19501478      -0.72082942      -0.44950588      -1.12918207
Si      -0.41278070       1.75132741       2.25146422      -0.17221374      -0.83186117       1.12918207
Si       0.90409475       3.64082267       2.19501478       0.72082942       0.44950588      -1.12918207
Si      -3.81343597       1.25411458       4.41825429      -0.17221374      -0.83186117      -1.12918207
Si       0.19348030       7.00336694       0.02822471       0.72082942       0.44950588       1.12918207
Si       3.81343596      -1.25411459       4.41825429       0.17221374       0.83186117      -1.12918207
Si       5.18660133       0.71614725       0.02822471      -0.72082942      -0.44950588       1.12918207
Si       2.69004082       3.85975709      -0.00000000      -0.00000000      -0.00000000       0.00000000
Si       3.40065526       0.49721283       2.22323950      -0.00000000      -0.00000000       0.00000000
10
Lattice="6.792360537093639 0.9745229889054349 3.533017228554066e-15 -1.4368033449549635 6.709802744470091 1.888071271116523e-15 -2.6777785960693343 -3.8421628666877603 4.4413799922088995" Properties=species:S:1:pos:R:3:forces:R:3 unique_starting_index=198 config_type=initial n_minim_iter=11 energy=-1623.6348612639954 stress="0.0011123312866741387 0.0032353615912352773 0.0029652062221607097 8.241669205541402e-12 1.1494376546458657e-11 0.002877177154461814" pbc="T T T"
Si      -1.01777237       4.96801375       2.25229720       0.21424623       0.80799506       1.10341584
Si      -2.33542122       3.07740878       2.18908279      -0.68388962      -0.48067915      -1.10341584
Si      -0.41903098       1.74178899       2.25229720      -0.21424623      -0.80799506       1.10341584
Si       0.89861788       3.63239395       2.18908279       0.68388962       0.48067915      -1.10341584
Si      -3.81521125       1.25452750       4.40977278      -0.21424623      -0.80799506      -1.10341584
Si       0.18021620       6.98729533       0.03160720       0.68388962       0.48067915       1.10341584
Si       3.81521124      -1.25452750       4.40977278       0.21424623       0.80799506      -1.10341584
Si       5.17534099       0.69703040       0.03160720      -0.68388962      -0.48067915       1.10341584
Si       2.67777859       3.84216286      -0.00000000      -0.00000000       0.00000000      -0.00000000
Si       3.39618027       0.48726149       2.22068999       0.00000000      -0.00000000      -0.00000000
10
Lattice="6.7873430419736245 0.9635226388427172 4.131001847918039e-15 -1.4453869590960773 6.701287785453266 1.7050138044085225e-15 -2.670978041438769 -3.8324052121479886 4.4349943974532" Properties=species:S:1:pos:R:3:forces:R:3 unique_starting_index=198 config_type=initial n_minim_iter=12 energy=-1623.6741044691792 stress="0.0010625850128822933 0.0032462914663192732 0.003169494702443367 4.7661422259639685e-12 8.676131225237399e-12 0.0029594068122467706" pbc="T T T"
Si      -1.02293282       4.96446834       2.25075416       0.23956283       0.80147008       1.11143296
Si      -2.34068175       3.07371978       2.18424022      -0.66900499      -0.50217224      -1.11143296
Si      -0.42245414       1.73681944       2.25075416      -0.23956283      -0.80147008       1.11143296
Si       0.89529479       3.62756800       2.18424022       0.66900499       0.50217224      -1.11143296
Si      -3.81612566       1.25505812       4.40173742      -0.23956283      -0.80147008      -1.11143296
Si       0.17260131       6.97821189       0.03325697       0.66900499       0.50217224       1.11143296
Si       3.81612566      -1.25505813       4.40173742       0.23956283       0.80147008      -1.11143296
Si       5.16935477       0.68659853       0.03325697      -0.66900499      -0.50217224       1.11143296
Si       2.67097804       3.83240521      -0.00000000       0.00000000      -0.00000000       0.00000000
Si       3.39367152       0.48176132       2.21749719      -0.00000000      -0.00000000       0.00000000
10
Lattice="6.766592090422424 0.9154868815041319 4.862701686826315e-15 -1.4832706761963803 6.665192634088628 1.838526344726129e-15 -2.641660707113016 -3.7903397577963767 4.405866962403155" Properties=species:S:1:pos:R:3:forces:R:3 unique_starting_index=198 config_type=initial n_minim_iter=13 energy=-1623.846481424999 stress="0.0007311045278143762 0.0029946138856857775 0.0037386731993317036 -5.435282540052361e-12 -1.0157589862838542e-13 0.00306755742544404" pbc="T T T"
Si      -1.04569260       4.94942795       2.24325536       0.34797810       0.77886624       1.15136046
Si      -2.36376643       3.05821322       2.16261160      -0.61027192      -0.59606171      -1.15136046
Si      -0.43757808       1.71576468       2.24325536      -0.34797810      -0.77886624       1.15136046
Si       0.88049575       3.60697940       2.16261160       0.61027192       0.59606171      -1.15136046
Si      -3.82087412       1.25802124       4.36554508      -0.34797810      -0.77886624      -1.15136046
Si       0.13886041       6.93957572       0.04032188       0.61027192       0.59606171       1.15136046
Si       3.82087412      -1.25802124       4.36554508       0.34797810       0.77886624      -1.15136046
Si       5.14446100       0.64110379       0.04032188      -0.61027192      -0.59606171       1.15136046
Si       2.64166071       3.79033975      -0.00000000       0.00000000      -0.00000000      -0.00000000
Si       3.38329604       0.45774344       2.20293348       0.00000000      -0.00000000       0.00000000
10
Lattice="6.750879948530301 0.8675843878150845 5.309220040539943e-15 -1.5227734844411025 6.633870941202576 1.819087626105428e-15 -2.6140532320445926 -3.7507276645088274 4.372278876530034" Properties=species:S:1:pos:R:3:forces:R:3 unique_starting_index=198 config_type=initial n_minim_iter=14 energy=-1624.0275163339772 stress="0.00046976605197348876 0.002821592771242431 0.0034723645178198624 -3.398148974451342e-12 1.385267915978367e-11 0.003187247043065541" pbc="T T T"
Si      -1.06869431       4.93762075       2.23359221       0.44496742       0.75044346       1.20413059
Si      -2.38825832       3.04426787       2.13868666      -0.55003455      -0.67721738      -1.20413059
Si      -0.45407917       1.69625018       2.23359221      -0.44496742      -0.75044346       1.20413059
Si       0.86548483       3.58960306       2.13868666       0.55003455       0.67721738      -1.20413059
Si      -3.82951915       1.26245799       4.32482610      -0.44496742      -0.75044346      -1.20413059
Si       0.10409809       6.90653853       0.04745277       0.55003455       0.67721738       1.20413059
Si       3.82951915      -1.26245800       4.32482610       0.44496742       0.75044346      -1.20413059
Si       5.12400837       0.59491679       0.04745277      -0.55003455      -0.67721738       1.20413059
Si       2.61405323       3.75072766      -0.00000000      -0.00000000       0.00000000      -0.00000000
Si       3.37543997       0.43379219       2.18613943       0.00000000       0.00000000       0.00000000
10
Lattice="6.7390731188757975 0.8194499535619139 5.142543198617222e-15 -1.5638456675476657 6.606132866968337 2.082320159490943e-15 -2.5876137256640597 -3.7127914102651225 4.3417805787735695" Properties=species:S:1:pos:R:3:forces:R:3 unique_starting_index=198 config_type=initial n_minim_iter=15 energy=-1624.223564690083 stress="0.0015857046944801447 0.005432227248699214 0.006605418928619686 6.665558552699736e-12 1.54939237881817e-11 0.005212891547036703" pbc="T T T"
Si      -1.09205237       4.92804180       2.22567811       0.55966427       0.76798497       1.21702579
Si      -2.41379609       3.03156140       2.11610246      -0.52679093      -0.79089590      -1.21702579
Si      -0.47179330       1.67809106       2.22567811      -0.55966427      -0.76798497       1.21702579
Si       0.84995041       3.57457146       2.11610246       0.52679093       0.79089590      -1.21702579
Si      -3.84132986       1.26836608       4.28699275      -0.55966427      -0.76798497      -1.21702579
Si       0.06802758       6.87763790       0.05478782       0.52679093       0.79089590       1.21702579
Si       3.84132986      -1.26836609       4.28699275       0.55966427       0.76798497      -1.21702579
Si       5.10719987       0.54794492       0.05478782      -0.52679093      -0.79089590       1.21702579
Si       2.58761372       3.71279141      -0.00000000      -0.00000000       0.00000000      -0.00000000
Si       3.36953656       0.40972497       2.17089029      -0.00000000       0.00000000       0.00000000
10
Lattice="6.709780769254143 0.7413151880650266 5.17743450156925e-15 -1.6270113037298208 6.5516059403053175 3.0121056923430194e-15 -2.5413847327621553 -3.646460564185168 4.285122857341919" Properties=species:S:1:pos:R:3:forces:R:3 unique_starting_index=198 config_type=initial n_minim_iter=16 energy=-1624.4698479291453 stress="0.00026006570407316703 0.0030945424798783715 0.004103868631055197 5.640616976453446e-12 1.317266122604496e-11 0.0038413450064782194" pbc="T T T"
Si      -1.13100753       4.89831502       2.20422799       0.74342980       0.89512457       1.36058873
Si      -2.44561969       3.01206719       2.08089486      -0.58246329      -1.00730948      -1.36058873
Si      -0.49600378       1.65329092       2.20422799      -0.74342980      -0.89512457       1.36058873
Si       0.81860839       3.53953874       2.08089486       0.58246329       1.00730948      -1.36058873
Si      -3.85089416       1.28263332       4.22345629      -0.74342980      -0.89512457      -1.36058873
Si       0.00510273       6.81534171       0.06166656       0.58246329       1.00730948       1.36058873
Si       3.85089416      -1.28263333       4.22345629       0.74342980       0.89512457      -1.36058873
Si       5.07766673       0.47757941       0.06166656      -0.58246329      -1.00730948       1.36058873
Si       2.54138473       3.64646056      -0.00000000       0.00000000      -0.00000000       0.00000000
Si       3.35489038       0.37065759       2.14256142       0.00000000      -0.00000000      -0.00000000
10
Lattice="6.701095771722461 0.6871855375094756 6.104885961845611e-15 -1.6747886840563857 6.524721554864654 3.8257293002500224e-15 -2.513153543833031 -3.6059535461870604 4.251222230187827" Properties=species:S:1:pos:R:3:forces:R:3 unique_starting_index=198 config_type=initial n_minim_iter=17 energy=-1624.741044926943 stress="0.0006334499074161543 0.003525402799696715 0.0027664410204625302 -2.525795022394812e-11 -2.367726972078268e-11 0.003919237851129115" pbc="T T T"
Si      -1.15623644       4.89106401       2.19510222       0.78531898       0.84033541       1.35585974
Si      -2.47578075       2.99773938       2.05612001      -0.51656158      -1.02764470      -1.35585974
Si      -0.51855225       1.63365754       2.19510222      -0.78531898      -0.84033541       1.35585974
Si       0.80099206       3.52698217       2.05612001       0.51656158       1.02764470      -1.35585974
Si      -3.86910014       1.29006477       4.18173112      -0.78531898      -0.84033541      -1.35585974
Si      -0.03640228       6.78934295       0.06949110       0.51656158       1.02764470       1.35585974
Si       3.86910013      -1.29006478       4.18173112       0.78531898       0.84033541      -1.35585974
Si       5.06270936       0.42256414       0.06949110      -0.51656158      -1.02764470       1.35585974
Si       2.51315354       3.60595354      -0.00000000       0.00000000       0.00000000      -0.00000000
Si       3.35054788       0.34359277       2.12561111       0.00000000       0.00000000       0.00000000
10
Lattice="6.6376361551073275 0.4074194527213434 6.856517235366715e-15 -1.915295070104443 6.368347441250146 5.7432460235842545e-15 -2.361170542501435 -3.387883446985738 4.135570507728507" Properties=species:S:1:pos:R:3:forces:R:3 unique_starting_index=198 config_type=initial n_minim_iter=18 energy=-1625.7953037500351 stress="-0.01093778828274906 -0.01552874229218967 -0.017399992849359013 7.355958688320702e-12 4.786330069187495e-12 -0.006221761406002769" pbc="T T T"
Si      -1.28365939       4.83209288       2.17716635       0.89631424       0.54459950       0.99253734
Si      -2.61654374       2.91962754       1.95840415      -0.20068732      -1.02941363      -0.99253734
Si      -0.63163568       1.53625456       2.17716635      -0.89631424      -0.54459950       0.99253734
Si       0.70124866       3.44871990       1.95840415       0.20068732       1.02941363      -0.99253734
Si      -3.95045376       1.33254483       4.02618940      -0.89631424      -0.54459950      -0.99253734
Si      -0.25639887       6.63289362       0.10938110       0.20068732       1.02941363       0.99253734
Si       3.95045376      -1.33254484       4.02618940       0.89631424       0.54459950      -0.99253734
Si       4.97873995       0.14287327       0.10938110      -0.20068732      -1.02941363       0.99253734
Si       2.36117054       3.38788344      -0.00000000       0.00000000      -0.00000000      -0.00000000
Si       3.31881808       0.20370972       2.06778525       0.00000000      -0.00000000       0.00000000
10
Lattice="6.874927083939167 0.5602634768221076 7.0885221484407406e-15 -1.8540343395250785 6.643874941688985 6.2111059519043465e-15 -2.5104463722070367 -3.602069209255539 4.363705046359498" Properties=species:S:1:pos:R:3:forces:R:3 unique_starting_index=198 config_type=initial n_minim_iter=19 energy=-1625.2444572700297 stress="0.02839699110612334 0.04169675372434679 0.06416216982115747 -2.1271707304554938e-12 1.0145653576237767e-12 0.018024129505323165" pbc="T T T"
Si      -1.21219688       5.05893165       2.30767953       0.38503900      -0.25698827       0.03660641
Si      -2.65534864       2.98825108       2.05602551       0.37437844      -0.27228439      -0.03660641
Si      -0.64183746       1.58494328       2.30767953      -0.38503900       0.25698827       0.03660641
Si       0.80131430       3.65562385       2.05602551      -0.37437844       0.27228439      -0.03660641
Si      -4.07930101       1.30481154       4.23787803      -0.38503900       0.25698827      -0.03660641
Si      -0.12570287       6.97756132       0.12582701      -0.37437844       0.27228439       0.03660641
Si       4.07930100      -1.30481155       4.23787803       0.38503900      -0.25698827      -0.03660641
Si       5.14659561       0.22657709       0.12582701       0.37437844      -0.27228439       0.03660641
Si       2.51044637       3.60206921      -0.00000000      -0.00000000      -0.00000000       0.00000000
Si       3.43746354       0.28013174       2.18185252      -0.00000000      -0.00000000       0.00000000
10
Lattice="6.705703458890734 0.4401775358205423 7.68483157397042e-15 -1.9081225501788501 6.443545877474537 6.928006332574536e-15 -2.3987904543559337 -3.441861706647531 4.135140744429912" Properties=species:S:1:pos:R:3:forces:R:3 unique_starting_index=198 config_type=initial n_minim_iter=20 energy=-1626.0345734943633 stress="-0.0003972113149283535 0.005429702211744808 0.002083217035470656 -2.8250775102539045e-11 -4.209456594093028e-11 0.007896760793990118" pbc="T T T"
Si      -1.25642659       4.90239395       2.18689787       0.61470454       0.16685162       0.70583593
Si      -2.63545290       2.92372264       1.94824287       0.05623427      -0.63445949      -0.70583593
Si      -0.65169596       1.54115192       2.18689787      -0.61470454      -0.16685162       0.70583593
Si       0.72733035       3.51982323       1.94824287      -0.05623427       0.63445949      -0.70583593
Si      -4.00454769       1.32106315       4.01581324      -0.61470454      -0.16685162      -0.70583593