22
Lattice="4.771919999999999 6.505078762606822e-16 1.3619297805010508e-15 -0.8271658226105969 9.373333449712803 -5.6700694142354916e-15 -1.679326769575509 -4.46188978908281 10.282798457592444" Properties=species:S:1:pos:R:3:forces:R:3 unique_starting_index=340 config_type=initial n_minim_iter=1 energy=-3501.5505853145683 stress="-0.278019830138529 -0.2784372238497329 -0.4288871400952907 0.002553099759056068 0.010208597556911513 0.017071697177693357" pbc="T T T"
Si       0.34677610      -2.45328243       7.88139381      11.29213372      -6.06625060      16.68287924
Si       1.49441354       6.68456622       6.07154313     -22.80430132       1.72666958     -13.34542827
Si      -0.63182520       5.10911410       1.76640071      -0.53874068      -6.76831016      23.42446049
Si       2.78327772       5.93712751       6.65478654      13.06478235     -30.46366544       1.63393363
Si      -0.28685788       3.43194940       3.97800547       6.03580144      -1.22867172      -4.07190074
Si       3.08418513      -3.10627711       8.32239219      -1.80613841     -14.61398381      18.50369371
Si       3.05843843       2.22778496       4.42908304      -4.32993067      -3.59478440       1.48091721
Si       3.55020743       6.74864431       0.94873109      -1.40494831      -5.44679131     -29.00674766
Si       2.04389677      -0.98821383       2.45439499      -5.97080328       3.28470893       9.89866876
Si      -0.72513414       5.25479103       4.72167596      -2.68659392       5.45352360       2.78471607
Si      -0.04186431       4.54521842       9.16596109       1.50965110       0.62769191      -5.94878323
Si       2.32442654       7.19649093       1.87442151      -9.80957320      -0.70557972       7.49613058
Si      -0.41818172      -2.02151718       6.54407679      11.28085857      18.74453334     -29.83797093
Si      -0.19122219       7.07161696       2.12931769      12.67304173       4.79452864      16.29121848
Si       0.09862027       1.20455341       9.88381045      -0.36528963       0.09542620      -0.12518972
Si      -0.47539500       0.07051666       7.77597353      -1.40663661      -0.67166261      -1.33057719
Si      -0.46644806       5.17768066       0.14827076       4.11715976      -2.67895882     -23.04263432
Si       1.41098099       8.82101050       0.79834927       0.77942687       2.44451328      -5.04718841
Si       2.83229423      -1.25868336       4.60421555       2.25838175      -0.22228313       0.93317545
Si       2.98513300      -1.83780491       7.35225951     -11.53933287      28.02130629       8.32170648
Si       1.96590682       0.45890765       3.62918312      -1.91277561       7.38669069       3.53898225
Si       0.49173025       2.14363314       1.14911918       1.56382722      -0.11865073       0.76593812
22
Lattice="4.833333159668664 -0.003794990913671876 -0.0022770695220504338 -0.8452655774281401 9.494804504933333 -0.0007222690224957481 -1.7022975190427254 -4.519289072563514 10.488986236837706" Properties=species:S:1:pos:R:3:forces:R:3 unique_starting_index=340 config_type=initial n_minim_iter=2 energy=-3509.1189253376265 stress="-0.22917362027649055 -0.23778403372493676 -0.37257581617990404 0.00356690324325259 0.012559059203696403 0.016980738984304" pbc="T T T"
Si       0.35057262      -2.48673339       8.04023550      10.09045249      -5.27829689      14.23774669
Si       1.50312361       6.76898871       6.18963116     -20.05061818       1.74833988     -11.87075244
Si      -0.64491779       5.17457184       1.80367297       0.07936749      -6.10742043      19.90510011
Si       2.81252611       6.00755818       6.78549449      11.73262655     -26.67206358       1.71822066
Si      -0.29456559       3.47581313       4.05656795       5.39633487      -1.28300201      -3.90446045
Si       3.12219405      -3.15123886       8.48897749      -1.91594250     -12.83825013      16.48814878
Si       3.09347608       2.25317508       4.51574597      -4.06609402      -3.10913126       1.21289624
Si       3.58993729       6.83214014       0.96217516      -1.36505473      -4.61789318     -25.63714678
Si       2.06921031      -1.00253583       2.50344393      -5.56943921       3.57242572       9.02831676
Si      -0.74117118       5.32308680       4.81574548      -2.34635701       4.96055035       2.69295133
Si      -0.05023847       4.60280646       9.34743764       1.19010790       0.51376728      -4.71171628
Si       2.34672969       7.28710406       1.91056216      -8.49583661      -0.78653076       5.99563649
Si      -0.42393610      -2.04612177       6.67184485       9.74957576      16.80455462     -26.74535050
Si      -0.19904066       7.16314605       2.17264760      10.57503295       4.31884713      14.67330933
Si       0.09417816       1.21883240      10.08051316      -0.51769949      -0.00630331      -0.27080937
Si      -0.48542217       0.07080909       7.93096991      -1.53061132      -0.68222331      -1.07491618
Si      -0.47622121       5.24449786       0.14847987       3.82145346      -2.74175820     -19.45017658
Si       1.42182279       8.93373517       0.81201476       0.78162096       2.08604579      -4.69641796
Si       2.86777767      -1.27773040       4.69483465       2.09742502      -0.19902516       0.86795908
Si       3.02033255      -1.86190352       7.49837533      -9.52008122      24.25570409       7.07849950
Si       1.98891621       0.46357492       3.70085217      -1.60616789       6.57375954       3.38975824
Si       0.49596392       2.17072236       1.17159998       1.46990474      -0.51209617       1.07320332
22
Lattice="5.3432450392230555 -0.04393791175976441 -0.03295966744088009 -1.0125053178358518 10.542815148576858 -0.01229276718598253 -1.9103266459743933 -5.019250961942124 12.36441204940491" Properties=species:S:1:pos:R:3:forces:R:3 unique_starting_index=340 config_type=initial n_minim_iter=3 energy=-3545.6922385148778 stress="-0.04585624592843848 -0.04465923858142717 -0.07344027856381914 0.0072224323803659375 0.002250915911594444 0.014820535296501377" pbc="T T T"
Si       0.36805739      -2.78198831       9.48151449       3.47619170      -2.17804322       4.53726155
Si       1.54670027       7.48995951       7.25090990      -7.04702675       1.63646127      -7.15151443
Si      -0.76678343       5.73771254       2.14004557       1.06397872      -2.94047594       5.76160015
Si       3.02969840       6.60350202       7.96035008       3.07255720     -12.04388984       2.28354471
Si      -0.37399714       3.85084091       4.76601189       1.51025226      -0.62342276      -1.63797966
Si       3.42239128      -3.55064100       9.99609963      -1.02169762      -5.95214653       7.80907716
Si       3.36885667       2.46367753       5.29316406      -2.01878180      -1.43121278       0.11982183
Si       3.90524953       7.54533448       1.06945000      -0.84480049      -0.98206407     -12.03371130
Si       2.27423689      -1.13013755       2.94549137      -1.29387544       1.31633828       3.59074599
Si      -0.89573958       5.90951621       5.66650647      -0.11305569       2.20760329       1.64788862
Si      -0.15060938       5.09199567      10.98909641       0.74701749       0.56695672      -0.74211528
Si       2.51361815       8.06270616       2.22795590      -2.49610405      -0.28059527       2.86585234
Si      -0.48349092      -2.26136289       7.82931574       6.00866262       8.53634295     -11.36725187
Si      -0.28177304       7.95071189       2.56212328       3.46761386       1.99527529       6.79187240
Si       0.03049653       1.33397826      11.86195893      -0.51023088      -0.18086590       0.02508753
Si      -0.58839035       0.06793364       9.33666630      -0.08018529      -0.50504202       0.49546262
Si      -0.56641423       5.82035071       0.14683592       1.70254672      -1.47424960      -5.55582231
Si       1.49408544       9.90232298       0.92586494       0.28672663       0.63814888      -2.00872443
Si       3.15359328      -1.44988019       5.51116294      -0.59195241       0.03321142      -1.04599566
Si       3.29726083      -2.07888640       8.81801377      -4.62677167       9.57206488       4.06694871
Si       2.17002215       0.49836032       4.34647893      -0.01870095       2.42251557       1.85785252
Si       0.52461596       2.40205021       1.37325058      -0.67236416      -0.33291063      -0.30990119
22
Lattice="5.568026701791981 -0.11946192946384436 -0.04605985006095671 -1.1998184979036117 10.987557300167166 -0.0844596159463541 -1.9470432207445598 -5.27980696342993 13.242723808259559" Properties=species:S:1:pos:R:3:forces:R:3 unique_starting_index=340 config_type=initial n_minim_iter=4 energy=-3551.5556211730027 stress="-0.01312207528853326 -0.007707819825290836 -0.02095310376126658 0.0036399153361485427 0.009372896730948542 0.008343286960667433" pbc="T T T"
Si       0.40795958      -2.96751773      10.15270925       0.98513173      -0.87445881       2.37234168
Si       1.48190919       7.72967934       7.67370675      -4.68667692       0.76657749      -4.37118526
Si      -0.88042135       5.96337582       2.25838538       0.45825618      -1.94377146       2.57871256
Si       3.05528489       6.75795917       8.45304972       1.41277325      -7.97321427       3.04509382
Si      -0.44984059       3.98061692       5.06023285       0.25106547      -0.48489756      -1.15765244
Si       3.59244155      -3.81947153      10.70785536      -0.53076818      -3.78270766       4.16513741
Si       3.46203177       2.48027472       5.62859479      -1.16758531      -0.58633461      -0.19427548
Si       3.96208459       7.79100180       1.05752680      -0.94485130      -0.41058768      -7.40018414
Si       2.37673206      -1.22507433       3.15568474      -0.17272898       1.15767699       1.86223177
Si      -1.02657086       6.12944817       6.01510448       0.80755034       1.28361089       0.27472467
Si      -0.24837002       5.23015889      11.69842691       0.53141699       0.29520142       0.39920845
Si       2.49939249       8.34208871       2.32351787       0.06098568      -0.87621378       1.84232909
Si      -0.47891935      -2.38459628       8.35475864       5.90760548       6.29114779      -6.32614033
Si      -0.40258140       8.26547530       2.69457876       1.21019075       0.36550767       4.07701252
Si      -0.01192886       1.30912597      12.65790964       0.00757950      -0.21627182      -0.30736814
Si      -0.63342797       0.01609455       9.97222909       0.05494952      -1.60636466      -0.50641099
Si      -0.66737692       6.06248277       0.10641908       0.46072542      -0.50253556      -2.07549594
Si       1.41926769      10.28109483       0.91261076       0.12984384       1.05290858      -1.95743135
Si       3.29342154      -1.58918016       5.88673696      -0.39511239      -0.31767517      -1.12519299
Si       3.43753079      -2.25153769       9.43221521      -3.68825749       6.50520775       3.06497635
Si       2.24500478       0.46393767       4.63716704       0.00673593       1.80130078       1.54565474
Si       0.50966726       2.48327932       1.44805089      -0.69882949       0.05589367       0.19391399
22
Lattice="5.684219255542897 -0.19301912599172566 -0.13238818286227705 -1.3644454488974485 11.135033631149359 -0.13355338592903465 -2.1051804085460915 -5.388326276680537 13.736665612785055" Properties=species:S:1:pos:R:3:forces:R:3 unique_starting_index=340 config_type=initial n_minim_iter=5 energy=-3553.3153004934775 stress="0.0032477948427298937 0.009673416939557816 0.004734231822084907 0.001711574477194721 0.0058867873218327715 0.002744611484146978" pbc="T T T"
Si       0.31427565      -3.06509615      10.50346351       0.06575932      -0.56251849       1.66615325
Si       1.29289841       7.76490307       7.84248035      -3.84174332       0.26461018      -3.21186282
Si      -1.00558550       6.02874559       2.31899427       0.44122973      -1.31212254       0.87026826
Si       2.91678457       6.73254618       8.65282032       0.51812175      -6.05572187       3.50688202
Si      -0.58051288       4.00583082       5.20537279      -0.03185160      -0.79487338      -1.47814940
Si       3.56336628      -3.97915711      11.03895927       0.01247246      -2.45503426       2.74342048
Si       3.41893193       2.43354114       5.74430828      -0.96936462      -0.38206382      -0.46279453
Si       3.92640854       7.82656722       0.96152664      -1.01195826      -0.31822406      -5.33650148
Si       2.39599735      -1.28449926       3.23551777       0.32484742       1.30102071       1.36211316
Si      -1.20901096       6.18726090       6.19212390       0.89965017       1.25228222      -0.34971777
Si      -0.48379864       5.23419501      12.05507097       0.61010117      -0.02232505       0.42411340
Si       2.41079640       8.39455267       2.31791156       0.89975858      -1.00945086       0.92015458
Si      -0.56023567      -2.43535582       8.62798100       4.60384703       5.35355548      -4.18869507
Si      -0.55216768       8.35573156       2.75317266       0.43952884      -0.11431234       3.06075560
Si      -0.20684582       1.25683728      13.06319319      -0.03885692       0.04445522      -0.16426044
Si      -0.78635164      -0.03291129      10.30632104      -0.23946598      -2.03282671      -0.51200158
Si      -0.75899543       6.14184364       0.07770508       0.24365051      -0.66412476      -0.96069815
Si       1.30369841      10.38363635       0.85365011       0.25233395       0.88100335      -1.42138353
Si       3.29764148      -1.68312360       6.03437707      -0.15110398      -0.55357808      -0.77387832
Si       3.39329776      -2.35598205       9.71084721      -2.04754339       5.07629664       2.29314454
Si       2.21944506       0.42021349       4.75642232      -0.00640506       1.76937289       1.28030829
Si       0.46595159       2.49886847       1.47360552      -0.97300778       0.33457954       0.73262952
22
Lattice="5.659064066976623 -0.21347910506419882 -0.18322559241544067 -1.4002739401498376 10.982447416420035 -0.15017233505214958 -2.1867444086298957 -5.334702412450051 13.674869461266724" Properties=species:S:1:pos:R:3:forces:R:3 unique_starting_index=340 config_type=initial n_minim_iter=6 energy=-3554.218350919539 stress="0.001269593469060546 0.002796755321840407 -8.111632093181278e-05 0.0013692405516230089 0.004428607491808065 0.0024438416318246677" pbc="T T T"
Si       0.23868050      -3.04855949      10.44072077       0.12761223      -0.55499592       1.81009769
Si       1.18323688       7.63238391       7.74578674      -3.67746936       0.17862755      -3.43233734
Si      -1.04212875       5.93841315       2.29844700       0.41859925      -1.59046041       0.94198418
Si       2.80760320       6.58972261       8.55845065       0.22287051      -5.95216068       3.22604702
Si      -0.63575278       3.93735919       5.15921791       0.23080531      -0.61989833      -1.40400411
Si       3.47156037      -3.96889423      10.94846896      -0.02214968      -2.63024701       2.45077572
Si       3.34389928       2.37073694       5.66502446      -1.09094003      -0.38768563      -0.35274343
Si       3.86772136       7.69648228       0.88163383      -1.25381341      -0.20468419      -5.60104089
Si       2.36348737      -1.28065583       3.19836864       0.49952913       1.17774263       1.34014324
Si      -1.27609130       6.09270394       6.14209403       0.76595881       1.07418022      -0.20750124
Si      -0.59925000       5.13357071      11.96256045       0.66789664      -0.01053866       0.45490782
Si       2.34988044       8.25704764       2.25961701       0.86226108      -1.08507267       0.80968521
Si      -0.60783827      -2.40598961       8.56591393       3.99849775       5.26279525      -4.27171802
Si      -0.60401850       8.23209052       2.72565359       0.53537688      -0.01201458       3.33999752
Si      -0.31788647       1.20967960      12.97017407      -0.08222149       0.02264387       0.04139453
Si      -0.86710321      -0.05784176      10.24046552       0.05347480      -1.55496867      -0.34816486
Si      -0.77911788       6.05579598       0.06466160       0.21500152      -0.62474335      -1.12894182
Si       1.25070817      10.23060063       0.80325522       0.47137547       1.09707659      -1.29235318
Si       3.23893183      -1.68801364       5.96427508      -0.27487762      -0.42004569      -0.77016902
Si       3.30056927      -2.34661496       9.62515583      -1.55955574       5.04166719       2.31921647
Si       2.16778534       0.39818018       4.70545544      -0.00318593       1.71173526       1.39844663
Si       0.43937782       2.45886471       1.45461697      -1.10504612       0.08104722       0.67627788
22
Lattice="5.646365052595981 -0.24218142752644628 -0.241171571513993 -1.4544517655415663 10.922390551644199 -0.1715779634814349 -2.2803030663995925 -5.328146463339506 13.717947978965912" Properties=species:S:1:pos:R:3:forces:R:3 unique_starting_index=340 config_type=initial n_minim_iter=7 energy=-3555.3193340835414 stress="0.003031192695162495 0.002657440689080777 0.0016671428214813098 0.0009389053167134809 0.0025940614141715915 0.0010833214926799192" pbc="T T T"
Si       0.15655996      -3.06249179      10.45891349       0.00797691      -0.44952299       1.81032909
Si       1.05306009       7.55923113       7.69547991      -3.27827932       0.00099399      -3.28195067
Si      -1.09122617       5.89479668       2.29479400       0.39647253      -1.60552159       0.71652572
Si       2.68546647       6.48770645       8.52538442      -0.09087275      -5.13808538       2.93223752
Si      -0.70230895       3.89982591       5.14759569       0.39512407      -0.47765120      -1.37368281
Si       3.38061758      -4.00355766      10.93958481       0.06173166      -2.39231916       1.94238699
Si       3.26477249       2.32110942       5.62263727      -1.13215842      -0.35707731      -0.28512368
Si       3.80414641       7.62585002       0.79111914      -1.32399921      -0.11550468      -5.26342351
Si       2.33500099      -1.29049184       3.18467667       0.74581500       1.16000692       1.23860962
Si      -1.36062996       6.04834321       6.13543190       0.61242429       0.94723645      -0.18358949
Si      -0.73537577       5.07120852      11.95653973       0.70863635      -0.10068199       0.49953856
Si       2.28081810       8.18259057       2.21244670       0.95065158      -1.13553960       0.59043754
Si      -0.65888120      -2.39332326       8.56032281       3.14591572       4.74154415      -3.89306314
Si      -0.67148893       8.17606902       2.72091425       0.31657627      -0.10255107       3.22491828
Si      -0.44571873       1.16768398      12.97258023      -0.16215072      -0.01084336       0.09733027
Si      -0.95982918      -0.08708503      10.25046722       0.25074347      -1.33394161      -0.21306748
Si      -0.80903047       6.02012862       0.04776130       0.20266565      -0.67289139      -1.08336146
Si       1.18617533      10.16223757       0.75080070       0.65637465       1.21895823      -1.08523862
Si       3.18244984      -1.71307301       5.93413326      -0.31327613      -0.33300790      -0.67055112
Si       3.20573271      -2.35841338       9.61127171      -0.92043269       4.65870696       2.22713619
Si       2.11453017       0.37685743       4.68898331       0.00307794       1.57455795       1.37980135
Si       0.40682080       2.43771923       1.44579564      -1.23301686      -0.07686542       0.67380086
22
Lattice="5.540251912119475 -0.2753275930121993 -0.3375577607505683 -1.5011660647220384 10.742325110982463 -0.21681286151393225 -2.4196655417304935 -5.2959846385690215 13.64453945089044" Properties=species:S:1:pos:R:3:forces:R:3 unique_starting_index=340 config_type=initial n_minim_iter=8 energy=-3557.7335373647456 stress="0.0003082053050570442 -0.00384831384148054 -0.002796135577033678 -0.00018586043649745617 -0.0011255839083907932 -0.00114306335490327" pbc="T T T"
Si       0.00397506      -3.07416211      10.38771440       0.23093273      -0.28730532       1.83215736
Si       0.82068196       7.38174695       7.50074011      -2.53087954      -0.20018179      -2.99572595
Si      -1.14399142       5.76847209       2.25999973       0.33215900      -1.75127174       0.66401505
Si       2.44799094       6.25194694       8.38424786      -0.42728232      -3.26755149       1.66572378
Si      -0.79339674       3.80286632       5.05864488       0.83383748      -0.02016057      -1.20086402
Si       3.16553742      -4.04444449      10.81467153      -0.00926152      -2.01011905       1.21637427
Si       3.08036969       2.22417155       5.48515988      -1.11699405      -0.23294648       0.08952551
Si       3.65312970       7.46468981       0.59257352      -1.10284498       0.26232523      -4.46600302
Si       2.25195553      -1.29070738       3.13261136       1.30196003       1.17150395       1.06676006
Si      -1.47057516       5.92722049       6.04857281       0.29251268       0.68929314      -0.03645702
Si      -0.94390089       4.91872762      11.81139111       0.64282638      -0.37155508       0.61257412
Si       2.15208071       7.99811752       2.10052283       0.98834022      -1.30273335       0.24367897
Si      -0.73274881      -2.34535684       8.43481305       1.81859443       3.38903554      -3.44756458
Si      -0.76125680       8.01948185       2.69277710      -0.34247703      -0.33729277       3.19610709
Si      -0.65776283       1.07783279      12.83271685      -0.41660585      -0.17681606      -0.11854276
Si      -1.10223116      -0.15065104      10.15371571       0.72597886      -0.77763740       0.05997091
Si      -0.83270870       5.91328312       0.00651672       0.41660542      -0.86128576      -1.21453662
Si       1.08504995       9.98510037       0.63714704       0.85345787       1.28164523      -0.77922874
Si       3.03307011      -1.74101375       5.81538354      -0.52091296      -0.12605525      -0.70142626
Si       2.98558675      -2.34328192       9.49466229      -0.60130135       4.12554228       2.41363248
Si       1.99064575       0.34569466       4.61592122      -0.06298868       1.00249977       1.36670710
Si       0.34339652       2.38430270       1.41728977      -1.30565682      -0.19893302       0.53312228
22
Lattice="5.524183179070389 -0.23562869562193056 -0.2952771198297716 -1.420401401941482 11.018536182821343 -0.22009844789547608 -2.3600216545937833 -5.440277303092051 13.882516709062957" Properties=species:S:1:pos:R:3:forces:R:3 unique_starting_index=340 config_type=initial n_minim_iter=9 energy=-3559.0320429478707 stress="0.014283556560558394 0.01668172569411711 0.016904635286742388 -0.0006788827963295238 0.004084066667308065 0.00011462256747227818" pbc="T T T"
Si       0.05297730      -3.14706728      10.61419861      -0.27255867       0.10812758       0.85218258
Si       0.89920699       7.60037968       7.62268850      -1.60339084       0.16919644      -1.42965025
Si      -1.07877363       5.89595425       2.31229514       0.39546643      -0.87368603       0.13320173
Si       2.54235579       6.41436280       8.60593023      -0.19852953      -1.48227857       1.32614106
Si      -0.71749300       3.90520114       5.13606961       0.26538940      -0.39086380      -1.07074394
Si       3.20348696      -4.13529208      11.06834073      -0.00266600      -1.32299765       0.78078753
Si       3.11473138       2.31667784       5.62574206      -0.91916853      -0.12013210      -0.31168763
Si       3.69738245       7.70494843       0.58023965      -0.29222304       0.51099491      -2.57521139
Si       2.27179429      -1.29004608       3.22571058       1.03054029       1.22834766       0.70660351
Si      -1.37960599       6.09055792       6.16015419       0.32541552       0.48042355      -0.22956706
Si      -0.81762733       5.05432039      12.04885689       0.63331262      -0.34619391       0.55562673
Si       2.23350970       8.21856117       2.17437930       1.44917708      -1.44807810       0.36357950
Si      -0.66790935      -2.36315994       8.53301835       1.04506892       2.08412124      -1.54512896
Si      -0.69035202       8.22727866       2.79844738      -1.41050169      -1.02608090       1.21466469
Si      -0.56506396       1.11769910      13.07788108      -0.21830828      -0.02053983       0.13531325
Si      -1.02210549      -0.15983862      10.34239206       0.83146288      -1.54984442      -0.28932269
Si      -0.77982753       6.05563897      -0.01139241       0.11452508      -0.81619608      -0.81093228
Si       1.17044043      10.27889486       0.65871107       0.97155678       1.22668064      -0.54033735
Si       3.04865194      -1.75418981       5.94380533      -0.13651369      -0.31247658      -0.46251448
Si       3.01220233      -2.31988601       9.73854612      -0.78945223       2.85377757       1.31880864
Si       2.01687586       0.38958826       4.74445827       0.04852333       1.33777243       1.24109178
Si       0.35396443       2.45223170       1.46127681      -1.26712580      -0.29007408       0.63709503
22
Lattice="5.39625262898816 -0.2304033842526734 -0.32708640297086444 -1.387961971997476 10.716269856309063 -0.192551671730876 -2.388430767417136 -5.274491935338984 13.508165767203165" Properties=species:S:1:pos:R:3:forces:R:3 unique_starting_index=340 config_type=initial n_minim_iter=10 energy=-3559.7140352962188 stress="0.0017783807659442832 -0.004308240340018717 -0.00331922833495793 0.000885735459235422 1.7105174446075254e-05 0.000124205469991058" pbc="T T T"
Si      -0.01361639      -3.04814263      10.31867332       0.58721033      -0.11673076       1.42736220
Si       0.82599966       7.40164246       7.40761342      -2.18986294       0.12628837      -2.17062384
Si      -1.06759726       5.73462538       2.26224769       0.35064666      -1.42432308       0.85192227
Si       2.42799118       6.24388915       8.35984912      -0.04567270      -1.80188046       0.53862503
Si      -0.73174403       3.80320582       4.99870973       0.82299630      -0.03277994      -1.06207513
Si       3.06136046      -4.01316583      10.73635886      -0.28917136      -1.86141993       1.20244726
Si       3.00431510       2.25910382       5.44854920      -0.98117124      -0.29627426       0.14467581
Si       3.60530858       7.49546745       0.53639183      -0.35194381       0.56470982      -3.26965874
Si       2.20118297      -1.24826784       3.12036180       1.42308873       1.21172678       0.86889890
Si      -1.38532866       5.93215234       6.00411556       0.28594805       0.55047922       0.07637940
Si      -0.87163529       4.92869934      11.72680619       0.37101141      -0.30228571       0.48403023
Si       2.17009071       7.99100524       2.10721704       1.02055965      -1.48439343       0.21281988
Si      -0.70114619      -2.28267544       8.29229685       1.16007865       2.21350869      -2.80148967
Si      -0.69688520       8.00235343       2.73882273      -1.18134979      -0.67179288       2.44335224
Si      -0.63269595       1.10234573      12.72017855      -0.49878033      -0.33543325      -0.28831533
Si      -1.05871497      -0.14758082      10.06109279       0.99844435      -0.60860377       0.11280248
Si      -0.76193951       5.88751720      -0.00205439       0.49342890      -0.91514746      -1.32417878
Si       1.13927144      10.00069630       0.64007550       0.91902764       1.22673481      -0.51522814
Si       2.94085961      -1.70039395       5.75336040      -0.50387549      -0.04164269      -0.66892752
Si       2.87913171      -2.23766408       9.44831674      -1.05290542       3.45819188       2.05755525
Si       1.93979644       0.38755007       4.60260388      -0.12110688       0.83896896       1.32687700
Si       0.33267978       2.38602615       1.42327054      -1.21660068      -0.29790090       0.35274918
22
Lattice="5.383955335883242 -0.2314629384146372 -0.3274122133632374 -1.3879116052480542 10.776314243828875 -0.20675702985511385 -2.3838144819805622 -5.318259547476848 13.572356973627953" Properties=species:S:1:pos:R:3:forces:R:3 unique_starting_index=340 config_type=initial n_minim_iter=11 energy=-3559.971112808061 stress="0.0038689684614201456 -0.0007096285005513799 0.0005236538931338821 0.0002413025352604593 0.0005719139718176243 -0.0001035178981521898" pbc="T T T"
Si      -0.01364975      -3.07666268      10.37068465       0.52760567      -0.03383929       1.25644577
Si       0.81637434       7.43596059       7.42489121      -2.08319760       0.16449964      -1.98326796
Si      -1.06646488       5.76092894       2.26724630       0.34825521      -1.31309919       0.69849637
Si       2.41911238       6.26573145       8.39020521      -0.06026902      -1.58938119       0.52477336
Si      -0.72999958       3.81901567       5.01215861       0.75098756      -0.03945944      -1.02333117
Si       3.05293198      -4.05127244      10.79159750      -0.29417596      -1.70950544       1.00517527
Si       2.99361739       2.26534925       5.47035352      -0.95002305      -0.26355708       0.08871448
Si       3.59472938       7.53831699       0.52073757      -0.23932223       0.54334657      -3.04024793
Si       2.19855307      -1.25627296       3.13758030       1.41641420       1.19413851       0.80037728
Si      -1.38448736       5.96005848       6.02250418       0.27812145       0.49181037       0.03482851
Si      -0.87248880       4.94294779      11.77233037       0.34352837      -0.29371917       0.48051227
Si       2.16477465       8.02980611       2.10725149       1.05729252      -1.50289946       0.24041688
Si      -0.69745459      -2.29922909       8.32209605       1.07847491       2.02769038      -2.46999964
Si      -0.70128331       8.04257741       2.74802004      -1.27926363      -0.79408341       2.22000104
Si      -0.63481583       1.09434523      12.77275769      -0.46110055      -0.34739190      -0.23924468
Si      -1.05580357      -0.16064034      10.10446905       1.01614108      -0.64073007       0.09620770