24
Lattice="3.766903219131088 0.3167038399772564 0.7209718278708376 -1.0128996315873016 11.391135471343505 0.6859164756504001 -0.09898160684448584 -3.070605276558344 10.55241292450361" Properties=species:S:1:pos:R:3:forces:R:3 unique_starting_index=438 config_type=initial n_minim_iter=1 energy=-3908.826959288651 stress="0.00038890078012274144 -0.00024581702202303754 -0.0002797078444461028 -0.00024581702202303754 0.00014856722598299545 8.58223811142173e-05 -0.0002797078444461028 8.58223811142173e-05 0.0001092652091969674" free_energy=-3908.826959288651 pbc="T T T"
Si       0.51058227      -2.55921365       9.07950099      -0.04234134      -0.00641150       0.05076946
Si       2.08559946      -1.77182639      10.69975023       0.07588593       0.00092717      -0.10212367
Si       0.25626086       1.62851245      10.10659805      -0.01705311       0.05342711      -0.01430706
Si       1.09622178       5.23430660       5.07875246      -0.10592485      -0.04400842       0.03026755
Si       2.30962849       0.55111906       9.87944600       0.08544724       0.00518365      -0.05162515
Si       2.19807314       7.23665590       2.07686092      -0.00910637      -0.01770679       0.02981565
Si       2.25613417       1.84875509       5.83714692      -0.06641408      -0.14020645       0.12341960
Si       1.34947530       4.10544078       3.02580851      -0.16438613      -0.01259559       0.02668763
Si       0.06483726       2.44639069       6.59311803       0.03654148      -0.06069600      -0.08334673
Si       2.79849714       4.82959598       6.67628155       0.07645055       0.09256884      -0.06999224
Si       0.98477609       7.26318782      12.28763511      -0.05508122      -0.05397556      -0.00509620
Si       2.88365580       0.30547770       7.59092383      -0.08632685      -0.00228237       0.06017632
Si       3.31492348       5.18693294       2.43768961       0.15909785       0.04070525      -0.14821272
Si       0.61589262      -0.87840871       4.95344014       0.05377073       0.05043583       0.05916568
Si       1.14395230      -1.26114409       7.20881807      -0.07394488       0.11805800      -0.08207822
Si      -0.19936515       6.57986504       9.04830434       0.02000253      -0.01489836       0.08103871
Si       1.36950876       3.82299921      10.29992740      -0.04023481      -0.02840831       0.01884151
Si      -0.16172095       5.49332342      11.13519797       0.06383548      -0.00363362       0.07507339
Si       2.83912123       8.85130974       5.17155341       0.00696014      -0.06789826       0.03072694
Si       1.93643134       5.59681874       8.72621273       0.07519812       0.00946563       0.10816232
Si       1.68198724       1.84725838       2.47165933      -0.05173491       0.07808762       0.07023402
Si      -1.06119751      10.08159840       2.69590961      -0.03309566      -0.01504273      -0.06068858
Si       1.14951456       7.46085246       4.24767335       0.05119603       0.00173294      -0.12744360
Si      -0.30165520       0.75452644       3.16350590       0.04125814       0.01717192      -0.01946459
24
Lattice="3.762566472825261 0.3196938319559026 0.7244403323164545 -1.000509683350642 11.383815885840626 0.6810308502240212 -0.09080078935217042 -3.072336303189352 10.549057923988617" Properties=species:S:1:pos:R:3:forces:R:3 unique_starting_index=438 config_type=initial n_minim_iter=2 energy=-3908.8286845440107 stress="-0.001453813129716117 0.0004644642984194421 0.000487703077437792 0.0004644642984194421 -0.0008728656056916109 -0.00014817466383592264 0.000487703077437792 -0.00014817466383592264 -0.0008367926660625565" free_energy=-3908.8286845440107 pbc="T T T"
Si       0.51651681      -2.56026286       9.07759581      -0.01178045       0.00175335       0.04115427
Si       2.09258457      -1.77233664      10.69736507       0.04435196       0.00409791      -0.08881749
Si       0.26757356       1.62510471      10.10219782      -0.02795450       0.06489094      -0.04569150
Si       1.10373975       5.23050733       5.07643887      -0.08004557      -0.02070962       0.03428310
Si       2.31762000       0.54983810       9.87728498       0.10653303      -0.00494437      -0.03698229
Si       2.20351001       7.23390798       2.07624376      -0.00892959      -0.00843012       0.01196647
Si       2.26004222       1.84684791       5.83751080      -0.03575273      -0.14128731       0.11763895
Si       1.35305835       4.10337312       3.02490025      -0.14494720      -0.00245255       0.02136028
Si       0.07397977       2.44257468       6.58912883       0.00408619      -0.05694008      -0.07439407
Si       2.80629274       4.82811872       6.67441421       0.05446344       0.08329942      -0.07415011
Si       1.00205491       7.25584534      12.28141294      -0.02674089      -0.04415078      -0.01511312
Si       2.88692257       0.30550480       7.59121720      -0.10261720       0.00559527       0.04302943
Si       3.31861309       5.18665031       2.43732033       0.13457919       0.02649905      -0.11735910
Si       0.61971872      -0.87853600       4.95283074       0.06296910       0.04597550       0.04490248
Si       1.14799068      -1.26076656       7.20685953      -0.05477359       0.09298028      -0.07003394
Si      -0.18374316       6.57315205       9.04305478      -0.00403299      -0.01093443       0.07388520
Si       1.38122755       3.81869740      10.29616072      -0.00961496      -0.04679937       0.00752785
Si      -0.14465032       5.48666876      11.12944744       0.03492856       0.00779707       0.08005922
Si       2.84839181       8.84689616       5.16985638      -0.03563360      -0.05047258       0.03447007
Si       1.94823311       5.59285379       8.72379972       0.09685344       0.00894469       0.11411580
Si       1.68338182       1.84760294       2.47236361      -0.03717370       0.06815037       0.06137869
Si      -1.04811903      10.07419860       2.69010621      -0.05680781      -0.03153506      -0.04361965
Si       1.15933832       7.45651142       4.24381254       0.06960693      -0.01135334      -0.10387171
Si      -0.29698586       0.75298707       3.16154374       0.02843295       0.02002575      -0.01573883
24
Lattice="3.767726026807727 0.32304286948441546 0.7296569443308896 -0.9914340660014923 11.39959278944781 0.6773106103016335 -0.08205742012711462 -3.0804980280275944 10.568341610497342" Properties=species:S:1:pos:R:3:forces:R:3 unique_starting_index=438 config_type=initial n_minim_iter=3 energy=-3908.8331954988316 stress="0.00046961300956567206 0.0010837237178196253 0.0013020053187798649 0.0010837237178196253 0.0015489890662623944 -0.0004750737934493193 0.0013020053187798649 -0.0004750737934493193 0.0014410757238177867" free_energy=-3908.8331954988316 pbc="T T T"
Si       0.52380139      -2.56679268       9.09615043       0.04672092       0.02554034       0.01055186
Si       2.10683466      -1.77676125      10.71607651       0.00090560       0.00617973      -0.05852696
Si       0.27956732       1.62590975      10.11888609       0.00507727       0.03708068      -0.07257551
Si       1.11199465       5.23638563       5.08557238      -0.02309543       0.01782310       0.01162594
Si       2.33380138       0.54933360       9.89545428       0.08812318       0.01734841      -0.01115604
Si       2.21390309       7.24530696       2.08050929       0.02119894      -0.00226284      -0.03148474
Si       2.26871402       1.84556614       5.85288927       0.02285458      -0.14718028       0.11083422
Si       1.35676262       4.10925946       3.03094159      -0.05555069       0.06007640      -0.00557343
Si       0.08397601       2.44237130       6.59758965      -0.06100361      -0.03266928      -0.09827980
Si       2.82254020       4.83786627       6.68545178       0.00867074       0.05700843      -0.03226503
Si       1.02108660       7.26184363      12.30120463      -0.00645535      -0.03779411       0.00016969
Si       2.89600796       0.30578732       7.60898842      -0.11113649       0.00271951       0.01853785
Si       3.33342107       5.19729881       2.43949416       0.01994034      -0.01128795      -0.06333042
Si       0.62658559      -0.87960717       4.96396290       0.05169679       0.01064017       0.01481494
Si       1.15405844      -1.26098666       7.21884700      -0.05525489       0.06843577      -0.02590122
Si      -0.16834397       6.57929511       9.05859065      -0.00982917      -0.03683899       0.09701353
Si       1.39611444       3.82110536      10.31472312       0.01097363      -0.02794326       0.01953761
Si      -0.12666903       5.49090703      11.14894274       0.00618261      -0.00038794       0.06002813
Si       2.86430600       8.85883376       5.17983920      -0.04050685       0.01057834      -0.00393859
Si       1.96667390       5.60007302       8.74226783       0.10212876       0.00217605       0.09135836
Si       1.68809302       1.85300485       2.47975460      -0.00847369       0.04546071       0.04791852
Si      -1.03910846      10.08678533       2.68869483      -0.08580190      -0.04440793      -0.00620290
Si       1.17291680       7.46703466       4.24655627       0.07150714      -0.03083880      -0.04780699
Si      -0.29221547       0.75329471       3.16595470       0.00112757       0.01054372      -0.02534902
24
Lattice="3.767879332438232 0.3179056816616771 0.7235045756953736 -1.0083760828201154 11.384061318929595 0.6854164989967747 -0.09389755203460863 -3.0690233224604437 10.556972671088532" Properties=species:S:1:pos:R:3:forces:R:3 unique_starting_index=438 config_type=initial n_minim_iter=4 energy=-3908.839583567475 stress="4.26593764272206e-05 -0.00013958814138439056 2.3142996494866613e-05 -0.00013958814138439056 -5.590338184897925e-06 -0.00020906756946762752 2.3142996494866613e-05 -0.00020906756946762752 -0.0002605645543637991" free_energy=-3908.839583567475 pbc="T T T"
Si       0.51264638      -2.55789310       9.08746429       0.04136859       0.02763730      -0.04799482
Si       2.09664165      -1.77003913      10.69793291      -0.00162749       0.01767161       0.01245011
Si       0.26142971       1.63185609      10.10911748       0.08915581      -0.00630821      -0.11286131
Si       1.09369493       5.22874501       5.08389516       0.04382739       0.04362274      -0.02959475
Si       2.32313362       0.55178747       9.88141124      -0.01178337       0.05251440       0.01453227
Si       2.20166959       7.23201259       2.08070212       0.03674998      -0.01139936      -0.03779174
Si       2.25619961       1.83716084       5.85067038      -0.00084550      -0.13742989       0.01123622
Si       1.34069563       4.10300306       3.02971310       0.06597406       0.10664959      -0.00661810
Si       0.07151656       2.44022503       6.58938794      -0.03971568       0.02423803      -0.06911826
Si       2.80994833       4.83474092       6.67526691      -0.06594862       0.01794032       0.05985714
Si       0.99117957       7.25501729      12.29285042      -0.01444261      -0.00012938       0.00916413
Si       2.88129397       0.30621108       7.60020453      -0.04778252      -0.00680284       0.02856831
Si       3.33025547       5.18783200       2.42973473      -0.13343145      -0.04560244       0.00901036
Si       0.62301151      -0.87399670       4.96022688       0.03134255       0.00764349      -0.04996713
Si       1.14239428      -1.25136271       7.20655811      -0.08871644       0.00954862       0.04544235
Si      -0.19055384       6.57454144       9.05841778       0.06485786      -0.00327684       0.09139106
Si       1.37474256       3.81850266      10.30643868       0.01264977      -0.00086201       0.02584675
Si      -0.14879735       5.48976998      11.14583631       0.01895508      -0.04519162       0.05154199
Si       2.84538020       8.84234962       5.17766088       0.03020756       0.01728978       0.00205380
Si       1.95041074       5.59481599       8.73970225       0.03838649      -0.02055973       0.00476214
Si       1.68067073       1.85265297       2.47903486       0.02350976       0.01264568      -0.00571753
Si      -1.05929550      10.07360705       2.69198621      -0.05168523      -0.02908869       0.02020137
Si       1.15942752       7.45658246       4.24068537      -0.00487162      -0.02904332      -0.03931646
Si      -0.29666581       0.75530491       3.16316485      -0.03613438      -0.00170722       0.01292209
24
Lattice="3.7660791369338806 0.3214174444923544 0.7232973979007287 -1.0004648713017585 11.378690286329771 0.7042584770554922 -0.1006341776056767 -3.0513728242589795 10.56667479653829" Properties=species:S:1:pos:R:3:forces:R:3 unique_starting_index=438 config_type=initial n_minim_iter=5 energy=-3908.841057198433 stress="-0.00024756004793584314 0.00029243811157782766 -0.00018682078873796077 0.00029243811157782766 -0.0003879838034948933 0.0007714656221460738 -0.00018682078873796077 0.0007714656221460738 0.0007023973831268133" free_energy=-3908.841057198433 pbc="T T T"
Si       0.50697139      -2.54195161       9.09543849       0.04997706       0.02098049      -0.03930385
Si       2.09033413      -1.75106163      10.70806443      -0.01543668       0.01540362       0.02647585
Si       0.25904756       1.64714735      10.12336029       0.04857158       0.00374581      -0.07429913
Si       1.09421859       5.23494170       5.09821364       0.04272621       0.01605325      -0.05609123
Si       2.31882138       0.56902417       9.89443462       0.00974793       0.05015009      -0.00353844
Si       2.20515708       7.23274910       2.09329318       0.01609419       0.00919254      -0.02619222
Si       2.25331972       1.84333228       5.86182857       0.01049646      -0.12404656      -0.01564730
Si       1.34099818       4.10799700       3.03965985       0.07141063       0.10310361       0.02562889
Si       0.06983879       2.44890678       6.60022416      -0.04824113       0.01367847      -0.08066282
Si       2.80872108       4.84557394       6.69070246      -0.06943478       0.03235555       0.09405215
Si       0.98957243       7.27035390      12.32033059      -0.02852480      -0.00100648       0.00480408
Si       2.87520920       0.31955762       7.61066928      -0.05693248      -0.01598621       0.06033083
Si       3.33069442       5.19087083       2.43830100      -0.11951765      -0.06498787      -0.02796534
Si       0.62094438      -0.86497126       4.96516064       0.02817525      -0.01462967      -0.06435299
Si       1.13586822      -1.23769818       7.21384982      -0.07284462       0.01290510       0.04081112
Si      -0.18895651       6.58476119       9.08305738       0.04521677       0.00043800       0.07606549
Si       1.37204901       3.83296355      10.32624965       0.02468009      -0.00449114       0.03603726
Si      -0.14914396       5.50331925      11.17098628       0.02072322      -0.03766292       0.06432534
Si       2.84819086       8.84745191       5.19730742       0.01444730       0.01683191       0.01023123
Si       1.95085716       5.60650508       8.76046758       0.06199080      -0.01187196      -0.01482028
Si       1.67997303       1.85757369       2.48508887       0.01649987       0.01475688      -0.03099302
Si      -1.05433495      10.07129470       2.71134439      -0.03984078      -0.00429418       0.01936511
Si       1.16261595       7.45964400       4.25565933       0.02071752      -0.01225758      -0.04872291
Si      -0.29759588       0.75971396       3.16874866      -0.03070197      -0.01836073       0.02446218
24
Lattice="3.7676673643088026 0.32429425883172763 0.720969657274155 -0.9937315604904796 11.4042853282992 0.6988422502419154 -0.10737187428350868 -3.063587731475151 10.560703290623573" Properties=species:S:1:pos:R:3:forces:R:3 unique_starting_index=438 config_type=initial n_minim_iter=6 energy=-3908.8522506457584 stress="7.51326515558431e-05 0.0003787191039793829 -0.0005671324171284104 0.0003787191039793829 0.0010067736801363156 0.00024751224419740917 -0.0005671324171284104 0.00024751224419740917 -0.0005636750092693117" free_energy=-3908.8522506457584 pbc="T T T"
Si       0.50587583      -2.54806242       9.08673933       0.03078210      -0.01255757      -0.01982714
Si       2.08961869      -1.75612813      10.69505674      -0.02105099       0.03365763       0.08743282
Si       0.26629537       1.65016481      10.09757606      -0.03781497       0.05378097       0.07284512
Si       1.09498045       5.24838594       5.08867380      -0.01182590       0.05537577       0.03222156
Si       2.32221533       0.57532172       9.88411776      -0.00140091      -0.01695208       0.07831064
Si       2.21429495       7.24797655       2.08374544       0.03892894      -0.00304955      -0.03406154
Si       2.24909186       1.81473460       5.86640133      -0.01281866      -0.07602957      -0.12155091
Si       1.34097845       4.13267098       3.03693785       0.00849520      -0.07109344      -0.08046389
Si       0.06384354       2.45012274       6.57682558      -0.06068603       0.10147257      -0.07379373
Si       2.80550411       4.86581583       6.68719404       0.03701365      -0.01463084       0.04068471
Si       0.98312107       7.27797701      12.30846125      -0.05563722       0.06931723       0.00173740
Si       2.85833634       0.31720506       7.61350063      -0.01579127      -0.09109410       0.00637881
Si       3.32634490       5.19909665       2.42189784       0.01689775      -0.04150241      -0.09417327
Si       0.62754575      -0.86490580       4.95799626       0.01790139      -0.04862891      -0.08290382
Si       1.11415869      -1.23299737       7.20950868      -0.02406115      -0.01399067       0.03594574
Si      -0.17878038       6.59402614       9.09342024       0.04010313      -0.02965023       0.01650917
Si       1.37062524       3.83505068      10.32213765       0.06296677       0.03902799      -0.03353633
Si      -0.14346844       5.50424032      11.17479837      -0.01077048      -0.05516767       0.02844714
Si       2.85637498       8.86558794       5.19104194      -0.00538688       0.01556885      -0.03588361
Si       1.96485168       5.61468897       8.75958264       0.00750011       0.03617897       0.06448834
Si       1.68056129       1.86970731       2.48536558      -0.03245204       0.03960594      -0.04290864
Si      -1.06028042      10.08756719       2.70397688       0.02077632       0.03384909       0.08211177
Si       1.17100228       7.47167383       4.23314823      -0.00048980       0.03891834       0.07907282
Si      -0.30106165       0.76033119       3.16703457       0.00882095      -0.04240630      -0.00708316
24
Lattice="3.7694822433880115 0.31983429246642026 0.725654442922222 -1.0041576100191827 11.38548860119847 0.6930138885679878 -0.0939348804581129 -3.063666990482141 10.577847088877679" Properties=species:S:1:pos:R:3:forces:R:3 unique_starting_index=438 config_type=initial n_minim_iter=7 energy=-3908.8538532113434 stress="0.00030628539274591326 -0.00023503916675808904 0.00011335258262972446 -0.00023503916675808904 -0.0001645538537434081 4.946773276006543e-05 0.00011335258262972446 4.946773276006543e-05 0.0003358769857633545" free_energy=-3908.8538532113434 pbc="T T T"
Si       0.51837058      -2.54837762       9.10144716       0.02991435       0.00433746      -0.00051326
Si       2.10315536      -1.76002748      10.71374678      -0.02652586       0.02783550       0.08762575
Si       0.27622409       1.64268173      10.10992981      -0.04206492       0.04537550       0.10603056
Si       1.09547891       5.23656660       5.09434595       0.01168232       0.03476230       0.05542980
Si       2.33320459       0.56813387       9.90098950      -0.00637406      -0.01295311       0.06858996
Si       2.21115215       7.23223665       2.08462817       0.01304749      -0.02041237      -0.03175520
Si       2.25359196       1.80205342       5.87714049      -0.02011162      -0.07129315      -0.13189244
Si       1.34057762       4.12462897       3.04050372      -0.04908355      -0.06602640      -0.09012975
Si       0.06716913       2.44291714       6.58274629      -0.05436789       0.09345064      -0.07838130
Si       2.80810805       4.85271475       6.69834468       0.01355053      -0.01533282       0.02007650
Si       0.98791604       7.25824885      12.32407655      -0.02235687       0.07167654       0.04000641
Si       2.86471244       0.30947738       7.62876829       0.01073176      -0.07788232       0.01125640
Si       3.32388874       5.18498941       2.42441216       0.07914053      -0.03930271      -0.09390023
Si       0.63482623      -0.86629799       4.96544408       0.02244876      -0.03139837      -0.04631254
Si       1.12045957      -1.23443921       7.22231914      -0.04675094      -0.02385600      -0.00339798
Si      -0.17442953       6.57800102       9.10602224       0.05425959      -0.05310138       0.02772264
Si       1.37822279       3.82181207      10.33743151       0.06927660       0.05428900      -0.02381687
Si      -0.13668039       5.48817838      11.19039629       0.00679404      -0.03724254      -0.00971207
Si       2.85469204       8.84508486       5.19723058      -0.00221460       0.00485567      -0.05592726
Si       1.97082694       5.59872348       8.77306041      -0.00699569       0.03672807       0.05732378
Si       1.68177745       1.86485133       2.48998714      -0.00009727       0.02154662      -0.03747236
Si      -1.06882533      10.06950972       2.70204542      -0.00306964       0.02284566       0.06746571
Si       1.16922843       7.45534410       4.23519243      -0.01275777       0.05815661       0.07571320
Si      -0.29905247       0.75755954       3.17113124      -0.01807529      -0.02705838      -0.01402944
24
Lattice="3.7617167496924124 0.32335108353921344 0.7226774169000596 -0.9871778405028521 11.38756353308323 0.6670290045846812 -0.10656379406212046 -3.090797808055392 10.598263261596196" Properties=species:S:1:pos:R:3:forces:R:3 unique_starting_index=438 config_type=initial n_minim_iter=8 energy=-3908.8614797150876 stress="-0.0014383303497907344 0.0006616323614150899 -0.0004464465473781804 0.0006616323614150899 -0.000865700801361158 -0.001210892574405503 -0.0004464465473781804 -0.001210892574405503 0.00026740635406948595" free_energy=-3908.8614797150876 pbc="T T T"
Si       0.51232073      -2.56851656       9.11505570      -0.01720853      -0.00468252       0.04298633
Si       2.08674837      -1.77973445      10.73567781       0.01882104       0.01736027       0.02829688
Si       0.27246253       1.62491591      10.11636927      -0.05240921       0.07608776       0.07073849
Si       1.09798247       5.23414640       5.08919646      -0.04576451       0.00761008       0.01730499
Si       2.32307127       0.55091864       9.91580787       0.02635144      -0.05488099       0.03278013
Si       2.21923765       7.23109236       2.06225073      -0.03216982      -0.00770502       0.05543064
Si       2.24390615       1.76919036       5.87083551      -0.04599348      -0.07485443      -0.03519806
Si       1.33945786       4.12425145       3.02592645      -0.05622161      -0.03027945      -0.01257227
Si       0.05672825       2.43680160       6.56915663      -0.01914858      -0.00310054      -0.09667499
Si       2.80129739       4.84554823       6.69842965       0.07378586       0.06731937      -0.03947249
Si       0.98044088       7.23777435      12.32376712      -0.02785572       0.06456717       0.03846550
Si       2.84611478       0.28714009       7.64038492      -0.03780328       0.00083942      -0.01552082
Si       3.32046870       5.17899927       2.40003209       0.07242329      -0.00736147      -0.03752351
Si       0.63463668      -0.87938105       4.96495370       0.04109973       0.00246108       0.03831915
Si       1.09766574      -1.24891382       7.23553647       0.00498101      -0.06944765      -0.04412303
Si      -0.16267110       6.55381648       9.11369112      -0.00775930      -0.00095870       0.04771582
Si       1.37891492       3.80352907      10.34014269       0.07479991       0.00727410      -0.07671727
Si      -0.13489620       5.45592663      11.19793884       0.00182824       0.02239495      -0.02061025
Si       2.85820257       8.84099509       5.17645009      -0.04603965       0.01417652      -0.05265909
Si       1.97354698       5.58452954       8.77725951       0.03243472      -0.00582338       0.05027178
Si       1.67886557       1.86754197       2.48466182      -0.05672024      -0.04988151      -0.00264946
Si      -1.06073799      10.06536816       2.68842464       0.01239006      -0.00152505       0.03074999
Si       1.17470211       7.45223577       4.22119504       0.03983566      -0.01132362       0.03548944
Si      -0.30311369       0.74716741       3.17308532       0.04634296       0.04173363      -0.05482789
24
Lattice="3.764515749963788 0.3233784373383601 0.7273330343634006 -0.9904048879918289 11.400142403875869 0.6792930733907572 -0.0910098583208447 -3.080318806401226 10.580035149842793" Properties=species:S:1:pos:R:3:forces:R:3 unique_starting_index=438 config_type=initial n_minim_iter=9 energy=-3908.8645538501455 stress="-0.0008213827339410536 0.00040319325392211385 0.0006572785993161477 0.00040319325392211385 -0.0006043394120126659 -8.179551598644031e-05 0.0006572785993161477 -8.179551598644031e-05 -0.0010898053951586995" free_energy=-3908.8645538501455 pbc="T T T"
Si       0.52819815      -2.55862513       9.09936041      -0.03215455      -0.05540957       0.10553876
Si       2.10328892      -1.76664603      10.72409414       0.01763948       0.00106228      -0.00544799
Si       0.28711288       1.64228473      10.10452792      -0.01216629       0.05330315      -0.01161689
Si       1.10390753       5.24788518       5.09161776      -0.03351937      -0.01352356       0.00634602
Si       2.33912275       0.56471131       9.90880228       0.01530427      -0.03674022       0.05320811
Si       2.22257486       7.23914083       2.06986652      -0.04180700      -0.03798663       0.07179931
Si       2.25086932       1.76699147       5.86604112      -0.05047728      -0.03323177       0.00391247
Si       1.34139485       4.13333952       3.02623212      -0.06845673      -0.03611470       0.01351390
Si       0.06165366       2.45078804       6.55606135      -0.02187250      -0.04775776      -0.12353909
Si       2.81003582       4.86023516       6.70163064       0.06459594       0.07507727      -0.05836393
Si       0.99295680       7.26234107      12.31934222      -0.01573553       0.04685292       0.03806255
Si       2.85430354       0.29304346       7.63708664      -0.04823028       0.00173141      -0.04368307
Si       3.32384850       5.18337455       2.40213254       0.04870692       0.02117901       0.04381643
Si       0.64524716      -0.87444524       4.95515660       0.04013575      -0.01210488       0.04220947
Si       1.10266519      -1.24002152       7.22621269       0.04361730      -0.03774994      -0.07535182
Si      -0.14800530       6.57001379       9.11569049      -0.03593237       0.04121914       0.00022733
Si       1.39552190       3.82124522      10.33319132       0.06934640      -0.00946302      -0.06442485
Si      -0.11952916       5.47268071      11.19317436       0.02934802       0.04289862       0.01643242
Si       2.86446998       8.85553958       5.18338491      -0.04808362      -0.01254674      -0.00481286
Si       1.98815235       5.60141187       8.77977806       0.06028124       0.02950222       0.04393963
Si       1.68204355       1.87457062       2.48542923      -0.05362752      -0.05220064       0.01986067
Si      -1.06336139      10.07878592       2.69873826      -0.00909028       0.03840356      -0.02497599
Si       1.17969548       7.46546490       4.22591653       0.03618017      -0.00241649       0.03702732
Si      -0.30004709       0.75127309       3.16893168       0.04599782       0.03601635      -0.08367793
24
Lattice="3.761421635232246 0.3206548688087494 0.7263520282223359 -1.0000527908537034 11.41434102083481 0.6838460406792964 -0.09464696052337192 -3.081194939529657 10.597089032824218" Properties=species:S:1:pos:R:3:forces:R:3 unique_starting_index=438 config_type=initial n_minim_iter=10 energy=-3908.86783943718 stress="-0.0009504029794920855 -0.0004629004788146846 0.00013689883681764877 -0.0004629004788146846 0.0005406490911269989 8.838631798133518e-05 0.00013689883681764877 8.838631798133518e-05 6.0974774069712756e-05" free_energy=-3908.86783943718 pbc="T T T"
Si       0.52587826      -2.55952306       9.11480347      -0.02666135      -0.06107830       0.08163017
Si       2.09878964      -1.76600011      10.74039915       0.01331940       0.00277632       0.01302587
Si       0.28079594       1.65077972      10.11944190       0.02497642       0.02407909      -0.01834530
Si       1.09358411       5.25569833       5.10193000       0.01152769      -0.00270588      -0.05011758
Si       2.33426318       0.56717854       9.92608750      -0.02141258      -0.02697230       0.03837076
Si       2.21479349       7.24412318       2.07322708      -0.04224205      -0.04624558       0.08037020
Si       2.24092250       1.75402155       5.87541443      -0.04688058      -0.02526938      -0.02623685
Si       1.33033369       4.13956983       3.02974552      -0.01389759      -0.02087711       0.04127118
Si       0.05235114       2.45641376       6.55649784      -0.02857872      -0.04670332      -0.13455746
Si       2.80134661       4.87018468       6.71289862       0.02204387       0.06570637      -0.00389521
Si       0.97469508       7.27418056      12.34308047      -0.01318527       0.05494581       0.03826317
Si       2.84134151       0.28970599       7.65159489      -0.02590311       0.02371654      -0.02237508
Si       3.31815100       5.18501384       2.39774086      -0.02472899       0.03094075       0.07963202
Si       0.64741956      -0.87432008       4.96136263       0.02683609      -0.02406167       0.02858861
Si       1.09152779      -1.23754267       7.23554931       0.02926612      -0.08076298      -0.04988953