18
Lattice="5.188727551409629 0.367120371472874 -6.861258061587049e-15 -0.05951009765076622 8.313805243912649 -7.070393455054582e-16 1.7382933110633908e-14 1.2485812836478339e-15 13.509897655369398" Properties=species:S:1:pos:R:3:forces:R:3 unique_starting_index=242 config_type=initial n_minim_iter=7 energy=-2925.6622104387307 stress="-7.300628630738185e-05 -3.9537650452688765e-05 -1.0790140731681978e-12 -3.9537650452688765e-05 -3.310041099977051e-05 -4.3219345817835907e-13 -1.0790140731681978e-12 -4.3219345817835907e-13 0.0001535329796953132" free_energy=-2925.6622104387307 pbc="T T T"
Si       2.22004301       5.44983651       0.41785336       0.00250384       0.00149526       0.00900222
Si       0.31481067       3.04752891       7.17280219      -0.00250384      -0.00149526       0.00900222
Si       2.90917444       3.23108910      13.09204430      -0.00250384      -0.00149526      -0.00900222
Si       4.81440679       5.63339670       6.33709547       0.00250384       0.00149526      -0.00900222
Si       3.74585209       4.21274181       2.08807468       0.00092590       0.00516630      -0.00059671
Si       3.97772914       4.65174399       8.84302351      -0.00092590      -0.00516630      -0.00059671
Si       1.38336536       4.46818380      11.42182298      -0.00092590      -0.00516630       0.00059671
Si       1.15148832       4.02918162       4.66687415       0.00092590       0.00516630       0.00059671
Si       3.94389420       6.62935599      -0.60211512       0.00278072       0.00399025      -0.00461062
Si       3.77968703       2.23512981       6.15283371      -0.00278072      -0.00399025      -0.00461062
Si       1.18532325       2.05156962      14.11201277      -0.00278072      -0.00399025       0.00461062
Si       1.34953042       6.44579580       7.35706395       0.00278072       0.00399025       0.00461062
Si       4.00567865       4.02302932       4.48564838      -0.00514039       0.00202808       0.00070446
Si       3.71790258       4.84145648      11.24059721       0.00514039      -0.00202808       0.00070446
Si       1.12353880       4.65789629       9.02424928       0.00514039      -0.00202808      -0.00070446
Si       1.41131488       3.83946913       2.26930045      -0.00514039       0.00202808      -0.00070446
Si      -0.02975505       4.15690262       0.00000000       0.00000000      -0.00000000      -0.00000000
Si       2.56460873       4.34046281       6.75494883      -0.00000000       0.00000000      -0.00000000
