10
Lattice="5.627250031381597 -5.100075481012363e-27 -2.7510837444650287e-23 5.15492367970484e-27 5.744196591098287 -3.803564239476525e-14 2.2201022811178156e-23 3.6252167535223303e-14 5.65916871167131" Properties=species:S:1:pos:R:3:forces:R:3 unique_starting_index=45 config_type=initial n_minim_iter=16 energy=-1627.2864858926723 stress="3.0629738650299347e-06 4.30067950540663e-12 2.303517754824388e-11 4.30067950540663e-12 3.8551318955650205e-05 -1.070859568145981e-11 2.303517754824388e-11 -1.070859568145981e-11 -9.0659625049965e-05" free_energy=-1627.2864858926723 pbc="T T T"
Si       4.40499021       2.66527025       5.28315820       0.00073554       0.00126219      -0.00153864
Si       1.22225982       3.07892634       5.28315820      -0.00073554      -0.00126219      -0.00153865
Si       1.22225982       5.53736855       5.28315820      -0.00073554       0.00126219      -0.00153864
Si       4.40499021       0.20682804       5.28315820       0.00073554      -0.00126219      -0.00153865
Si       4.44252317       5.48524030       2.01623426      -0.00253209       0.00322631       0.00333914
Si       1.18472686       0.25895629       2.01623426       0.00253209      -0.00322631       0.00333914
Si       1.18472686       2.61314201       2.01623426       0.00253209       0.00322631       0.00333914
Si       4.44252317       3.13105458       2.01623426      -0.00253209      -0.00322631       0.00333914
Si       2.32991382       4.30814744       3.29234082      -0.00324743       0.00000000      -0.00360100
Si       3.29733622       1.43604915       3.29234082       0.00324743       0.00000000      -0.00360100
