16
Lattice="5.746990171699755 0.3200942060960865 0.8509296009868013 2.40325411107161 4.300823873967107 1.511684955160612 4.125600824127988 2.952605639149844 14.464358560825218" Properties=species:S:1:pos:R:3:forces:R:3 unique_starting_index=3 config_type=initial n_minim_iter=1 energy=-2603.9000497015677 stress="0.0028577232464847046 0.001032192992238377 -3.671608389881376e-05 0.001032192992238377 -0.002042697808874335 0.0016446914668639837 -3.671608389881376e-05 0.0016446914668639837 -0.0009177338156908549" free_energy=-2603.9000497015677 pbc="T T T"
Si       7.56722700       5.32048886       8.85925073      -0.41196912       0.27051321       0.35705940
Si       6.99613276       4.25694287      14.69683772       0.14272977      -0.24633582       0.11862343
Si       2.03148203       2.40844749       4.24190916      -0.01764187       0.13534617       0.38680566
Si       5.23572526       2.84414731       2.44969483      -0.00173985      -0.07892725      -0.11563974
Si       5.76549947       3.10245302       6.34662226       0.36872303       0.04359029      -0.32980792
Si       8.38207544       3.09110970       8.60300825      -0.26316239       0.07022655       0.09598083
Si       4.28573576       2.53963909       4.58624751       0.04559768       0.47519168       0.03034784
Si       7.57791977       3.01588254       2.77099523      -0.03602446      -0.03252821       0.18078033
Si       4.29094993       2.53128538       9.48753893       0.02824550      -0.20342467      -0.53339078
Si       6.53517264       2.69318723      10.07874498       0.56242143       0.26100477      -0.00627528
Si       9.09688822       4.66402154      11.49785160      -0.34964735       0.20286472       0.22902973
Si       3.05572231       1.04011423       6.08012277       0.19693111      -0.52342376      -0.33984385
Si       6.07549351       5.95530139      13.12158423      -0.06037216      -0.42735612       0.04294236
Si       4.80077408       3.95725039      12.48471105       0.12502709      -0.00388035      -0.10065060
Si       7.22392354       3.30358279      12.39668721      -0.13038190      -0.07310191      -0.50581939
Si       5.15717049       1.08731787       0.79668667      -0.19873652       0.13024069       0.48985797
16
Lattice="5.6726035078690575 0.29019919757620327 0.8531239063235223 2.3531151195243845 4.318222252932806 1.486480811025881 4.0621334888031555 2.853501209476104 14.503198757328445" Properties=species:S:1:pos:R:3:forces:R:3 unique_starting_index=3 config_type=initial n_minim_iter=2 energy=-2603.927590209203 stress="-0.009636687623690115 -0.0011685709706343265 -0.0015545960150946717 -0.0011685709706343265 0.00368585191815341 -0.001301706634056362 -0.0015545960150946717 -0.001301706634056362 0.0015828312321348494" free_energy=-2603.927590209203 pbc="T T T"
Si       7.44223064       5.27283216       8.86298646      -0.27878402       0.29162546       0.35683143
Si       6.89222064       4.15132862      14.72921218      -0.09127446      -0.15599894       0.02417291
Si       1.99504469       2.39174433       4.24753783      -0.08595750       0.09989984       0.14245078
Si       5.15645290       2.82693135       2.43805117      -0.25885102      -0.05710391      -0.07997314
Si       5.68422047       3.05802765       6.34623879       0.24662172      -0.04895944      -0.08455736
Si       8.25907909       3.01813690       8.61864551      -0.24284771       0.18604649      -0.02652074
Si       4.22096478       2.51611667       4.58758966       0.18772820       0.40542294      -0.02095966
Si       7.46764994       2.98769297       2.76408095       0.22828540       0.08744827       0.21644290
Si       4.22683626       2.46157398       9.50126045      -0.12814190      -0.21256649      -0.39087912
Si       6.44939190       2.61682632      10.10163722       0.54724448       0.06210549       0.00279260
Si       8.95683664       4.58269735      11.51585069      -0.20141163       0.25361661       0.25014919
Si       3.01598241       0.98297367       6.09336072       0.16581705      -0.43475584      -0.35039766
Si       5.97230560       5.87871893      13.13358999       0.01273775      -0.31548958      -0.02925566
Si       4.72548947       3.87893889      12.50656449       0.02949521      -0.07128725      -0.01315245
Si       7.11723665       3.20776146      12.41765814      -0.16046226      -0.02672673      -0.45384735
Si       5.08391946       1.06947192       0.79986964       0.02980069      -0.06327693       0.45670333
16
Lattice="5.756817029870533 0.2679370803581225 0.8840608007398313 2.3825107153137943 4.30573634628286 1.4729289870990765 4.192588786256767 2.7493708508234245 14.518227813418287" Properties=species:S:1:pos:R:3:forces:R:3 unique_starting_index=3 config_type=initial n_minim_iter=3 energy=-2603.973689280048 stress="0.008792188179465138 -0.0025633632461851508 0.0034197501427587216 -0.0025633632461851508 0.007762664546584547 -0.004115740102528963 0.0034197501427587216 -0.004115740102528963 0.007046289103254766" free_energy=-2603.973689280048 pbc="T T T"
Si       7.57036208       5.20682173       8.88880433      -0.35094456       0.35401835       0.24102532
Si       7.06244242       4.03145609      14.75498199       0.09253476      -0.19991137       0.01263072
Si       2.03896531       2.36426294       4.25618946       0.26612351       0.09483808       0.10937254
Si       5.23221308       2.79611926       2.44743050       0.04947571       0.12861918       0.12052537
Si       5.80193501       3.00297880       6.35535153       0.09964255      -0.13177774      -0.04556087
Si       8.40732083       2.94371094       8.65383253      -0.11241341       0.22958285      -0.03117069
Si       4.30208485       2.49067781       4.59875292      -0.10504354       0.27738840       0.08227672
Si       7.58204825       2.95038498       2.79535592      -0.01922903       0.06613650       0.18694842
Si       4.33196428       2.38278239       9.50055674       0.13208516      -0.17657920      -0.20447025
Si       6.60753383       2.54022372      10.12848729       0.08582631       0.00248374      -0.07633920
Si       9.12533041       4.49229893      11.55278203      -0.08916675       0.03655311       0.37185575
Si       3.09598974       0.91913591       6.09767467       0.28268766      -0.28005195      -0.39113494
Si       6.11255221       5.76812540      13.13966062       0.04946519      -0.20226414      -0.10175861
Si       4.85425148       3.78601919      12.51501521      -0.14311191      -0.11027998      -0.03793631
Si       7.27367922       3.10690438      12.43041995      -0.12622708       0.07823209      -0.35219897
Si       5.15347468       1.05195517       0.83783300      -0.11170456      -0.16698791       0.11593501
16
Lattice="5.7604439932753415 0.2781294606324603 0.8717403049946696 2.393120740274371 4.253001083728906 1.4609796812035094 4.195835980923598 2.7432401802813673 14.342126536695984" Properties=species:S:1:pos:R:3:forces:R:3 unique_starting_index=3 config_type=initial n_minim_iter=4 energy=-2604.0396318921566 stress="0.002851290527504876 -0.0018419941846642594 0.0035529297248798786 -0.0018419941846642594 -0.0020761676113128518 -0.0035946501522806608 0.0035529297248798786 -0.0035946501522806608 -0.007381868521297307" free_energy=-2604.0396318921566 pbc="T T T"
Si       7.56990036       5.17523211       8.79730423      -0.36386132       0.38642443       0.30023285
Si       7.07261536       4.00614250      14.57996207       0.15501536      -0.34393561       0.12795828
Si       2.04412987       2.34663261       4.21667700       0.39426798       0.07320251       0.14705690
Si       5.23803179       2.77083394       2.41755973       0.21780410       0.34195456       0.21127532
Si       5.82042830       2.98333909       6.27223978       0.05809729      -0.03472999       0.07427916
Si       8.40699322       2.93950568       8.55038482      -0.00210823       0.13358969      -0.19195435
Si       4.31083694       2.48814626       4.54524117      -0.23043345       0.24854056       0.12121022
Si       7.59386913       2.93063450       2.77027790      -0.16338220       0.00592499       0.16323924
Si       4.33617531       2.36683773       9.36974051       0.30356494      -0.14360332      -0.17429669
Si       6.63119611       2.54106131      10.00496841      -0.29268009       0.19049346      -0.12009070
Si       9.12676097       4.47479223      11.42382049      -0.02427456      -0.14820933       0.16519252
Si       3.10502707       0.90596594       6.01033254       0.21945672      -0.22742267      -0.40644896
Si       6.12358721       5.70847121      12.98502523       0.07126983      -0.13040882      -0.09848222
Si       4.86302310       3.76212799      12.36279607      -0.22522337      -0.18315535      -0.00864305
Si       7.27509307       3.09812800      12.26253727      -0.05367981       0.03578841      -0.16188245
Si       5.15436408       1.05050968       0.84305715      -0.06383320      -0.20445350      -0.14864604
16
Lattice="5.759447809554031 0.32084538553281 0.8399633667399733 2.4106681053243277 4.255009208376936 1.4983453386240007 4.110770819162432 2.891821342774202 14.463980418269616" Properties=species:S:1:pos:R:3:forces:R:3 unique_starting_index=3 config_type=initial n_minim_iter=5 energy=-2604.0904929940684 stress="0.0033662201519644155 0.0003496601542676008 -0.002114581295521174 0.0003496601542676008 -0.0036052691750227913 0.0005534594378865641 -0.002114581295521174 0.0005534594378865641 0.0011285973193396934" free_energy=-2604.0904929940684 pbc="T T T"
Si       7.52925504       5.28673175       8.88257024      -0.32699127       0.35065571       0.26280805
Si       6.99841887       4.15807520      14.69857550      -0.01288916      -0.31093560       0.22540454
Si       2.03219474       2.38953027       4.27092395       0.31402810       0.12099961       0.08138742
Si       5.24020580       2.81068312       2.42719536       0.10228377       0.26473033       0.33130393
Si       5.80616247       3.06121920       6.30836442       0.07505004       0.00679236      -0.01172373
Si       8.36106980       3.06160987       8.59230847       0.01913710       0.01555889      -0.33269546
Si       4.29640310       2.55807602       4.57944961      -0.13967935       0.27103181       0.00032501
Si       7.59727748       2.98701598       2.77501977      -0.06059977      -0.25063669       0.21354837
Si       4.28721478       2.46312533       9.42880950       0.29468398      -0.02240969       0.08908520
Si       6.59071601       2.67002038      10.06772386      -0.33854176       0.32364398      -0.13508190
Si       9.06892545       4.61939246      11.51013353      -0.03391568      -0.36142553       0.02291683
Si       3.07631818       0.96281834       6.03558210       0.13522463      -0.12303143      -0.29893745
Si       6.06824238       5.82520577      13.10955976       0.09630848      -0.08904172      -0.18958469
Si       4.79925502       3.88644566      12.47064509      -0.30051762      -0.22531284       0.21200105
Si       7.20481250       3.24265914      12.33186576       0.00404117      -0.00695133      -0.12901538
Si       5.15431679       1.08332156       0.83496523       0.17237734       0.03633214      -0.34174179
16
Lattice="5.74016072872996 0.350430180346699 0.875464918293376 2.4261679365603133 4.302431463798169 1.533950434412686 4.192203230996932 3.0066563576049883 14.483417176842517" Properties=species:S:1:pos:R:3:forces:R:3 unique_starting_index=3 config_type=initial n_minim_iter=6 energy=-2604.121435427084 stress="-0.002083214746918399 0.001330764250183446 0.0032731575020174607 0.001330764250183446 0.001583704700857305 0.003420417382967986 0.0032731575020174607 0.003420417382967986 -0.000614215033416069" free_energy=-2604.121435427084 pbc="T T T"
Si       7.55483792       5.41661327       8.95892552      -0.28993964       0.23770233       0.21212487
Si       7.07523105       4.28257157      14.74792671      -0.11125809      -0.26282144       0.22744286
Si       2.06498729       2.44278754       4.29910299       0.33916379       0.12014115      -0.04342218
Si       5.24271288       2.86843130       2.47447882       0.14990474       0.15948376       0.13089301
Si       5.84041666       3.13930874       6.34579226      -0.18105616       0.03672697       0.09200459
Si       8.38206188       3.16739434       8.64218342       0.19748405       0.14671564      -0.46338737
Si       4.31473367       2.63480147       4.61376334      -0.02306266       0.21740561       0.15017554
Si       7.59269795       3.05029393       2.84276627      -0.00431167      -0.21084278       0.13219371
Si       4.34049055       2.54161803       9.44248024       0.27603677       0.05726195       0.17349454
Si       6.64107862       2.77907733      10.10467944      -0.54717616       0.06362594      -0.04004802
Si       9.10937864       4.74980556      11.58171746       0.06884471      -0.23110813      -0.07348236
Si       3.11159713       0.99863516       6.03446108       0.14609963      -0.06546695      -0.22410593
Si       6.14569577       5.94905450      13.15555924       0.00375824      -0.15212887      -0.18370919
Si       4.86553094       3.99478555      12.50398229      -0.18390014      -0.13121825       0.11923989
Si       7.25658965       3.35970426      12.35930065      -0.02788806      -0.02243779      -0.03050362
Si       5.14031033       1.11571431       0.87752844       0.18730064       0.03696084      -0.17891034
16
Lattice="5.742313335037673 0.34155805761778174 0.839623367840997 2.4187768973147175 4.292343688403938 1.4852272010594727 4.11695895246235 2.8993027938197615 14.402389628504595" Properties=species:S:1:pos:R:3:forces:R:3 unique_starting_index=3 config_type=initial n_minim_iter=7 energy=-2604.1742762746157 stress="-0.0024574314431127517 0.0006885140990665581 -0.001737013661835419 0.0006885140990665581 0.004886003247426796 -0.0002834580527444672 -0.001737013661835419 -0.0002834580527444672 -0.00382535033074627" free_energy=-2604.1742762746157 pbc="T T T"
Si       7.48800435       5.37202615       8.87749760      -0.11507556       0.20078534       0.05125145
Si       7.00225084       4.15401274      14.65163644      -0.14281940      -0.25898165       0.22423848
Si       2.05503769       2.41984128       4.27031349       0.21085043       0.09322437      -0.02480861
Si       5.23585098       2.85646807       2.42493418       0.11518632       0.23083070       0.18770244
Si       5.82149818       3.09133181       6.26932894      -0.13145805      -0.10677177       0.25422619
Si       8.33797795       3.10956554       8.53978943       0.06901384       0.23372905      -0.38327547
Si       4.29265325       2.62499019       4.56251573       0.01047220       0.12226861       0.07138636
Si       7.58560021       3.02127638       2.78586884       0.01428286      -0.13284496       0.03245766
Si       4.30309070       2.46332393       9.36342179       0.13853235       0.08056335       0.32269605
Si       6.59629365       2.71610889      10.01880516      -0.48048183      -0.06480061      -0.29258470
Si       9.04577546       4.65974955      11.47834649       0.06582836      -0.17654598      -0.11761754
Si       3.09485317       0.93198042       5.97166661       0.12038273       0.10789734      -0.25130378
Si       6.08023401       5.83478026      13.03914570       0.06706555      -0.05027341      -0.21000177
Si       4.79422377       3.89380207      12.42020567      -0.21771734      -0.22973734       0.22799116
Si       7.19071022       3.26550363      12.24341897       0.04194204       0.04839916       0.16224356
Si       5.14297806       1.10795763       0.84591979       0.23399551      -0.09774219      -0.25460149
16
Lattice="5.736736211557561 0.31668249105912416 0.8534582881016366 2.4066663484073296 4.222611659819821 1.4763491331569747 4.127925105894999 2.7699381013253643 14.498805403009948" Properties=species:S:1:pos:R:3:forces:R:3 unique_starting_index=3 config_type=initial n_minim_iter=8 energy=-2604.2293616775614 stress="-0.004250500923549626 -0.0010071583731809755 -0.0006231330637256199 -0.0010071583731809755 0.0015468435595910254 -0.0020849791687388517 -0.0006231330637256199 -0.0020849791687388517 -0.00041818809321664816" free_energy=-2604.2293616775614 pbc="T T T"
Si       7.45497422       5.25580155       8.94611781      -0.09513764       0.09638877      -0.09591869
Si       7.00644704       3.97889080      14.76048916      -0.13695316      -0.35672369       0.22525128
Si       2.06761891       2.36808518       4.30164670       0.05002224       0.10672300      -0.20232680
Si       5.22963440       2.80175580       2.44451009       0.04751037       0.28472866       0.27898918
Si       5.82455983       2.99929932       6.30532997      -0.13586815      -0.20232692       0.16708076
Si       8.33019132       3.00877004       8.58280068       0.11075472       0.13775462      -0.23591234
Si       4.28659159       2.57801518       4.59206486       0.17566296       0.13126271       0.04844937
Si       7.57385589       2.93829613       2.81577971       0.08690006      -0.15006823       0.13926005
Si       4.31862013       2.36121785       9.41770282      -0.10958158       0.14616756       0.29917675
Si       6.59428176       2.61907366      10.08068562      -0.34827146       0.05504627      -0.33406535
Si       9.03419586       4.50491305      11.55966627       0.23005345      -0.23663967      -0.01839192
Si       3.11205723       0.86029231       5.99058470       0.10347899       0.31236321      -0.15462056
Si       6.08120530       5.65419934      13.10388272       0.20373578       0.05041089      -0.17121559
Si       4.78846263       3.75026143      12.50388830      -0.33392091      -0.33041429       0.11376403
Si       7.18920377       3.13465112      12.30957992      -0.05959172       0.01368185       0.24590691
Si       5.14031154       1.07439335       0.85620999       0.21120607      -0.05835474      -0.30542707
16
Lattice="5.758168533056334 0.3171586774965805 0.8488324809296243 2.4169663063619695 4.184452853044022 1.475859317630297 4.128322948067543 2.7391604896057675 14.53462881369879" Properties=species:S:1:pos:R:3:forces:R:3 unique_starting_index=3 config_type=initial n_minim_iter=9 energy=-2604.2886894737426 stress="-0.001757837833553364 -0.0013471970957107506 -0.001451070977186592 -0.0013471970957107506 0.0007768967873609573 -0.0016468783013624142 -0.001451070977186592 -0.0016468783013624142 0.00017201460230685794" free_energy=-2604.2886894737426 pbc="T T T"
Si       7.45074320       5.23106203       8.97884076      -0.06047161      -0.06794152      -0.24380960
Si       7.01533331       3.91277799      14.81039105      -0.06812472      -0.35762623       0.23349129
Si       2.09011245       2.35554065       4.31516262      -0.22711259       0.15680746      -0.14861230
Si       5.25479223       2.79377222       2.45989340       0.03725814       0.15173948       0.16182907
Si       5.84435473       2.96806291       6.31653622       0.03529356      -0.24801755       0.00013448
Si       8.35462687       2.99263969       8.57356014       0.02123105       0.05541963       0.00133714
Si       4.29885498       2.57848825       4.60371040       0.28844901       0.15140146       0.01202572
Si       7.60200952       2.90257055       2.82934282       0.10369495      -0.14294884       0.08259702
Si       4.33806216       2.33486920       9.43970598      -0.37179696       0.20951086       0.23817772
Si       6.59299089       2.60752380      10.08788082      -0.00457096       0.09511267      -0.36335178
Si       9.05654326       4.44943051      11.58625448       0.21307144      -0.14963116       0.00148079
Si       3.13196374       0.84149012       5.97766516       0.08522702       0.43534897      -0.02824152
Si       6.09904265       5.58609638      13.11942303       0.23859891      -0.01220122      -0.10977499
Si       4.77667495       3.69549572      12.54205658      -0.21331903      -0.31270475       0.00019272
Si       7.19954182       3.10345903      12.32448067      -0.14157838      -0.01462677       0.24522625
Si       5.16926107       1.06674010       0.84291434       0.06415018       0.05035751      -0.08270202
16
Lattice="5.777784031442799 0.3418920686488714 0.8586270513309104 2.4465156164866335 4.155929300339087 1.4848282383144789 4.171108469108786 2.732792946790747 14.595475315361625" Properties=species:S:1:pos:R:3:forces:R:3 unique_starting_index=3 config_type=initial n_minim_iter=10 energy=-2604.330161791652 stress="0.0003756969637653869 0.00037362585333030316 -0.0003502955852589404 0.00037362585333030316 -0.0012150243956339005 -0.00046084875301199307 -0.0003502955852589404 -0.00046084875301199307 0.0008815243373186914" free_energy=-2604.330161791652 pbc="T T T"
Si       7.48952657       5.23177144       9.02999010      -0.05889098      -0.13379887      -0.31846144
Si       7.06892250       3.88390652      14.89378798       0.02749401      -0.33163589       0.20515615
Si       2.12309156       2.35350336       4.33407261      -0.28127537       0.20851666      -0.11004276
Si       5.29395077       2.80652611       2.49058456       0.03334311       0.01112426       0.04652658
Si       5.88482835       2.96098407       6.34934375       0.11868285      -0.24468433      -0.13586069
Si       8.40690739       3.01249693       8.59814194      -0.02005805      -0.06947888       0.16954987
Si       4.33416273       2.59335596       4.63086645       0.26379873       0.17828078      -0.00280676
Si       7.64342623       2.89883301       2.86155279       0.08618437      -0.11161905       0.06328894
Si       4.37677565       2.33681042       9.48915995      -0.47971292       0.20718972       0.08068925
Si       6.62087149       2.62570171      10.11816084       0.26823415       0.13249137      -0.27477399
Si       9.12286496       4.43609025      11.64426208       0.11213518      -0.02690374       0.08713202
Si       3.16429298       0.85136122       5.98575017       0.06014376       0.48643724       0.05652734
Si       6.16902035       5.55309042      13.16550821       0.22117273      -0.15550204      -0.05384137
Si       4.80630999       3.66562861      12.60342578      -0.05697981      -0.24486324      -0.11100016
Si       7.24481610       3.10771144      12.37917931      -0.20224810      -0.03004127       0.13464094
Si       5.19933354       1.08263243       0.84176086      -0.09202366       0.12448727       0.16327605
16
Lattice="5.799345530273905 0.3292410990423492 0.8659735464047533 2.4468064539040473 4.122415635626402 1.5054760624944195 4.189397934673388 2.749735604930093 14.651097456668703" Properties=species:S:1:pos:R:3:forces:R:3 unique_starting_index=3 config_type=initial n_minim_iter=11 energy=-2604.371102070134 stress="0.00248308777135671 -0.0006525191152325383 0.0007177288891233597 -0.0006525191152325383 -0.0014285284045792563 0.0038626596899958066 0.0007177288891233597 0.0038626596899958066 0.00010239952266903002" free_energy=-2604.371102070134 pbc="T T T"
Si       7.48485098       5.21760600       9.07755912      -0.11169538      -0.30674544      -0.14026594
Si       7.09149363       3.84478288      14.98610488       0.05225437      -0.11716308       0.12855615
Si       2.13180859       2.36398810       4.35181744      -0.15280357       0.19499044       0.06625753
Si       5.31910581       2.79848295       2.53086740       0.03217136      -0.23202104      -0.12975480
Si       5.90820068       2.92902910       6.38071770       0.27899859       0.13008781      -0.15959629
Si       8.44002888       3.00659543       8.62238034       0.00666524      -0.11430021       0.23380850
Si       4.36179728       2.60701375       4.66224973       0.04639366       0.15719811      -0.07279420
Si       7.67171364       2.84974408       2.90201049       0.10399515      -0.05706043      -0.10867027
Si       4.38117285       2.35062797       9.54173687      -0.42054917       0.14463878      -0.24068708
Si       6.63369658       2.64048527      10.13150070       0.36970698       0.04224561      -0.07525289
Si       9.16288327       4.40108781      11.70624528      -0.02821792       0.22184558       0.12492126
Si       3.19506302       0.87705182       5.98724328      -0.00600473       0.29114589       0.05640799
Si       6.20577494       5.52229000      13.21116678       0.20545435      -0.31186257       0.05989225
Si       4.80036396       3.63820071      12.66206532       0.16563564      -0.16746331      -0.21693619
Si       7.25828840       3.10594547      12.43546796      -0.30050443      -0.04006468       0.01798045
Si       5.22436245       1.07003254       0.84471520      -0.24150012       0.16452854       0.45613353
16
Lattice="5.799598988524064 0.3521938242427263 0.8726704254913727 2.46947999578434 4.111800426910089 1.484959170075851 4.2186172870209635 2.66913802315974 14.678781958337979" Properties=species:S:1:pos:R:3:forces:R:3 unique_starting_index=3 config_type=initial n_minim_iter=12 energy=-2604.411510134316 stress="0.0027887592290239053 0.001834029381787035 0.0012968204662477756 0.001834029381787035 -0.0013916516118389934 0.0010899145241057657 0.0012968204662477756 0.0010899145241057657 4.853585182474805e-05" free_energy=-2604.411510134316 pbc="T T T"
Si       7.50232025       5.18653222       9.07653920      -0.00471111      -0.19565948      -0.28155499
Si       7.12509529       3.74948802      15.02755930       0.08784304      -0.08197678       0.05026220
Si       2.14686743       2.35232654       4.35207486       0.10315495       0.14913883       0.04157220
Si       5.33851529       2.80556995       2.53198057       0.02368652      -0.21777836      -0.07545695
Si       5.93805668       2.90221857       6.38077852       0.11309186       0.01770114      -0.01121316
Si       8.46036712       2.98912872       8.63280572       0.04718599      -0.12601673       0.19204349
Si       4.38827785       2.61112009       4.66427264      -0.12451550       0.09744539      -0.06864755
Si       7.69145826       2.85250720       2.90843827       0.05548031       0.06112038      -0.11114318
Si       4.38899207       2.30940853       9.55529942      -0.23477165       0.08390489      -0.21823112
Si       6.66285751       2.61159466      10.13324781       0.21257226      -0.04036686      -0.02820524
Si       9.19659544       4.35626114      11.72816143      -0.16049760       0.32402355       0.24165911
Si       3.21532607       0.86151996       5.98840218      -0.03946394       0.37171794       0.00741277
Si       6.25921490       5.43693660      13.21183511       0.22503450      -0.31552265       0.00922389
Si       4.82364107       3.55364302      12.67739402       0.11323867      -0.19211639      -0.08761645
Si       7.27286350       3.05226765      12.45536572      -0.22757139       0.03752750      -0.00205861
Si       5.22743501       1.09140509       0.85450296      -0.18975689       0.02685764       0.34195358
16
Lattice="5.779894189047955 0.32489702670991977 0.8702769471482508 2.444099671107327 4.099907863532954 1.4629769438906837 4.187393961149201 2.5747110280846743 14.694241212163327" Properties=species:S:1:pos:R:3:forces:R:3 unique_starting_index=3 config_type=initial n_minim_iter=13 energy=-2604.4599165021236 stress="0.0004775873585309235 0.0006812800402264963 0.0004982596325153901 0.0006812800402264963 0.0014204575101198743 -0.0006455610237965139 0.0004982596325153901 -0.0006455610237965139 0.0005050372136803785" free_energy=-2604.4599165021236 pbc="T T T"
Si       7.44173423       5.10921425       9.04841327       0.09929240      -0.13015582      -0.18679160
Si       7.08129271       3.61958441      15.05326169       0.02990180      -0.04768250      -0.01570392
Si       2.12182203       2.33871189       4.34578200       0.39059542       0.07706180       0.01584784
Si       5.31177262       2.77277518       2.52181650      -0.00170021      -0.13844179       0.00582862
Si       5.91661694       2.83883895       6.37072989      -0.05638352       0.15208433       0.21202010
Si       8.41699570       2.91164753       8.63855434       0.14772520      -0.02765680       0.01190387
Si       4.37201224       2.59000185       4.65581171      -0.28337794       0.04349461      -0.07744990
Si       7.66248385       2.80476277       2.89819401       0.04195527       0.14939619      -0.13803306
Si       4.33342184       2.25168229       9.55556117       0.02923166       0.02066237      -0.18208135
Si       6.64329291       2.53950375      10.11879332      -0.15094180      -0.16080226       0.09358474
Si       9.14475267       4.26762688      11.73784862      -0.21663413       0.34925775       0.26795569
Si       3.20584549       0.84164228       5.98749571      -0.12021213       0.21537956      -0.13548768
Si       6.22986501       5.32744486      13.20237925       0.27825121      -0.23497802      -0.06285419
Si       4.78432653       3.44848417      12.67725864      -0.04129293      -0.22529986       0.15039326
Si       7.21269007       2.95783870      12.46551310      -0.15959481       0.10680120      -0.01471272
Si       5.19921204       1.07166492       0.86727514       0.01318452      -0.14912075       0.05558028
16
Lattice="5.769855996395557 0.2903335309452533 0.865595434659988 2.4186642265234606 4.046393616555917 1.4435323775582025 4.153632305987016 2.4588038688662763 14.717683911612884" Properties=species:S:1:pos:R:3:forces:R:3 unique_starting_index=3 config_type=initial n_minim_iter=14 energy=-2604.4906346287257 stress="-0.0041585728847247155 -0.0007331900052379604 -0.0009758794802997783 -0.0007331900052379604 -0.004129493723888204 -0.00048150229297656296 -0.0009758794802997783 -0.00048150229297656296 -0.0014207585284505147" free_energy=-2604.4906346287257 pbc="T T T"
Si       7.37050878       4.98740425       9.02658884       0.21373459      -0.13358789      -0.11764248
Si       7.03929966       3.43324919      15.10121488      -0.01169621       0.18788729      -0.12734827