18
Lattice="4.579360000000001 2.277550048533533e-16 -1.599792856854387e-16 1.7143316365960484 7.858799454870058 2.4796608780157624e-15 1.687876815163459 1.3824274623506618 10.069286906815817" Properties=species:S:1:pos:R:3:forces:R:3 unique_starting_index=194 config_type=initial n_minim_iter=1 energy=-2857.661867799231 stress="-0.48530175286700367 -0.35725029366841665 -0.44404431097602454 0.10422371995783457 0.00010911674850932775 -0.02931866636628985" pbc="T T T"
Si       4.45383674       0.73196442       1.60451771      -5.32476790      -1.03553470      -0.85433430
Si       4.65869744       5.74795078       9.72324579       0.67063151      -0.48478966      -1.69627924
Si       3.62349768       4.02212891       3.36858327       1.06275407      -7.55413316       1.13145675
Si       2.63454257       2.28034664       8.64239041      -0.70072307      -0.01294898      -2.54452663
Si       4.62372707       7.27134187       5.97875490      10.25489571      22.32284345      10.51199054
Si       4.25313266       8.30915648       3.53921942      19.28945346       2.84652221       9.14778313
Si       2.86307230       1.16948043       0.63373373      12.94750787       4.74701774     -19.71957978
Si       1.23480804       2.41115545       4.84125978      16.23657902     -10.70630647       8.36822244
Si       3.18108157       5.86455910       3.41340267      -2.15597534       8.42505447      -1.16626079
Si       2.76192345       8.14649447       2.98177262     -11.95287393     -16.19148791      -4.97105265
Si       1.69204909       1.02044733       1.71380169      -2.16115265       7.79965718      -1.39686454
Si       4.05147913       4.37501829       5.62176142       2.87649268     -22.20747404       4.50264262
Si       5.59466034       3.35791358       3.56996095      -0.36492188      15.17813273     -20.84059404
Si       2.48750761       4.52143773       1.76637646      -2.91235201       1.04693181      -2.58194256
Si       3.96090253       5.95140262       5.36328887     -11.37002562       1.73355354     -11.72465639
Si       6.31925464       8.27729268       4.20586562     -11.58000856       1.55788151      18.16728077
Si       4.67479997       2.03771077       5.97779932       5.90022813     -10.83110451      31.06056089
Si       3.49821186       2.44265534       4.97171544     -20.71574148       3.36618478     -15.39384619
18
Lattice="4.660608393182857 0.004940185086303936 -2.774650595043719e-05 1.753225852101966 7.963110854649039 -0.030125835087877653 1.7192539812141663 1.3636860556264696 10.227388647906466" Properties=species:S:1:pos:R:3:forces:R:3 unique_starting_index=194 config_type=initial n_minim_iter=2 energy=-2865.4660771936165 stress="-0.403438156463179 -0.3025578584275676 -0.3686964697146477 0.08709588219579119 0.004140661669722577 -0.027100246316765077" pbc="T T T"
Si       4.53309594       0.74005868       1.62763830      -4.37529290      -0.75492938      -1.08838270
Si       4.74756360       5.79060906       9.85881262       0.81604287      -0.55272226      -1.75464459
Si       3.69221286       4.06480368       3.40793321       1.23666496      -7.06607269       1.12589020
Si       2.68362177       2.27980099       8.77363055      -0.50849967       0.00179543      -1.87937371
Si       4.71461678       7.35048019       6.04894860       9.03117324      20.04212662       9.64078826
Si       4.33949892       8.40880283       3.56571718      16.58055779       2.77099219       7.94800558
Si       2.91644583       1.18587796       0.63751362      11.42139977       4.36078905     -17.35892726
Si       1.26093949       2.42428580       4.91143352      14.38572220      -9.19893211       6.99848663
Si       3.24360874       5.93222549       3.44618270      -2.01505280       7.69642772      -1.27252128
Si       2.81847842       8.24262094       2.99842874     -10.00006930     -14.27601244      -4.85165938
Si       1.72294130       1.02980019       1.73754852      -2.29549483       6.50343872      -1.11234428
Si       4.12833774       4.41263583       5.69667040       2.39634156     -19.63935913       4.21590263
Si       5.69748788       3.39559432       3.61287075      -0.41956978      13.48208192     -18.42246490
Si       2.53621243       4.57640901       1.77743781      -2.63289409       0.77454455      -2.30223339
Si       4.03640892       6.01289562       5.42630473     -10.19597588       1.29116514     -10.35191305
Si       6.43909839       8.37606055       4.24420874     -10.30697612       1.35997788      16.29062215
Si       4.76050304       2.04530549       6.07013374       4.93130308      -9.59580051      27.59868143
Si       3.56077524       2.45956893       5.04145171     -18.04938010       2.80048930     -13.42391236
18
Lattice="5.267718626113719 0.048163424736650244 -0.007326958598088704 2.054680870143001 8.749058175844912 -0.26949156775667693 1.9400233505512388 1.2118333378604729 11.399369248400209" Properties=species:S:1:pos:R:3:forces:R:3 unique_starting_index=194 config_type=initial n_minim_iter=3 energy=-2898.96081259113 stress="-0.10530473053518406 -0.10175099857876944 -0.11606652999366432 0.02992329254082685 0.006620752853755023 -0.018843821782388966" pbc="T T T"
Si       5.12374554       0.80478017       1.79133110      -0.76922338       0.44321791      -0.55514990
Si       5.40471628       6.10438371      10.85118661      -0.03247252      -1.03838235       3.32435388
Si       4.20628878       4.38508501       3.68924236       1.60420000      -2.78846010      -1.24613772
Si       3.04016314       2.26786097       9.74294105      -0.47664669      -0.06876344      -0.19710519
Si       5.39549387       7.94433582       6.55315307       4.39202512       7.88283698       4.22529930
Si       4.99193117       9.15868013       3.74358709       8.21423658       1.30589178       2.73239003
Si       3.31697661       1.31305666       0.65785099       5.61119812       1.82791981      -6.60120459
Si       1.45325225       2.51786990       5.42851238       6.94638408      -3.31967150       2.10687225
Si       3.71342403       6.44092979       3.67539120      -1.28325876       2.52101773      -1.73933543
Si       3.24712276       8.96391132       3.10487250      -5.19112041      -6.39983215      -3.43368676
Si       1.95205993       1.10006097       1.90987445      -1.68494155       3.14896974      -0.11463401
Si       4.69986378       4.69213088       6.24216513       1.43886971      -8.42694021       2.56568972
Si       6.46497910       3.68271842       3.91634241      -1.41048421       4.91477379      -8.30795743
Si       2.90336557       4.99033247       1.84851466      -0.68055773      -0.35159234      -0.54410697
Si       4.59949137       6.47315363       5.87890596      -4.16416252       1.31835678      -4.67434749
Si       7.33849190       9.12039293       4.50817257      -6.58848479       0.78986963       8.07148291
Si       5.39451994       2.09939385       6.74958509       1.60511253      -3.23181268      10.57395914
Si       4.02257152       2.58496620       5.55022075      -7.53067359       1.47260061      -6.18638174
18
Lattice="5.682613330512249 0.12810338200929336 -0.03740279106565019 2.3471888210887992 9.450917687969307 -0.5082989520959643 2.050947182371408 1.0679445599257718 12.35389926272828" Properties=species:S:1:pos:R:3:forces:R:3 unique_starting_index=194 config_type=initial n_minim_iter=4 energy=-2908.3741557984868 stress="0.0039054592453726758 -0.010730325690525259 0.003788267201874924 0.018617227444826058 0.001282789458977058 -0.010229684592140397" pbc="T T T"
Si       5.52766813       0.89939291       1.89996193      -0.52911725       0.54775912       0.32153385
Si       5.86316577       6.39324973      11.63164148      -0.57306792       0.32642261       1.50447153
Si       4.58562723       4.68935536       3.88370341       0.62385558      -1.31095730       0.58913275
Si       3.26094045       2.25850530      10.52221203      -2.05521283      -0.70961561      -2.55419699
Si       5.91206117       8.48905552       6.91649521       1.30525507       4.13549583       1.84644911
Si       5.51650170       9.84361636       3.83401348       4.23968639       0.54691420       2.19178091
Si       3.60491431       1.45035142       0.65362694       5.12289615       0.55338023      -2.49996593
Si       1.58973173       2.59878917       5.83935177       3.16115265      -1.41276698       0.64242844
Si       4.07923597       6.90442606       3.82158094      -0.37733052       0.69238189      -0.43762110
Si       3.60849216       9.60973789       3.14311922      -2.59955688      -2.56930869      -1.76178515
Si       2.10875382       1.17337244       2.03943515      -0.90952896       1.97317135       0.05563443
Si       5.10849113       4.95690592       6.65743533       0.67790084      -4.43740028       0.46985799
Si       7.00501806       3.97579074       4.12015254      -0.40286175       1.54546793      -3.17005847
Si       3.19453266       5.36868240       1.87647441      -0.07050956      -0.89734165      -0.89351524
Si       5.01829622       6.89892997       6.20616861      -2.10909610       0.19588584      -2.87288509
Si       8.01402979       9.81593799       4.66408315      -3.38249898       0.61079299       4.10773622
Si       5.81721972       2.17332556       7.28046618       1.79999239      -1.23996453       5.36365227
Si       4.33363347       2.71438237       5.93985671      -3.92195831       1.44968303      -2.90264952
18
Lattice="5.663261408971806 0.18318708736446757 -0.047149869607529635 2.4344752939347383 9.579986859793756 -0.6828173737515204 2.039010893670066 0.8883935066807666 12.289081768246062" Properties=species:S:1:pos:R:3:forces:R:3 unique_starting_index=194 config_type=initial n_minim_iter=5 energy=-2909.5589812636613 stress="0.0030563073538935792 -0.007732859977951732 0.004460522918173008 0.018659123519883577 0.0010562519720379254 -0.008867460891878468" pbc="T T T"
Si       5.51315819       0.92914553       1.87019883      -0.46300457       0.59322846       0.15689373
Si       5.89061721       6.31731791      11.46990804      -0.51550832       0.78947830       1.04750049
Si       4.61257212       4.71232466       3.77993547       0.52394148      -1.27625532       0.73218048
Si       3.25436419       2.13272845      10.43496991      -1.97122386      -0.78259282      -2.48691604
Si       5.97080461       8.52354247       6.73223832       1.34671349       4.14963282       1.63988381
Si       5.60010970       9.93371509       3.63763827       4.10134648       0.53282063       2.13354784
Si       3.61695252       1.49046257       0.61425107       4.56051495       0.16660165      -1.86893056
Si       1.60964775       2.53882901       5.77117408       2.72983163      -0.96358852       0.35411890
Si       4.12849972       6.95109637       3.67539961      -0.39695905       0.45690018      -0.40637597
Si       3.68236096       9.68504802       2.94835551      -2.21584170      -2.23845192      -2.14415148
Si       2.10862549       1.17463085       2.00777194      -0.93938077       1.71787667       0.30252077
Si       5.13256127       4.93399702       6.53905837       0.69182239      -3.70163350       0.28195301
Si       7.01390368       4.01668189       4.01655039      -0.25733339       1.11187557      -2.56449379
Si       3.23444361       5.42098121       1.76570021      -0.04326483      -0.90728714      -0.82436177
Si       5.05738888       6.91320634       6.04551269      -2.06324346      -0.19720816      -2.54662915
Si       8.07051430       9.91371621       4.46648340      -3.26471690       0.57971452       4.11633063
Si       5.81255618       2.12294151       7.21982057       1.79419450      -1.31734063       4.69068087
Si       4.32957861       2.68555910       5.85737399      -3.61788809       1.28622921      -2.61375178
18
Lattice="5.5980574595096835 0.4168972840852766 -0.0981935821612151 2.811143730832718 10.116976021974365 -1.5290606386795726 1.97329371335053 -0.006181643146697224 11.994350267369608" Properties=species:S:1:pos:R:3:forces:R:3 unique_starting_index=194 config_type=initial n_minim_iter=6 energy=-2913.558030671695 stress="0.0020821119260979347 0.005980198179780445 0.0017048362432313174 0.009125813209135917 -0.0030583635658908356 -0.005594174954868303" pbc="T T T"
Si       5.46519655       1.03468197       1.72315303       0.10254476       0.38686421      -0.30848390
Si       6.00432492       5.86500533      10.69638476      -0.44069576       1.01998266       1.06464614
Si       4.73173655       4.75765370       3.28417825       0.19680085      -0.36969983       1.05485957
Si       3.21664533       1.48369338      10.03063067      -1.32303594      -0.63638996      -1.76396402
Si       6.22872643       8.58875104       5.84072406       1.00778442       3.28036076       0.69177826
Si       5.96583742      10.25931567       2.68822444       2.98894096       0.31213796       1.69931389
Si       3.67685478       1.65318677       0.42909270       2.39661927      -0.59780984      -0.55235679
Si       1.68670553       2.22172791       5.44710748       1.12845918       0.30400416      -0.40659822
Si       4.34174259       7.09590967       2.97221393      -0.55169086       0.13340881      -0.44336176
Si       4.00008043       9.95563272       2.00842104      -0.92320637      -0.72920843      -2.63077817
Si       2.11045412       1.15597119       1.85744419      -0.64457290       1.16409148       0.47571875
Si       5.23632482       4.75748176       5.97557572       0.76954519      -1.53553909      -0.90189970
Si       7.06683342       4.14087355       3.52366146       0.02635915      -0.35269755      -0.48726498
Si       3.40895494       5.61314800       1.23299837      -0.10472746      -0.44853574      -1.01194354
Si       5.22504161       6.89432709       5.28040115      -1.06406927      -1.15983804      -0.93800329
Si       8.32195551      10.25503860       3.51221098      -2.62533422      -0.40766419       3.67330683
Si       5.79730371       1.82025748       6.92767986       1.26206689      -1.03070945       1.97871455
Si       4.31524080       2.49761267       5.46807724      -2.20178788       0.66724209      -1.19368361
18
Lattice="5.543104284061471 0.5906822861485611 -0.024189803991134243 3.088809935777787 9.949104458021706 -1.9984316470089107 2.1682240623995614 -0.6199917487605178 11.926667478038505" Properties=species:S:1:pos:R:3:forces:R:3 unique_starting_index=194 config_type=initial n_minim_iter=7 energy=-2915.344133815012 stress="-0.007720930545769263 -0.0005278143161029331 -0.0033474386999766148 -0.00035836359584195916 -0.0029057976423962507 -0.00860443202905256" pbc="T T T"
Si       5.46833327       1.08763045       1.74072187      -0.20517865       0.57159440      -0.03182614
Si       6.32008403       5.26405412      10.41063951      -0.16882687      -0.09418786       2.30691565
Si       4.89566263       4.55308205       3.10419394       0.07834138      -0.49879803       0.93272612
Si       3.39191326       0.96649338       9.90151884      -0.80919786       0.05474237      -1.23399157
Si       6.57041010       8.21610824       5.43961796       0.92848423       1.75582010       0.43260115
Si       6.32839700       9.95462536       2.25022963       1.76339690       0.06935575       0.94960140
Si       3.72777299       1.69214454       0.39524197       1.81299548      -0.05574119      -0.69296728
Si       1.85686004       1.90215672       5.30534795       0.78027235       0.62001950      -0.22310367
Si       4.57483219       6.82951514       2.64231627      -0.21097110       0.77032479      -0.26787953
Si       4.30943853       9.63193839       1.50462417      -0.38389380      -0.56373071      -2.21532386
Si       2.15162285       1.09363753       1.81812602      -0.59097440       1.11341846       0.80907033
Si       5.44924388       4.41096314       5.75928643       0.79188535      -1.11747095      -1.26438097
Si       7.18494466       4.02757294       3.39172224       0.02996177      -0.75370396      -0.09499147
Si       3.57675360       5.46067889       0.97434144      -0.63285101      -0.21487915      -1.43033069
Si       5.47281648       6.51484114       4.95636777      -0.66683508      -0.74272610      -0.55671761
Si       8.59103716       9.94564384       3.14201242      -1.51318410      -1.56669028       2.05693743
Si       5.92890605       1.53293504       6.90476721       0.72478025       0.15943566       1.00168551
Si       4.41901586       2.25406262       5.34499242      -1.72820487       0.49321719      -0.47802480
18
Lattice="5.760616360116491 0.8089545792670061 0.02650418893679695 3.5448225688739647 10.096147397352803 -1.9742027295707036 2.4257560235714273 -0.5213199242141546 12.12322297726092" Properties=species:S:1:pos:R:3:forces:R:3 unique_starting_index=194 config_type=initial n_minim_iter=8 energy=-2915.8756091653277 stress="0.020455708264884572 0.016036975853452415 0.017395079792076162 0.001902029749807999 -0.00032164384667987333 -0.0007813794869733166" pbc="T T T"
Si       5.73190295       1.31287047       1.81574546       0.15734212       0.80608401      -0.35677297
Si       6.92068971       5.52851102      10.66309316       0.03488864      -0.68206094       1.78910061
Si       5.29530566       4.75219510       3.21905259       0.30095968      -0.27748072       0.81081095
Si       3.71038447       1.11880808      10.06923987      -0.81505880       0.25358354      -0.76805146
Si       7.22496873       8.52450918       5.59871092       0.56254190       0.92619208       0.05123738
Si       6.99068493      10.23515593       2.37685271       0.75027599       0.16903084       0.46269418
Si       3.95042921       1.85040445       0.43118502       1.54849225      -0.29357792       0.09467327
Si       2.09651787       1.99734727       5.40123824       0.74189858       0.55383671       0.16863575
Si       5.04314773       7.04104778       2.73479075      -0.47190201       0.62120143      -0.24022291
Si       4.85152320       9.83261946       1.56961289       0.10872183      -0.36227296      -1.54622478
Si       2.29691932       1.19089164       1.87169252      -0.78905680       1.02706903       0.24849544
Si       5.91530527       4.63921882       5.89689706       0.30624767      -1.72236130      -0.74821951
Si       7.64914323       4.31643769       3.51973866      -0.31706982      -0.90135222       0.08616558
Si       3.92194615       5.61976680       1.02084045      -0.17628020       0.33190348      -1.07796360
Si       5.99161225       6.74643498       5.09425351       0.10352020       0.28356818      -0.46921387
Si       9.30793990      10.28366320       3.32224469      -0.82116064      -1.31003955       1.12815005
Si       6.32313834       1.77753237       7.07549907       0.17930021      -0.03777392       0.52863249
Si       4.73575907       2.44351924       5.46360047      -1.40366080       0.61445023      -0.16192660
18
Lattice="5.6078728029857725 0.7951866879020957 0.02652295561282546 3.464013851186622 9.891528587929143 -1.9545290668280562 2.365342242426716 -0.5362836361929606 11.849859648645321" Properties=species:S:1:pos:R:3:forces:R:3 unique_starting_index=194 config_type=initial n_minim_iter=9 energy=-2916.353439871199 stress="-0.004180948783759307 0.0036278757655387292 -0.002723083591602469 0.004149423008120591 -0.002198672993122961 -0.0048211419300196725" pbc="T T T"
Si       5.58263937       1.28772445       1.77156038      -0.18271572       0.52470667      -0.14515596
Si       6.74779642       5.38848697      10.41540707       0.47648618      -1.12729546       2.03238425
Si       5.16278203       4.64694829       3.13850888      -0.15787141      -0.61540632       0.76014893
Si       3.61486288       1.07595020       9.83619851      -0.90334854       0.95411368      -0.62412362
Si       7.04931795       8.34120909       5.45098308       0.50374656       0.80757791       0.26180300
Si       6.82233385      10.02040661       2.29998209       0.84853384      -0.27228332       0.37850060
Si       3.85236858       1.81323115       0.41890203       1.51419930       0.36031795      -0.84563860
Si       2.04852133       1.94687084       5.27378085       0.81580598       0.47685189       0.23940835
Si       4.91890773       6.89244522       2.65468239      -0.10921365       0.72303237      -0.70744658
Si       4.73704333       9.62711342       1.50556852       0.20742341      -0.84149244      -1.45259685
Si       2.23646810       1.16540873       1.82657721      -0.50626873       1.10144548       0.70066038
Si       5.76605128       4.52792312       5.75291340       0.29212451      -1.42520564      -0.71100604
Si       7.45076900       4.21927180       3.43319331      -0.09565009      -0.43682595      -0.28355909
Si       3.82558893       5.50444901       0.98071679      -0.64243514      -0.09830279      -0.86058862
Si       5.84413585       6.59891087       4.96135454       0.09532700       0.51118345      -0.41209426
Si       9.07187606      10.06009505       3.22884735      -0.80582873      -1.84606866       1.31702558
Si       6.16028552       1.72739354       6.91445402       0.23478621       0.29764821       0.79403424
Si       4.61123235       2.38378798       5.33382660      -1.58510097       0.90600298      -0.44175570
18
Lattice="5.636588547342885 0.8222997413640217 0.0349718629224294 3.5212935493947244 9.881408556596764 -1.9903080161749647 2.4026891512903914 -0.5797511696505679 11.891697581629865" Properties=species:S:1:pos:R:3:forces:R:3 unique_starting_index=194 config_type=initial n_minim_iter=10 energy=-2916.523942749589 stress="-0.0009844898250870424 0.005067147753385675 0.00042912334999365613 0.0027237223118670557 -0.0022293698922371628 -0.004000282446819307" pbc="T T T"
Si       5.61781123       1.30562590       1.78235605      -0.09737370       0.46297470      -0.19451626
Si       6.82936406       5.34792444      10.44617913       0.52366050      -1.32604327       2.06779361
Si       5.21453908       4.63877330       3.14349179      -0.11464914      -0.60831600       0.75859872
Si       3.65874359       1.04544978       9.86598802      -0.94368437       1.11163823      -0.56216427
Si       7.13545054       8.32232707       5.44997550       0.50647051       0.79861518       0.18999672
Si       6.90768746      10.00649556       2.28433331       0.80232126      -0.32254999       0.28681786
Si       3.88335784       1.82792088       0.41848877       1.48517868       0.37547355      -0.73827634
Si       2.08237297       1.92604546       5.28632742       0.76944582       0.50007589       0.31463032
Si       4.98017901       6.88177816       2.64409588      -0.08358287       0.69305925      -0.73538496
Si       4.80729977       9.60726848       1.48065715       0.21979743      -0.78651757      -1.35749159
Si       2.25587925       1.16584936       1.83284866      -0.53350937       1.06224134       0.62364284
Si       5.82706341       4.51028149       5.76427050       0.22885725      -1.35344728      -0.65853269
Si       7.51173657       4.22530474       3.44235536      -0.14553357      -0.45199737      -0.22170745
Si       3.86930010       5.49906186       0.96864477      -0.67563274      -0.05312856      -0.89544099
Si       5.91421293       6.58230260       4.96154507       0.14480237       0.51349265      -0.36174882
Si       9.16415939      10.04718336       3.22453066      -0.67278955      -1.88751507       1.13386252
Si       6.21373485       1.72009786       6.94265937       0.13459435       0.38694429       0.67597816
Si       4.65271899       2.37493916       5.34798318      -1.54837286       0.88500004      -0.32605737
18
Lattice="5.64910836348469 0.8493090615346708 0.04770477949051 3.572332111012458 9.83998013381383 -2.0118235288725663 2.4434550494560234 -0.6125369819418511 11.894107980482845" Properties=species:S:1:pos:R:3:forces:R:3 unique_starting_index=194 config_type=initial n_minim_iter=11 energy=-2916.722831791884 stress="-0.0005945755238763857 0.005018685093642832 0.0008341969082057699 0.0017966855272073666 -0.0022936938789643526 -0.003523654185190163" pbc="T T T"
Si       5.63896688       1.32340811       1.79124506      -0.03603454       0.30943878      -0.22656980
Si       6.90356613       5.29779890      10.45122770       0.57789736      -1.49056055       2.12270593
Si       5.25636744       4.61934533       3.14458480      -0.15627977      -0.66926439       0.70921579
Si       3.70091824       1.02091963       9.86409040      -0.95848371       1.30675090      -0.46388575
Si       7.21117992       8.28440313       5.43914854       0.46447919       0.74463397       0.14988321
Si       6.98122986       9.96493463       2.27091889       0.76657492      -0.41330513       0.18771384
Si       3.90571963       1.83970508       0.41975778       1.44157619       0.51704645      -0.74211573
Si       2.11680368       1.90393214       5.28341848       0.73665231       0.53501070       0.40326262
Si       5.03347158       6.85388433       2.63043023      -0.01107583       0.67288288      -0.82054103
Si       4.87056476       9.55977027       1.45813512       0.25516400      -0.77603031      -1.26332047
Si       2.27070610       1.16525989       1.83500606      -0.52250178       1.01273789       0.58431610
Si       5.87852893       4.48379961       5.76219824       0.16350109      -1.24444302      -0.57307062
Si       7.55574011       4.22292273       3.44727933      -0.14075596      -0.39797757      -0.22159523
Si       3.90509600       5.47868464       0.95781945      -0.74814195      -0.10764406      -0.89857171
Si       5.97571683       6.55114304       4.95178008       0.20300858       0.56482695      -0.30577301
Si       9.23749711      10.00624597       3.22193884      -0.55808990      -1.97204434       1.03018295
Si       6.25619606       1.71501021       6.95234501       0.03730503       0.49011371       0.59769067
Si       4.68566914       2.36436249       5.34795802      -1.51479524       0.91782714      -0.26952775
18
Lattice="5.671830586128192 0.9055316432136877 0.08241129564172381 3.6773239481648097 9.72898115339465 -2.030709497059451 2.5451168149361036 -0.6558877464003898 11.882480869428898" Properties=species:S:1:pos:R:3:forces:R:3 unique_starting_index=194 config_type=initial n_minim_iter=12 energy=-2917.163723353081 stress="-0.001822292062399731 0.003105594828301339 -0.0007127575363073957 -0.00020969338265507313 -0.001803282360241983 -0.0015502860022433226" pbc="T T T"
Si       5.68286561       1.36227895       1.81583269       0.06941116      -0.10157626      -0.26171401
Si       7.07233628       5.19961343      10.46858211       0.43550195      -1.42979763       2.18570660
Si       5.34587798       4.57447532       3.15816623      -0.28776419      -0.86882857       0.55819180
Si       3.80172628       0.99019434       9.84983294      -0.78636727       1.40859419      -0.31038073
Si       7.37687671       8.20034496       5.43201002       0.36194969       0.55645423       0.07800826
Si       7.13807729       9.86197008       2.26665097       0.75918943      -0.68263589      -0.03511039
Si       3.95353691       1.86503982       0.42809954       1.32275574       0.86732848      -0.76499510
Si       2.19744945       1.86519031       5.27612110       0.67033395       0.66599764       0.60279003
Si       5.14899576       6.78870046       2.61465114       0.15226629       0.65119961      -0.94569431
Si       5.00565334       9.44359433       1.43214769       0.32627930      -0.70982964      -1.03075598
Si       2.30321593       1.16609095       1.84157787      -0.47031893       0.86417072       0.44261049
Si       5.99202308       4.43078844       5.76466535      -0.02337639      -0.97228643      -0.34540023
Si       7.64925088       4.21747044       3.46886540      -0.06544265      -0.24207346      -0.24921006
Si       3.97902766       5.42651813       0.94765907      -0.85148160      -0.29297195      -0.88330326
Si       6.11153004       6.48433877       4.94270429       0.29553308       0.73313768      -0.23083836
Si       9.39219292       9.90416908       3.24349489      -0.35636048      -2.11155575       0.94260400
Si       6.35193859       1.71696182       6.97208095      -0.14111109       0.63389817       0.44546046
Si       4.75907126       2.34944335       5.34892666      -1.41099799       1.03077485      -0.19796920
18
Lattice="5.724566440747062 0.9361304835122792 0.12445055684674347 3.7495779079789084 9.622812874016903 -1.9887998518886474 2.6662293035606783 -0.6317671271923384 11.939177674336726" Properties=species:S:1:pos:R:3:forces:R:3 unique_starting_index=194 config_type=initial n_minim_iter=13 energy=-2917.6101900765766 stress="0.0014957487770741677 0.0028403182575888605 0.0013199482243598237 -0.00011527141489709484 -0.0004132911081544181 0.000483130450693432" pbc="T T T"
Si       5.75417072       1.38629732       1.86244507       0.12964753      -0.18424499      -0.33762097
Si       7.25422171       5.15321328      10.59730290       0.19662665      -1.14214692       2.01664599
Si       5.43913784       4.53736378       3.22742154      -0.26832982      -1.02720633       0.45689567
Si       3.92126312       1.01611250       9.90231943      -0.56495460       1.25423321      -0.22898878
Si       7.54170399       8.14792664       5.51989342       0.33764714       0.37440388       0.03398716
Si       7.28363078       9.77397742       2.35042984       0.74460567      -0.80505238      -0.13952625
Si       4.01963895       1.88692727       0.44901880       1.17146264       1.01490352      -0.55447277
Si       2.28344181       1.86116511       5.31768368       0.71159950       0.69371426       0.79047264
Si       5.26002728       6.74489353       2.66198879       0.13738987       0.58995008      -0.97617274
Si       5.11869088       9.34816640       1.48603482       0.26741240      -0.58320116      -0.69643940
Si       2.34302169       1.17272809       1.86775750      -0.42034097       0.81442868       0.17038072