20
Lattice="6.919280831960718 0.8750087749746487 0.6788932443528929 2.0100050661484263 5.2738045522204615 1.1118062324636668 4.856228007851209 4.56236869753999 13.012280171407626" Properties=species:S:1:pos:R:3:forces:R:3 unique_starting_index=222 config_type=initial n_minim_iter=1 energy=-3258.4607771148476 stress="0.0002806486320686369 6.655226544005086e-05 -6.726162209399057e-05 6.655226544005086e-05 8.474033931222161e-05 -4.243077870781998e-05 -6.726162209399057e-05 -4.243077870781998e-05 0.00021015433742596423" free_energy=-3258.4607771148476 pbc="T T T"
Si       9.07810153       7.77156525       7.53249031      -0.01334674      -0.02024893       0.00317386
Si       4.70741237       2.93961677       7.27048934       0.01334674       0.02024893      -0.00317386
Si      10.57336587       6.51791241      10.32507181       0.01380783      -0.00677045       0.02646473
Si       3.21214804       4.19326961       4.47790784      -0.01380783       0.00677045      -0.02646473
Si       4.78517493       2.29651878       1.71930425       0.00065310       0.00147027      -0.00137587
Si       9.00033897       8.41466324      13.08367540      -0.00065310      -0.00147027       0.00137587
Si      12.39957877       9.69655629      12.57759859       0.01017028       0.00882714      -0.01312359
Si       1.38593513       1.01462574       2.22538105      -0.01017028      -0.00882714       0.01312359
Si       8.22877157       6.84205289       9.75856261      -0.00320993       0.00654719      -0.01050124
Si       5.55674233       3.86912913       5.04441704       0.00320993      -0.00654719       0.01050125
Si       6.50140481       3.39081765       2.89504479      -0.01552226      -0.00935192       0.01245243
Si       7.28410910       7.32036438      11.90793485       0.01552226       0.00935191      -0.01245243
Si       7.61942787       4.79942305       8.79388882       0.01708279       0.00793426       0.00868618
Si       6.16608603       5.91175898       6.00909083      -0.01708279      -0.00793426      -0.00868618
Si       3.13956906       2.12027212       3.37807750      -0.00322355      -0.00359453       0.00188298
Si      10.64594485       8.59090991      11.42490214       0.00322355       0.00359453      -0.00188298
Si       5.32055285       5.08499372       8.08199287      -0.00865101       0.01079390       0.00452779
Si       8.46496106       5.62618830       6.72098678       0.00865101      -0.01079390      -0.00452778
Si       6.61708034       5.47251550       1.72686157       0.02564723      -0.01848997      -0.01193412
Si       7.16843357       5.23866652      13.07611808      -0.02564723       0.01848997       0.01193412
20
Lattice="6.916694224649858 0.8743393580840358 0.679369391224674 2.008892986760179 5.273098445618543 1.1119720236009563 4.85518062421667 4.562159938940076 13.009349345477506" Properties=species:S:1:pos:R:3:forces:R:3 unique_starting_index=222 config_type=initial n_minim_iter=2 energy=-3258.460832417629 stress="-8.8913107444948e-05 3.929983879679125e-05 -8.27460142870121e-06 3.929983879679125e-05 -0.00010819221352291641 -2.5991305788854506e-05 -8.27460142870121e-06 -2.5991305788854506e-05 -0.00011513449443785429" free_energy=-3258.460832417629 pbc="T T T"
Si       9.07467267       7.77025173       7.53164982      -0.00816672      -0.01921407       0.00344779
Si       4.70609517       2.93934602       7.26904094       0.00816672       0.01921407      -0.00344779
Si      10.56982814       6.51680807      10.32359239       0.01301540      -0.00343460       0.02829258
Si       3.21093969       4.19278967       4.47709837      -0.01301540       0.00343460      -0.02829258
Si       4.78335049       2.29594105       1.71937646       0.00327315      -0.00063572      -0.00524036
Si       8.99741735       8.41365670      13.08131430      -0.00327315       0.00063572       0.00524036
Si      12.39527155       9.69511137      12.57570603       0.01215205       0.00849425      -0.01377328
Si       1.38549629       1.01448637       2.22498473      -0.01215205      -0.00849425       0.01377328
Si       8.22597083       6.84112983       9.75693109      -0.00301761       0.00676499      -0.01005794
Si       5.55479700       3.86846791       5.04375967       0.00301761      -0.00676499       0.01005794
Si       6.49889904       3.38999715       2.89504876      -0.01333703      -0.00895291       0.01236725
Si       7.28186880       7.31960060      11.90564200       0.01333703       0.00895291      -0.01236725
Si       7.61701293       4.79873305       8.79241855       0.01609417       0.00582604       0.01047638
Si       6.16375491       5.91086469       6.00827221      -0.01609417      -0.00582604      -0.01047638
Si       3.13850649       2.11993589       3.37754249      -0.00676695      -0.00206285       0.00641123
Si      10.64226135       8.58966185      11.42314827       0.00676695       0.00206286      -0.00641123
Si       5.31882027       5.08444343       8.08051862      -0.00873366       0.01026065       0.00546859
Si       8.46194757       5.62515432       6.72017214       0.00873366      -0.01026065      -0.00546859
Si       6.61437703       5.47135625       1.72723902       0.02651922      -0.01657513      -0.00824938
Si       7.16639081       5.23824149      13.07345174      -0.02651921       0.01657513       0.00824938
20
Lattice="6.915219068678802 0.8721321971977393 0.6812006426836639 2.0066671049915037 5.274809622580042 1.113938454834441 4.855301815456907 4.56552231840956 13.013495083891147" Properties=species:S:1:pos:R:3:forces:R:3 unique_starting_index=222 config_type=initial n_minim_iter=3 energy=-3258.460940577877 stress="-3.920779278378511e-05 -0.00014705610069959914 9.968813710346789e-05 -0.00014705610069959914 0.0002730181713508538 0.00014033051018272236 9.968813710346789e-05 0.00014033051018272236 -4.438249228474013e-05" free_energy=-3258.460940577877 pbc="T T T"
Si       9.07134967       7.77146917       7.53681045      -0.00949238      -0.02043502       0.00098720
Si       4.70583832       2.94099497       7.27182373       0.00949238       0.02043502      -0.00098720
Si      10.56780450       6.51793416      10.32966093       0.01082795       0.00508761       0.02761104
Si       3.20938349       4.19452998       4.47897325      -0.01082795      -0.00508760      -0.02761104
Si       4.78198022       2.29545107       1.72118099       0.00196806      -0.00674697      -0.01339700
Si       8.99520777       8.41701307      13.08745319      -0.00196806       0.00674697       0.01339700
Si      12.39210214       9.69770018      12.58248184       0.01803824       0.00219566      -0.01195734
Si       1.38508584       1.01476396       2.22615234      -0.01803824      -0.00219566       0.01195734
Si       8.22379336       6.84340559       9.76171597      -0.00065093       0.00379294      -0.00975040
Si       5.55339462       3.86905855       5.04691821       0.00065092      -0.00379294       0.00975040
Si       6.49669705       3.38940545       2.89801859      -0.00500224      -0.01190727       0.01265289
Si       7.28049094       7.32305869      11.91061560       0.00500224       0.01190727      -0.01265288
Si       7.61594766       4.80013542       8.79681149       0.01433082       0.00680553       0.01360772
Si       6.16124033       5.91232872       6.01182269      -0.01433081      -0.00680553      -0.01360772
Si       3.13770327       2.12040454       3.37937296      -0.00907469       0.00130840       0.01421301
Si      10.63948471       8.59205960      11.42926122       0.00907469      -0.00130840      -0.01421300
Si       5.31739784       5.08677719       8.08428392      -0.00768335       0.00469488       0.00695509
Si       8.45979015       5.62568695       6.72435026       0.00768335      -0.00469488      -0.00695509
Si       6.61189305       5.47112750       1.73015826       0.01842607      -0.00908712      -0.00422483
Si       7.16529494       5.24133664      13.07847592      -0.01842606       0.00908712       0.00422483
20
Lattice="6.913017300004734 0.8701531654943533 0.6815398782754617 2.0049741781456674 5.271615698769314 1.1139725092091879 4.8529457981069815 4.560512055619506 13.021418030846265" Properties=species:S:1:pos:R:3:forces:R:3 unique_starting_index=222 config_type=initial n_minim_iter=4 energy=-3258.4611894207355 stress="3.5352987584939763e-06 -0.0003642178754727348 -7.743439601428128e-05 -0.0003642178754727348 -0.000381171814866896 -7.974001039610167e-05 -7.743439601428128e-05 -7.974001039610167e-05 0.00024601587081760215" free_energy=-3258.4611894207355 pbc="T T T"
Si       9.06639339       7.76329895       7.54093200      -0.00380789      -0.00701952       0.00196305
Si       4.70454389       2.93898197       7.27599842       0.00380789       0.00701952      -0.00196306
Si      10.56427131       6.51092881      10.33754559       0.00421813       0.00701813       0.00970621
Si       3.20666596       4.19135211       4.47938482      -0.00421813      -0.00701813      -0.00970621
Si       4.78027245       2.29297594       1.72158349      -0.01223826      -0.00967409      -0.00990914
Si       8.99066483       8.40930498      13.09534693       0.01223826       0.00967409       0.00990914
Si      12.38738003       9.68912236      12.58851231       0.01216135      -0.00686718       0.00339270
Si       1.38355724       1.01315856       2.22841811      -0.01216135       0.00686718      -0.00339270
Si       8.21978609       6.83741509       9.76649466       0.01008119       0.01272004       0.00543416
Si       5.55115119       3.86486583       5.05043576      -0.01008119      -0.01272004      -0.00543416
Si       6.49323182       3.38528405       2.90036000       0.00109491      -0.00388152       0.01476434
Si       7.27770545       7.31699687      11.91657042      -0.00109491       0.00388152      -0.01476434
Si       7.61386218       4.79544726       8.80270672       0.00142517      -0.00002740      -0.00347027
Si       6.15707510       5.90683366       6.01422370      -0.00142517       0.00002740       0.00347027
Si       3.13589325       2.11812092       3.38180230      -0.00393763      -0.00850845      -0.00198141
Si      10.63504402       8.58416000      11.43512812       0.00393763       0.00850845       0.00198141
Si       5.31418576       5.08271729       8.08930544       0.00707172       0.01700245       0.00650826
Si       8.45675152       5.61956363       6.72762498      -0.00707172      -0.01700245      -0.00650826
Si       6.61056392       5.46568401       1.72998608      -0.00352530      -0.00209145      -0.00729525
Si       7.16037336       5.23659691      13.08694433       0.00352530       0.00209145       0.00729525
20
Lattice="6.912549632050477 0.8744003568509866 0.6822902064980333 2.0077879379169574 5.2745914218361145 1.1142966896351951 4.856259964514619 4.56528923362606 13.021061437165553" Properties=species:S:1:pos:R:3:forces:R:3 unique_starting_index=222 config_type=initial n_minim_iter=5 energy=-3258.4613537229748 stress="1.6143450302625138e-05 4.548244344440452e-05 0.00013051871501472387 4.548244344440452e-05 -0.0001514391230541937 5.0638870649908755e-05 0.00013051871501472387 5.0638870649908755e-05 0.00011618329306868528" free_energy=-3258.4613537229748 pbc="T T T"
Si       9.06989948       7.77059246       7.54172662      -0.00092234      -0.01468655      -0.00119941
Si       4.70669806       2.94368855       7.27592171       0.00092234       0.01468655       0.00119941
Si      10.56803122       6.51946048      10.33920378      -0.00094244       0.01222562       0.00781326
Si       3.20856631       4.19482053       4.47844455       0.00094244      -0.01222562      -0.00781326
Si       4.78108464       2.29643678       1.72178823      -0.00962110      -0.01524220      -0.00669814
Si       8.99551289       8.41784423      13.09586010       0.00962110       0.01524220       0.00669814
Si      12.39296352       9.70015210      12.58873829       0.00107345      -0.01126183       0.00030415
Si       1.38363401       1.01412891       2.22891004      -0.00107345       0.01126183      -0.00030415
Si       8.22346992       6.84504642       9.76650745       0.01280156       0.00285288       0.00542966
Si       5.55312761       3.86923459       5.05114088      -0.01280156      -0.00285288      -0.00542966
Si       6.49405534       3.38984846       2.90150422      -0.00595408       0.00036587       0.00414175
Si       7.28254219       7.32443256      11.91614412       0.00595408      -0.00036587      -0.00414175
Si       7.61702879       4.80196739       8.80340294      -0.00240961       0.00960088      -0.00934164
Si       6.15956874       5.91231362       6.01424540       0.00240961      -0.00960088       0.00934164
Si       3.13674359       2.12064555       3.38221061      -0.00939080      -0.00899182      -0.01105704
Si      10.63985395       8.59363546      11.43543772       0.00939080       0.00899182       0.01105704
Si       5.31688705       5.08817550       8.08966057       0.01625616       0.00785120       0.00006394
Si       8.45971048       5.62610551       6.72798777      -0.01625615      -0.00785120      -0.00006394
Si       6.61377208       5.47077569       1.73044213      -0.01319302       0.00297680       0.00143278
Si       7.16282545       5.24350532      13.08720621       0.01319302      -0.00297680      -0.00143278
20
Lattice="6.911911141325881 0.874812535747369 0.6798801858465442 2.0074625730232842 5.27640319668254 1.1126423463967048 4.852108510900329 4.565241518080562 13.015444672713228" Properties=species:S:1:pos:R:3:forces:R:3 unique_starting_index=222 config_type=initial n_minim_iter=6 energy=-3258.4614037777246 stress="-7.915427393412684e-05 1.7805745339739223e-06 -5.078866814402734e-05 1.7805745339739223e-06 5.182967337626338e-05 -4.621587508022864e-05 -5.078866814402734e-05 -4.621587508022864e-05 3.4922530175295974e-05" free_energy=-3258.4614037777246 pbc="T T T"
Si       9.06712665       7.77232469       7.53586609      -0.00070686      -0.01518793      -0.00004136
Si       4.70435558       2.94413256       7.27210111       0.00070686       0.01518793       0.00004136
Si      10.56448747       6.52071611      10.33260220       0.00222204       0.00912817       0.00753536
Si       3.20699476       4.19574114       4.47536501      -0.00222204      -0.00912817      -0.00753536
Si       4.78026609       2.29704735       1.71944051      -0.01519731      -0.01604990      -0.00615381
Si       8.99121614       8.41940990      13.08852669       0.01519731       0.01604990       0.00615382
Si      12.38872716       9.70223056      12.58010250       0.00490572      -0.00815921       0.00063770
Si       1.38275507       1.01422669       2.22786470      -0.00490572       0.00815921      -0.00063770
Si       8.22020795       6.84646054       9.76036050       0.01109181       0.00082348       0.00496856
Si       5.55127428       3.86999671       5.04760671      -0.01109181      -0.00082348      -0.00496856
Si       6.49269827       3.39075655       2.89842232      -0.00184855       0.00483020       0.00309685
Si       7.27878395       7.32570070      11.90954489       0.00184855      -0.00483020      -0.00309685
Si       7.61411777       4.80279310       8.79808868      -0.00152510       0.00970620      -0.01059663
Si       6.15736446       5.91366415       6.00987853       0.00152510      -0.00970620       0.01059663
Si       3.13544985       2.12095113       3.38005218      -0.00346362      -0.00673948      -0.01220806
Si      10.63603238       8.59550612      11.42791503       0.00346362       0.00673948       0.01220806
Si       5.31423964       5.08916866       8.08521144       0.01347919       0.00703780      -0.00021191
Si       8.45724259       5.62728859       6.72275576      -0.01347919      -0.00703780       0.00021191
Si       6.61310680       5.47257490       1.72712083      -0.01313245       0.00040112       0.00571482
Si       7.15837542       5.24388235      13.08084638       0.01313245      -0.00040112      -0.00571482
20
Lattice="6.914719990237006 0.8746552601079559 0.6793095260153853 2.0080854426857466 5.276343391292622 1.1125310130250463 4.853339333759066 4.566224025682302 13.00973120284592" Properties=species:S:1:pos:R:3:forces:R:3 unique_starting_index=222 config_type=initial n_minim_iter=7 energy=-3258.461459303291 stress="0.0001519751583638149 -1.4870035576243305e-05 -1.346626400364049e-05 -1.4870035576243305e-05 9.23068120115614e-06 2.0776315048761258e-05 -1.346626400364049e-05 2.0776315048761258e-05 -0.00018112357245553243" free_energy=-3258.461459303291 pbc="T T T"
Si       9.07020115       7.77216044       7.53273667      -0.00038820      -0.01322205       0.00026505
Si       4.70594361       2.94506223       7.26883508       0.00038820       0.01322205      -0.00026505
Si      10.56828067       6.52143732      10.32835544       0.00294891       0.00879731       0.00156596
Si       3.20786409       4.19578536       4.47321630      -0.00294891      -0.00879731      -0.00156596
Si       4.78183430       2.29668236       1.71845681      -0.01023789      -0.01420691       0.00028718
Si       8.99431047       8.42054032      13.08311493       0.01023789       0.01420691      -0.00028718
Si      12.39313290       9.70270821      12.57461111       0.00652055      -0.01114538       0.00031681
Si       1.38301187       1.01451446       2.22696063      -0.00652055       0.01114538      -0.00031681
Si       8.22315413       6.84706885       9.75620246       0.01497912       0.00169989       0.00188824
Si       5.55299064       3.87015383       5.04536928      -0.01497912      -0.00169989      -0.00188824
Si       6.49500863       3.39076886       2.89726428      -0.00246686      -0.00266859      -0.00084726
Si       7.28113614       7.32645382      11.90430747       0.00246686       0.00266859       0.00084726
Si       7.61677293       4.80353816       8.79404028      -0.00439299       0.00659120      -0.00639996
Si       6.15937184       5.91368451       6.00753146       0.00439299      -0.00659120       0.00639996
Si       3.13636582       2.12096972       3.37837641      -0.00368790      -0.00581843      -0.01260569
Si      10.63977894       8.59625295      11.42319533       0.00368790       0.00581843       0.01260569
Si       5.31612588       5.08988129       8.08179833       0.01137420       0.00625832       0.00840220
Si       8.46001889       5.62734138       6.71977341      -0.01137420      -0.00625832      -0.00840220
Si       6.61550428       5.47235298       1.72655295      -0.01566664       0.00085996       0.00477119
Si       7.16064049       5.24486969      13.07501879       0.01566664      -0.00085996      -0.00477119
20
Lattice="6.913861176106061 0.8754196926833995 0.6795841965045445 2.0082912209901105 5.2771189652838055 1.1132795190430522 4.853245827469207 4.568481666578176 13.012032972784906" Properties=species:S:1:pos:R:3:forces:R:3 unique_starting_index=222 config_type=initial n_minim_iter=8 energy=-3258.461614535548 stress="5.0702978480040675e-05 3.498817918045186e-05 -3.892381030413415e-06 3.498817918045186e-05 7.94972770941048e-05 7.209105568993522e-05 -3.892381030413415e-06 7.209105568993522e-05 -0.00010527119162794382" free_energy=-3258.461614535548 pbc="T T T"
Si       9.06952249       7.77327345       7.53474783      -0.00172671      -0.01155800      -0.00146119
Si       4.70587573       2.94774688       7.27014886       0.00172671       0.01155800       0.00146119
Si      10.56788188       6.52461903      10.33145428       0.00794549       0.00575460      -0.00208538
Si       3.20751635       4.19640129       4.47344241      -0.00794549      -0.00575460       0.00208538
Si       4.78070616       2.29656891       1.71860072       0.00049103      -0.00318432       0.00476073
Si       8.99469206       8.42445142      13.08629597      -0.00049103       0.00318432      -0.00476073
Si      12.39297680       9.70561254      12.57729983       0.00200721      -0.00334651       0.00660654
Si       1.38242142       1.01540779       2.22759685      -0.00200721       0.00334651      -0.00660654
Si       8.22344702       6.84969228       9.75842635       0.01140959       0.00077304      -0.00082746
Si       5.55195120       3.87132805       5.04647034      -0.01140959      -0.00077304       0.00082746
Si       6.49407740       3.39188403       2.89848733      -0.01204107      -0.00470490      -0.00584949
Si       7.28132082       7.32913629      11.90640936       0.01204107       0.00470490       0.00584949
Si       7.61642045       4.80623208       8.79550608       0.00187453       0.00301929       0.00446956
Si       6.15897778       5.91478825       6.00939061      -0.00187453      -0.00301929      -0.00446956
Si       3.13576340       2.12136324       3.37854147      -0.00157830      -0.00566319      -0.00473937
Si      10.63963483       8.59965708      11.42635522       0.00157830       0.00566319       0.00473937
Si       5.31658312       5.09228456       8.08374018       0.00274954       0.00574001       0.01351165
Si       8.45881510       5.62873576       6.72115651      -0.00274954      -0.00574001      -0.01351165
Si       6.61475443       5.47340267       1.72756373      -0.00812379      -0.00436020      -0.00024577
Si       7.16064380       5.24761766      13.07733296       0.00812379       0.00436020       0.00024577
20
Lattice="6.913382195667059 0.8753023628865728 0.6812865654898256 2.0083498522731316 5.27740346639519 1.1127736215955495 4.8561160571797055 4.565920609839636 13.014494897233815" Properties=species:S:1:pos:R:3:forces:R:3 unique_starting_index=222 config_type=initial n_minim_iter=9 energy=-3258.461695910074 stress="3.293481737561805e-05 -2.022778084563765e-05 0.0001833122599995593 -2.022778084563765e-05 0.00011565349491715634 -0.0002142723077243181 0.0001833122599995593 -0.0002142723077243181 -6.09016290067547e-05" free_energy=-3258.461695910074 pbc="T T T"
Si       9.07002028       7.77007252       7.53668796      -0.00436251      -0.00175781      -0.00321435
Si       4.70782783       2.94855392       7.27186713       0.00436251       0.00175781       0.00321434
Si      10.57040137       6.52358656      10.33615503       0.00511674      -0.00264209      -0.00670892
Si       3.20744673       4.19503987       4.47240005      -0.00511674       0.00264209       0.00670892
Si       4.77983791       2.29511981       1.71904565       0.01010723       0.01451910       0.00311850
Si       8.99801020       8.42350663      13.08950944      -0.01010723      -0.01451910      -0.00311850
Si      12.39595006       9.70319517      12.58009230      -0.00056020       0.00453188       0.01119958
Si       1.38189805       1.01543127       2.22846278       0.00056020      -0.00453188      -0.01119958
Si       8.22620254       6.84856299       9.76055445       0.01378926       0.00324105      -0.00408502
Si       5.55164557       3.87006345       5.04800063      -0.01378926      -0.00324105       0.00408502
Si       6.49314522       3.39114113       2.90055930      -0.01590873      -0.00486600      -0.01566160
Si       7.28470289       7.32748531      11.90799579       0.01590873       0.00486599       0.01566160
Si       7.61855113       4.80564453       8.79779018       0.00544086      -0.00795764       0.01392396
Si       6.15929697       5.91298191       6.01076490      -0.00544086       0.00795764      -0.01392396
Si       3.13564400       2.12001511       3.37879209       0.00185094      -0.01442982       0.00634112
Si      10.64220410       8.59861133      11.42976299      -0.00185094       0.01442982      -0.00634112
Si       5.31882066       5.09206059       8.08604170       0.00318267       0.00811676       0.01638625
Si       8.45902744       5.62656585       6.72251338      -0.00318267      -0.00811676      -0.01638625
Si       6.61447499       5.47279662       1.72819754      -0.00872933      -0.01025269      -0.00219961
Si       7.16337311       5.24582982      13.08035754       0.00872933       0.01025269       0.00219961
20
Lattice="6.912380100892634 0.8758956288751926 0.6803667051440541 2.008213111689662 5.27731459249325 1.114417118248733 4.853199592198813 4.5701564763900855 13.01794792432706" Properties=species:S:1:pos:R:3:forces:R:3 unique_starting_index=222 config_type=initial n_minim_iter=10 energy=-3258.461775517359 stress="-6.885307156308326e-05 3.920041856798005e-06 -1.5732227414797163e-05 3.920041856798005e-06 -1.4488161149213815e-05 1.315600056736742e-05 -1.5732227414797163e-05 1.315600056736742e-05 7.140905895858149e-05" free_energy=-3258.461775517359 pbc="T T T"
Si       9.06740417       7.77074730       7.53924072      -0.00299092      -0.00000263      -0.00518264
Si       4.70638863       2.95261940       7.27349103       0.00299092       0.00000264       0.00518263
Si      10.56807682       6.52756478      10.33976713       0.01017427       0.00007069      -0.01410285
Si       3.20571598       4.19580191       4.47296462      -0.01017426      -0.00007069       0.01410285
Si       4.77849016       2.29497193       1.71887551       0.01172152       0.01512099       0.01040139
Si       8.99530264       8.42839476      13.09385623      -0.01172152      -0.01512099      -0.01040139
Si      12.39315608       9.70694459      12.58349462      -0.00569394       0.00746532       0.02161764
Si       1.38063672       1.01642211       2.22923713       0.00569394      -0.00746532      -0.02161764
Si       8.22444172       6.85202212       9.76327259       0.01074428       0.00347719      -0.00112049
Si       5.54935109       3.87134458       5.04945916      -0.01074428      -0.00347719       0.00112049
Si       6.49106022       3.39184933       2.90148364      -0.02059055      -0.00663181      -0.01381630
Si       7.28273258       7.33151736      11.91124811       0.02059055       0.00663181       0.01381630
Si       7.61662288       4.80926446       8.79989866       0.00602215      -0.00610272       0.01544332
Si       6.15716993       5.91410224       6.01283309      -0.00602215       0.00610272      -0.01544332
Si       3.13421725       2.12050516       3.37923522       0.00368505      -0.00734694       0.00353317
Si      10.63957555       8.60286154      11.43349652      -0.00368505       0.00734694      -0.00353317
Si       5.31731749       5.09547256       8.08910769      -0.00156212       0.00891963       0.01941980
Si       8.45647531       5.62789413       6.72362406       0.00156212      -0.00891963      -0.01941980
Si       6.61359601       5.47257771       1.72900587      -0.00430037      -0.00746251      -0.00670019
Si       7.16019679       5.25078898      13.08372588       0.00430036       0.00746251       0.00670019
20
Lattice="6.915609370554513 0.8760863257189955 0.6796691696315067 2.0092993738383886 5.275847823043894 1.115136384808023 4.85421396681694 4.571498754901397 13.016890796767933" Properties=species:S:1:pos:R:3:forces:R:3 unique_starting_index=222 config_type=initial n_minim_iter=11 energy=-3258.462027190642 stress="1.966076481614661e-05 6.757405624596063e-06 -0.00012462471226776264 6.757405624596063e-06 -7.436070087018834e-05 0.0001445176168905926 -0.00012462471226776264 0.0001445176168905926 4.780957075894762e-06" free_energy=-3258.462027190642 pbc="T T T"
Si       9.07066816       7.76861894       7.53857705      -0.00470129      -0.00010338      -0.00811840
Si       4.70845455       2.95481396       7.27311930       0.00470129       0.00010338       0.00811840
Si      10.57350064       6.52858136      10.33852760       0.00049784       0.00479099      -0.00001990
Si       3.20562207       4.19485154       4.47316875      -0.00049784      -0.00479099       0.00001990
Si       4.78091053       2.29501701       1.71909743      -0.00804793      -0.00556946      -0.00115531
Si       8.99821218       8.42841590      13.09259892       0.00804793       0.00556946       0.00115531
Si      12.39825963       9.70690325      12.58418244       0.00205000       0.00339138       0.00858065
Si       1.38086309       1.01652965       2.22751391      -0.00205000      -0.00339137      -0.00858065
Si       8.22938502       6.85264536       9.76253182       0.00819728       0.00501496       0.00006780
Si       5.54973769       3.87078754       5.04916453      -0.00819728      -0.00501496      -0.00006780
Si       6.49171755       3.39085005       2.90024640       0.00253966      -0.00889417       0.00370488
Si       7.28740516       7.33258286      11.91144995      -0.00253966       0.00889417      -0.00370488
Si       7.62012282       4.80996473       8.80005812      -0.00109001       0.00858522      -0.00216456
Si       6.15899989       5.91346817       6.01163823       0.00109001      -0.00858522       0.00216456
Si       3.13525912       2.11940122       3.37859050      -0.00371260       0.00907220      -0.00863937
Si      10.64386359       8.60403168      11.43310585       0.00371260      -0.00907220       0.00863937
Si       5.31973152       5.09711891       8.09076762       0.01484734       0.00538742      -0.00038831
Si       8.45939119       5.62631399       6.72092873      -0.01484734      -0.00538742       0.00038831
Si       6.61592393       5.47042100       1.72873738      -0.00023079       0.01047861       0.00495714
Si       7.16319878       5.25301191      13.08295897       0.00023079      -0.01047861      -0.00495714
20
Lattice="6.917137406812958 0.8765901844901041 0.6812369074962411 2.010359421357701 5.275827013232195 1.1153648099960314 4.858437322261525 4.570995740537615 13.018859715903577" Properties=species:S:1:pos:R:3:forces:R:3 unique_starting_index=222 config_type=initial n_minim_iter=12 energy=-3258.4621584370348 stress="-2.855510529304899e-06 -3.1223424993883873e-06 2.9491588513832173e-05 -3.1223424993883873e-06 1.651993492732691e-05 -4.9315841247353846e-05 2.9491588513832173e-05 -4.9315841247353846e-05 -1.1374824623761143e-05" free_energy=-3258.4621584370348 pbc="T T T"
Si       9.07352652       7.76486595       7.54043108      -0.00916535       0.00868070      -0.01297932