20
Lattice="4.240709893142542 -3.7886543005481885e-16 -1.7240115313472377e-14 5.92863994550234e-16 6.636034875525161 1.4950952645781855e-13 6.456194185461005e-14 -3.574954502886201e-13 15.880895258826083" Properties=species:S:1:pos:R:3:forces:R:3 unique_starting_index=440 config_type=initial n_minim_iter=16 energy=-3254.832611725047 stress="1.732484401541988e-05 1.4435779792925924e-15 7.752152838572103e-14 1.4435779792925924e-15 3.7224130661381226e-06 -1.7327526778474236e-12 7.752152838572103e-14 -1.7327526778474236e-12 7.578181433054966e-06" free_energy=-3254.832611725047 pbc="T T T"
Si       2.46054071       3.27198421       9.13362188      -0.00113837       0.00206564      -0.00118495
Si       2.46054071       3.36405066       6.74727338      -0.00113837      -0.00206564       0.00118495
Si       0.34018576       0.04603322       9.13362188      -0.00113837      -0.00206564      -0.00118495
Si       0.34018576       6.59000165       6.74727338      -0.00113837       0.00206564       0.00118495
Si       0.34073438       4.44130701      13.39149965      -0.00034270      -0.00047599      -0.00184162
Si       0.34073438       2.19472787       2.48939561      -0.00034270       0.00047599       0.00184162
Si       2.46108932       5.51274531      13.39149965      -0.00034270       0.00047599      -0.00184162
Si       2.46108932       1.12328957       2.48939561      -0.00034270      -0.00047599       0.00184162
Si       2.46008440       2.14534686       0.13215653       0.00045947       0.00099646       0.00092239
Si       2.46008440       4.49068801      15.74873873       0.00045947      -0.00099646      -0.00092239
Si       0.33972945       1.17267058       0.13215653       0.00045947      -0.00099646       0.00092239
Si       0.33972945       5.46336430      15.74873873       0.00045947       0.00099646      -0.00092239
Si       2.46110386       1.04086873      12.23806370      -0.00097708       0.00380671       0.00159186
Si       2.46110386       5.59516615       3.64283156      -0.00097708      -0.00380671      -0.00159186
Si       4.58145881       2.27714871      12.23806370      -0.00097708      -0.00380671       0.00159186
Si       4.58145881       4.35888616       3.64283156      -0.00097708       0.00380671      -0.00159186
Si       0.34006591       2.54561134       9.88542880       0.00199868       0.00094156       0.00149961
Si       0.34006591       4.09042354       5.99546646       0.00199868      -0.00094156      -0.00149961
Si       2.46042085       0.77240610       9.88542880       0.00199868      -0.00094156       0.00149961
Si       2.46042085       5.86362877       5.99546646       0.00199868       0.00094156      -0.00149961
