20
Lattice="2.502190618619871 0.22708928937567485 -0.11135175180586415 1.6743557138933196 8.475227810142922 1.6060924516731363 0.414350324663866 6.837658742483311 17.01709518603939" Properties=species:S:1:pos:R:3:forces:R:3 unique_starting_index=238 config_type=initial n_minim_iter=1 energy=-3256.066450453128 stress="0.0005412814035518838 -0.0005756667364717138 0.0007631415954275974 -0.0005756667364717138 -0.0012627920311698983 0.0012677817411802525 0.0007631415954275974 0.0012677817411802525 -0.003891445659101095" free_energy=-3256.066450453128 pbc="T T T"
Si       4.04220620      11.49581854       9.49721301      -0.02654693      -0.06363775      -0.01342584
Si       3.87451231      13.08251392      17.33566189       0.35959431      -0.00211206      -0.24785239
Si       3.81350464      15.46716653      15.75535870      -0.07703731       0.00541319      -0.06639957
Si       1.84971246       5.50801137       2.80159673      -0.20667206      -0.06536399       0.03605822
Si       1.71456057       8.85897093       8.37229667      -0.05629620       0.32667165      -0.14582860
Si       1.84302448       7.13657534       6.68796460       0.04187207      -0.25358836      -0.25080775
Si       3.85969875      11.20507680       6.98796367       0.07655451      -0.11107685       0.23725140
Si      -0.33683572       1.33402189       3.38349775       0.01343899      -0.12619867      -0.11949803
Si       1.90427836       5.11775175       5.18264510       0.05803055       0.09210671      -0.05557670
Si       4.26745722      10.96636685      14.59175357      -0.03563313       0.07213905      -0.14799451
Si       3.99374940      13.37524252      14.51410380       0.00629630      -0.00912456       0.14363604
Si       1.88042396       8.23273742      10.64703116       0.05055603      -0.12151592       0.23636510
Si       1.45477530       7.80505456       3.56981272      -0.06043321       0.25982245       0.22976530
Si       2.13893583       6.99718257      16.57704012       0.06929834       0.06016709       0.11197427
Si       1.98600249       9.37832267      16.60540802       0.02212860      -0.03709263       0.24305487
Si       2.16967296       5.39721211       8.31540591      -0.05560712      -0.13610435       0.01724776
Si       4.34062582       9.28960988      12.80129487       0.08842366      -0.02020885      -0.21505071
Si       1.61866359      11.46741733      12.09209709      -0.04662175       0.07766315      -0.03577093
Si       2.23048893       5.87882528      10.68093677      -0.13581821       0.00623451      -0.00926010
Si       1.82505224       3.34468136       1.78171308      -0.08552743       0.04580619       0.05211217
20
Lattice="2.500960589990639 0.22911404492122614 -0.1142054253457046 1.6773331961210882 8.485661162436022 1.599824343213896 0.404287189057467 6.823859711831021 17.0791760592771" Properties=species:S:1:pos:R:3:forces:R:3 unique_starting_index=238 config_type=initial n_minim_iter=2 energy=-3256.072127341052 stress="0.0014290758109600451 -0.0006826793009359728 0.0007924401253893109 -0.0006826793009359728 0.0030212906218997516 0.000491810096610314 0.0007924401253893109 0.000491810096610314 0.002445930582298145" free_energy=-3256.072127341052 pbc="T T T"
Si       4.03906262      11.50079326       9.51809419      -0.02617372      -0.05529058       0.00722588
Si       3.86724936      13.07897621      17.38680386       0.36500932      -0.00119683      -0.23654244
Si       3.80762476      15.46905206      15.79720483      -0.08046913       0.02566735      -0.04662695
Si       1.84906152       5.51263054       2.80443376      -0.21112684      -0.06975609       0.07001032
Si       1.71196766       8.86173008       8.39354153      -0.05225202       0.29754038      -0.09900413
Si       1.84100082       7.13744809       6.70401588       0.04539790      -0.26650126      -0.21490628
Si       3.85889864      11.21283396       6.99963901       0.07022878      -0.11242751       0.22014165
Si      -0.33856259       1.33056318       3.39582579       0.00435504      -0.06713812      -0.12975516
Si       1.90225938       5.11911864       5.19571809       0.05802670       0.08505174      -0.10382276
Si       4.25960518      10.96419910      14.63423294      -0.02692526       0.03147328      -0.11251421
Si       3.98776235      13.37603641      14.55413918       0.00289881      -0.00049182       0.10259736
Si       1.87581280       8.23012259      10.67987751       0.04691537      -0.10715863       0.19273122
Si       1.45563731       7.81259366       3.57370218      -0.06923713       0.26558848       0.18065951
Si       2.12855710       6.98548259      16.63598899       0.08017343       0.05077219       0.11451656
Si       1.97701803       9.36942323      16.66176407       0.02352826       0.00591573       0.21569912
Si       2.16470248       5.39405769       8.34134263      -0.06042292      -0.10472207       0.02582585
Si       4.33357843       9.28735046      12.83823969       0.09104584      -0.02745479      -0.20235664
Si       1.61470603      11.46774043      12.12590188      -0.04510343       0.06521121      -0.05766143
Si       2.22355966       5.87358578      10.71605706      -0.13623631      -0.00836310       0.00549542
Si       1.82431238       3.34809731       1.78329475      -0.07963267      -0.00671958       0.06828710
20
Lattice="2.4936122789321162 0.233778373506679 -0.12131484447030236 1.6851056040346744 8.457468269279403 1.5750071831325936 0.37410682686794194 6.755693105073943 17.089381776386706" Properties=species:S:1:pos:R:3:forces:R:3 unique_starting_index=238 config_type=initial n_minim_iter=3 energy=-3256.080222211565 stress="-0.00398179225874678 -0.00019336326109948527 0.00034504892970457063 -0.00019336326109948527 -0.0016248579135965822 -0.0013855128184164982 0.00034504892970457063 -0.0013855128184164982 0.0013554593312062751" free_energy=-3256.080222211565 pbc="T T T"
Si       4.02524126      11.44530961       9.49294121      -0.02008177      -0.09980251       0.00876905
Si       3.84132640      12.99696431      17.36918308       0.38823992      -0.01933403      -0.23646590
Si       3.78638757      15.38379939      15.77219753      -0.08581067       0.05890911      -0.00279420
Si       1.84518720       5.49031486       2.79005841      -0.21569604      -0.05258066       0.11865927
Si       1.70288589       8.81671933       8.37834166      -0.04730948       0.27138586      -0.01665649
Si       1.83317600       7.09727865       6.68920434       0.03574851      -0.27074092      -0.21917756
Si       3.85233922      11.16433144       6.97358743       0.06054720      -0.10975691       0.20177651
Si      -0.34317314       1.31531474       3.39774430       0.00489742      -0.02683050      -0.09513479
Si       1.89406049       5.09312140       5.18514763       0.05552710       0.08223391      -0.14865945
Si       4.23115081      10.89785224      14.61774979      -0.00862121      -0.01842316      -0.04301852
Si       3.96561578      13.30107685      14.53403169      -0.00136500       0.01274048       0.05297369
Si       1.86018504       8.17697032      10.67336564       0.02894941      -0.03011265       0.11532427
Si       1.45719038       7.78323071       3.55678368      -0.06819723       0.24637328       0.14936503
Si       2.09496131       6.92206472      16.64175970       0.09182884       0.00964112       0.10360260
Si       1.94816480       9.29729721      16.66252810       0.01255143       0.08225419       0.13949753
Si       2.14719798       5.35698253       8.33592401      -0.06940091      -0.03266652       0.02238488
Si       4.30715997       9.23075545      12.82225387       0.09454344      -0.03836625      -0.18516109
Si       1.60196210      11.40152154      12.11106356      -0.04725734       0.06412936      -0.06788655
Si       2.20014032       5.82970034      10.71311309      -0.13215584      -0.08787338       0.02949134
Si       1.81992503       3.33633013       1.77321680      -0.07693779      -0.04117984       0.07311039
20
Lattice="2.504304981449848 0.24173274109044668 -0.1320435507945329 1.7120658730807974 8.452481311113047 1.5592021046590812 0.3260532254552677 6.73338911783413 17.075438337685576" Properties=species:S:1:pos:R:3:forces:R:3 unique_starting_index=238 config_type=initial n_minim_iter=4 energy=-3256.091275322838 stress="0.00396944534199385 0.0016158134304824856 -0.0012547325633749317 0.0016158134304824856 -0.0028387929255725202 -0.0020009524262484205 -0.0012547325633749317 -0.0020009524262484205 0.0007965902977452476" free_energy=-3256.091275322838 pbc="T T T"
Si       4.03718407      11.43572326       9.46168566      -0.01233133      -0.09316319       0.02941377
Si       3.83269903      12.97897621      17.32956462       0.38568492      -0.01078237      -0.21923398
Si       3.78281243      15.36528412      15.73519494      -0.07892575       0.06319421       0.01784754
Si       1.85393524       5.48652542       2.77756598      -0.19881757      -0.02289298       0.11567947
Si       1.70175928       8.81084787       8.35797917      -0.04130448       0.18276461       0.01625370
Si       1.83586582       7.08409072       6.66776126       0.02307546      -0.22770920      -0.17448876
Si       3.87503921      11.15610094       6.94859872       0.04012463      -0.07421225       0.14347076
Si      -0.35423696       1.30810853       3.39444400       0.00544490       0.00525278      -0.03185146
Si       1.89715916       5.09065615       5.16836707       0.04881679       0.04518421      -0.15510883
Si       4.22081948      10.88662660      14.58230435       0.00797425      -0.05058075      -0.01034624
Si       3.96283385      13.28595230      14.50149410      -0.00886808       0.01953512       0.02709037
Si       1.84983230       8.16237100      10.65764754       0.01530864      -0.00693956       0.03839561
Si       1.47155817       7.78141981       3.54565065      -0.05901043       0.18609630       0.12837703
Si       2.05740767       6.90640188      16.62273635       0.09060514      -0.00473630       0.08046992
Si       1.91636142       9.27811899      16.64366054       0.00957662       0.11945607       0.06233066
Si       2.13656202       5.34844827       8.31929557      -0.06884858      -0.01192286       0.02368220
Si       4.30155372       9.22214651      12.78669277       0.09102507      -0.02801726      -0.14935839
Si       1.59328582      11.38443179      12.08807609      -0.04458890       0.05776900      -0.06576886
Si       2.17987443       5.81980937      10.69472377      -0.13093087      -0.12289796       0.03832550
Si       1.82851326       3.33697087       1.76302082      -0.07401041      -0.02539764       0.08481999
20
Lattice="2.4942715167863536 0.24730393175839513 -0.14312789799544906 1.7124448076091514 8.513791714421647 1.5794628323087114 0.25281757605754734 6.843915107371877 17.0443348639059" Properties=species:S:1:pos:R:3:forces:R:3 unique_starting_index=238 config_type=initial n_minim_iter=5 energy=-3256.1144431105886 stress="-0.001471322164774749 0.001456344157699632 -0.0025319896529142657 0.001456344157699632 0.001867059655283308 0.00044017912324927967 -0.0025319896529142657 0.00044017912324927967 -0.0012838770910373635" free_energy=-3256.1144431105886 pbc="T T T"
Si       3.99257979      11.54746938       9.45652500      -0.01181202      -0.01382100       0.04238459
Si       3.77341308      13.13515663      17.29274862       0.38145224       0.02769357      -0.21612171
Si       3.71277038      15.53158779      15.72453830      -0.06904478       0.01870266      -0.00315281
Si       1.83142596       5.53179970       2.78556291      -0.20549812       0.00602803       0.00318379
Si       1.66691770       8.91590031       8.35365172      -0.01863034      -0.06949784      -0.04844586
Si       1.80991101       7.14458939       6.65376463      -0.00999916      -0.05263067      -0.07372224
Si       3.84727196      11.25427307       6.96168110       0.00537823       0.05197600      -0.00993172
Si      -0.36657985       1.32609585       3.38505695       0.01529263       0.00801017       0.12356065
Si       1.87562957       5.15027560       5.15641244       0.05261322      -0.06831116      -0.03103599
Si       4.14941698      11.02056435      14.55232908       0.02050950      -0.04774017      -0.06732481
Si       3.89826520      13.43327941      14.49157546      -0.01235157      -0.01121001       0.10672923
Si       1.80592149       8.25494687      10.65396516       0.01991076      -0.08793056      -0.07811760
Si       1.45864155       7.85866135       3.56691962      -0.02767403       0.02524287       0.16332385
Si       1.98315393       7.02106326      16.59052913       0.08928882       0.05986666      -0.00551596
Si       1.84371405       9.40723579      16.62529357       0.02207972       0.03686699      -0.02024047
Si       2.09266462       5.41461290       8.30379281      -0.06341982      -0.09516426       0.01770847
Si       4.24121174       9.33667065      12.75001100       0.07154331       0.06209092      -0.04357505
Si       1.54539918      11.50923944      12.08298592      -0.03725601       0.05290557       0.00532478
Si       2.12131931       5.90009501      10.67265391      -0.14910069      -0.02890273       0.00498540
Si       1.81376526       3.36759455       1.76505723      -0.07328188       0.12582497       0.12998345
20
Lattice="2.4971805023666596 0.23376513304957738 -0.1253296159252157 1.6849673565708236 8.472514720733997 1.6078472698422819 0.3396265674075406 6.840659824621322 17.08893847308139" Properties=species:S:1:pos:R:3:forces:R:3 unique_starting_index=238 config_type=initial n_minim_iter=6 energy=-3256.1394532981644 stress="-0.00017466750785095995 -0.0001553340767080158 -0.0003858444460573356 -0.0001553340767080158 -0.0011429843562399055 0.0007934251091851313 -0.0003858444460573356 0.0007934251091851313 0.00014690834415781605" free_energy=-3256.1394532981644 pbc="T T T"
Si       4.00905442      11.49074404       9.52159615      -0.01561832      -0.02582323       0.06532794
Si       3.86148917      13.08905798      17.35780686       0.33477751       0.02943511      -0.19548648
Si       3.74958915      15.47518420      15.80331412      -0.03683582       0.02891162       0.06027843
Si       1.81450907       5.50147826       2.81656073      -0.20303658       0.08142022      -0.01587383
Si       1.68253597       8.89595173       8.39106865       0.02118906      -0.28631512       0.04069573
Si       1.82689759       7.10329628       6.67869727      -0.00602740       0.04798274       0.01073721
Si       3.85162433      11.19517449       7.02942594       0.00201346       0.13512638      -0.15102510
Si      -0.34948827       1.32493508       3.38780873       0.01015225       0.10780551       0.24717863
Si       1.89382801       5.13050051       5.18155109       0.04735725      -0.12879164      -0.02540782
Si       4.20546936      10.97696335      14.62126049       0.01749760      -0.11894455      -0.01593805
Si       3.94177196      13.38084147      14.57321459      -0.00889266       0.01777586       0.06937890
Si       1.84592056       8.22353500      10.70615241       0.00606394      -0.00844089      -0.22561176
Si       1.44435296       7.83648744       3.60709521      -0.02744155      -0.09340224       0.03484595
Si       2.07462759       7.01030053      16.65176113       0.08620998      -0.01696481       0.01168320
Si       1.91929499       9.38704920      16.69256701       0.00244432       0.10665241      -0.06725146
Si       2.12476905       5.38957581       8.34410912      -0.05582225      -0.03275314       0.05497175
Si       4.29908969       9.29636464      12.80872686       0.04163364       0.09125091       0.02880308
Si       1.57412018      11.47655842      12.13204655      -0.03380059       0.04753728       0.00180752
Si       2.16317373       5.87905731      10.71784913      -0.09977701      -0.08676550       0.00246166
Si       1.80839583       3.34894002       1.79171937      -0.08208684       0.10430308       0.06842449
20
Lattice="2.497762343350048 0.2338684986148831 -0.11648306586326775 1.6884367185250868 8.491581806634734 1.5804772752534806 0.40058004625329974 6.802294900372482 17.01991854969671" Properties=species:S:1:pos:R:3:forces:R:3 unique_starting_index=238 config_type=initial n_minim_iter=7 energy=-3256.1485604076315 stress="0.00025669623953353466 -0.0004532552796106746 0.0008647772158810096 -0.0004532552796106746 0.0011084458217565144 -0.0015654554080820043 0.0008647772158810096 -0.0015654554080820043 -0.001279480695038296" free_energy=-3256.1485604076315 pbc="T T T"
Si       4.04091855      11.48843000       9.47234405      -0.01944686       0.00251789       0.05742817
Si       3.93904593      13.06755098      17.26945721       0.31582865       0.03751374      -0.18132278
Si       3.80111210      15.46699710      15.72097729      -0.03220721       0.11709622       0.02583379
Si       1.81428703       5.50743469       2.79841891      -0.19705736       0.12849751      -0.04985498
Si       1.71007834       8.89459368       8.34242290       0.02505229      -0.27895720       0.05902286
Si       1.85055248       7.09518674       6.63734873       0.00214892       0.03674258       0.07947901
Si       3.87675346      11.20284539       6.98834001       0.00108446       0.17352225      -0.13861135
Si      -0.33720296       1.31783127       3.37494646      -0.00982791       0.21020130       0.18931282
Si       1.91433852       5.12669740       5.15343807       0.04782723      -0.20498361      -0.01863735
Si       4.25737597      10.95597393      14.55641505       0.00889702      -0.08563543       0.04472756
Si       3.99229143      13.36945861      14.50570599      -0.00160549      -0.05844946       0.04888699
Si       1.88445499       8.20817532      10.65505397       0.00870483      -0.07514025      -0.30556888
Si       1.45321438       7.85135350       3.58118815      -0.02459560      -0.15400802      -0.02426814
Si       2.13851299       6.97407865      16.59249488       0.08079782       0.01448794       0.04504886
Si       1.97911723       9.35973619      16.62476344      -0.01200205       0.05909314      -0.16513593
Si       2.15186696       5.37320495       8.31221495      -0.05410956      -0.01683256      -0.03455125
Si       4.34826412       9.27957319      12.75328777       0.03744500       0.06452303       0.10264823
Si       1.61362688      11.47117347      12.06384719      -0.03139445       0.03284522       0.04905636
Si       2.19605305       5.85628560      10.67678489      -0.09081605      -0.03961235       0.05189622
Si       1.81095202       3.35422898       1.78548339      -0.05472369       0.03657805       0.16460979
20
Lattice="2.4960998517248414 0.23971335014415748 -0.10263734254926644 1.7178348731439232 8.490897525384359 1.6201177487983316 0.5097601710539108 6.8468704448563535 17.095551620867475" Properties=species:S:1:pos:R:3:forces:R:3 unique_starting_index=238 config_type=initial n_minim_iter=8 energy=-3256.187236365462 stress="0.0009498442261532271 0.0003069640080935707 0.00308417066386453 0.0003069640080935707 0.0013885256393114198 0.00017646384370990158 0.00308417066386453 0.00017646384370990158 0.002428283564787741" free_energy=-3256.187236365462 pbc="T T T"
Si       4.11541018      11.50611276       9.56523992      -0.01058856      -0.03734946       0.02726157
Si       4.13138997      13.11810676      17.34231055       0.22718050       0.04354496      -0.11577568
Si       3.91220666      15.51489560      15.83867950       0.02652605       0.10039133       0.07088546
Si       1.80310428       5.51761239       2.83831349      -0.16527950       0.19125446      -0.07568028
Si       1.77421901       8.91177570       8.40145770       0.04620346      -0.37607489       0.00760208
Si       1.90621025       7.09243487       6.67214224      -0.01167341       0.11299349       0.15945209
Si       3.94677629      11.22593398       7.06968208       0.01106599       0.12660024      -0.11476575
Si      -0.31418628       1.33321721       3.40107913      -0.01999316       0.20441813       0.19621220
Si       1.96402594       5.13337565       5.18285821       0.01642439      -0.14654662       0.00423192
Si       4.36145301      10.98925282      14.64930338       0.01046319      -0.05599232       0.04105266
Si       4.10180031      13.40753309      14.62789252      -0.00212765      -0.05699667       0.00389526
Si       1.96619674       8.22482996      10.71313689      -0.01405345       0.00898871      -0.23799393
Si       1.48352618       7.86853730       3.64354421      -0.02661934      -0.18624363      -0.09640763
Si       2.26084881       7.02530939      16.68779552       0.06549211       0.01493981       0.03202705
Si       2.09366429       9.41575206      16.72162525       0.01179649       0.04860865      -0.02792973
Si       2.19770348       5.38650629       8.37042018      -0.04718852       0.04920500      -0.01516630
Si       4.45099021       9.32467049      12.83163036       0.00268321       0.04126998       0.04106624
Si       1.69990807      11.50894452      12.14142531      -0.02185714       0.02069327       0.06581289
Si       2.24448313       5.87680029      10.74252414      -0.04141632      -0.08134919       0.06846695
Si       1.81359357       3.36928790       1.82834957      -0.05703833      -0.02235524      -0.03424706
20
Lattice="2.494231264665372 0.23350835204227313 -0.11485148113899309 1.6879477033924117 8.483411884276336 1.6098007400158905 0.4104937497858109 6.837389961743297 17.100173406763304" Properties=species:S:1:pos:R:3:forces:R:3 unique_starting_index=238 config_type=initial n_minim_iter=9 energy=-3256.2248290515395 stress="0.0009305170110460423 -0.0011816016854728159 0.0016694662104771616 -0.0011816016854728159 0.0013752611273432312 2.4475305691595838e-05 0.0016694662104771616 2.4475305691595838e-05 0.0025589317262661444" free_energy=-3256.2248290515395 pbc="T T T"
Si       4.03464893      11.48086637       9.55398309      -0.00967416      -0.06689232      -0.02707277
Si       4.08118930      13.10153497      17.28584685       0.12378829       0.04848703      -0.01401629
Si       3.78507650      15.50416374      15.82631712       0.07407324       0.11181695       0.06289430
Si       1.73471465       5.51730907       2.83227509      -0.13042073       0.25151466      -0.12292694
Si       1.70904617       8.89086697       8.39213203       0.04354062      -0.32875173      -0.09000199
Si       1.85754883       7.06814201       6.65122103      -0.01912895       0.12789578       0.21151344
Si       3.88775111      11.21798304       7.05163503       0.01550729       0.03370316       0.01075832
Si      -0.33271769       1.34318647       3.42196763      -0.02940969       0.16844407       0.10283948
Si       1.93475910       5.11424407       5.16327745      -0.02073444      -0.07457928       0.01889655
Si       4.26147004      10.95975151      14.62534543       0.02414951       0.02410012       0.04768450
Si       3.99477549      13.38661883      14.62611281       0.00569106      -0.08074250      -0.03820171
Si       1.89683360       8.20369428      10.69158233      -0.02069743       0.02577548      -0.12594091
Si       1.43737344       7.86757636       3.65272266      -0.02451532      -0.16042024      -0.09912676
Si       2.17820219       7.01513181      16.69384359       0.07777372       0.03173896       0.01014622
Si       1.99067962       9.41368396      16.72157935       0.03153933      -0.01431883       0.03914002
Si       2.13106292       5.36667269       8.36683539      -0.05128222       0.08477488      -0.05501881
Si       4.37530424       9.31327654      12.80342740      -0.04668963      -0.02169353      -0.02328396
Si       1.60474251      11.50702845      12.13431366      -0.01173574      -0.00122710       0.10138772
Si       2.15449542       5.85398280      10.73948972       0.00461999      -0.06814212       0.10999831
Si       1.78045140       3.37222828       1.83557406      -0.03639477      -0.09148345      -0.11966871
20
Lattice="2.49216110896661 0.2418779224542716 -0.12293925222495104 1.7086849787465908 8.490825781105599 1.601665274021086 0.37752118567044873 6.836878636279758 17.08796090614866" Properties=species:S:1:pos:R:3:forces:R:3 unique_starting_index=238 config_type=initial n_minim_iter=10 energy=-3256.2428033381634 stress="0.00032255245849345814 -0.0001997769836652212 0.0007321636286655213 -0.0001997769836652212 0.0005890317912851593 0.00020173417376532325 0.0007321636286655213 0.00020173417376532325 0.0010111645400619877" free_energy=-3256.2428033381634 pbc="T T T"
Si       4.03484642      11.49070917       9.53671527      -0.00081558      -0.08483207      -0.06126267
Si       4.09818582      13.11770022      17.24019579       0.08464829       0.03887467       0.04580792
Si       3.77689344      15.52342673      15.80488281       0.08862913       0.09987470       0.04304979
Si       1.72071910       5.53147969       2.82301523      -0.09868213       0.24018580      -0.15209986
Si       1.70937242       8.88379643       8.37839091       0.02909759      -0.22678815      -0.17300830
Si       1.85756359       7.07120606       6.63812907      -0.02895266       0.10446668       0.18680051
Si       3.89950686      11.23815611       7.03108648       0.01959040      -0.06135800       0.13452009
Si      -0.33881074       1.35020454       3.43329154      -0.02995304       0.07016829       0.00713500
Si       1.93686157       5.11312296       5.14859271      -0.04489340       0.02488851       0.02658945
Si       4.24602080      10.96827824      14.59884605       0.03008565       0.07491886       0.03781848
Si       3.98638036      13.39839213      14.60874843       0.00647453      -0.08075034      -0.04871993
Si       1.88846395       8.20563797      10.66606298      -0.02354552       0.02108571      -0.00419604
Si       1.44578670       7.87216955       3.65068758      -0.02798572      -0.08876033      -0.04527673
Si       2.15386258       7.02258163      16.68029430       0.08589009       0.04894685      -0.00404432
Si       1.96668293       9.42511272      16.70425799       0.04976048      -0.05470825       0.09393954
Si       2.11282603       5.36995042       8.35548424      -0.05194241       0.07828103      -0.06415819
Si       4.36413522       9.33139809      12.77638527      -0.05771221      -0.06001078      -0.08568142
Si       1.59806671      11.51748728      12.12114680      -0.00837393      -0.00673211       0.10973404
Si       2.12586128       5.85359447      10.72876292       0.00487332      -0.05326937       0.11589408
Si       1.77582207       3.38271404       1.83473015      -0.02619287      -0.08448171      -0.16284145
20
Lattice="2.4909874871604014 0.24499268068036373 -0.13222615657567025 1.7119021880875973 8.491176309886763 1.589200936462557 0.32307315726276764 6.8256941698846605 17.074001122816767" Properties=species:S:1:pos:R:3:forces:R:3 unique_starting_index=238 config_type=initial n_minim_iter=11 energy=-3256.254083449196 stress="-8.656414839881705e-05 4.191388215487354e-05 -0.0004755118067642143 4.191388215487354e-05 -0.00020942324476421183 2.8832637928842798e-05 -0.0004755118067642143 2.8832637928842798e-05 -0.00025738015197377474" free_energy=-3256.254083449196 pbc="T T T"
Si       4.00977419      11.48425953       9.51110763       0.00406937      -0.08322398      -0.06670654
Si       4.07124883      13.11320199      17.19690358       0.05862200       0.02954360       0.08052789
Si       3.73468793      15.52238722      15.77628463       0.09346151       0.07555215       0.01707711
Si       1.70104339       5.54115774       2.80783852      -0.07055792       0.18228682      -0.16347660
Si       1.68905831       8.86532610       8.35824349       0.01468510      -0.11894914      -0.20594605
Si       1.83998606       7.06939375       6.62678149      -0.03308709       0.05863496       0.13130111
Si       3.88608225      11.24066912       7.00676999       0.01818908      -0.11929730       0.21770480
Si      -0.35000605       1.35452691       3.44094701      -0.03027814      -0.00933206      -0.07673518
Si       1.92453799       5.10673215       5.13375912      -0.06220242       0.09846291       0.01126203
Si       4.20404962      10.96084007      14.56885808       0.03507206       0.08887041       0.03470519
Si       3.94602375      13.38996797      14.58153807       0.00815649      -0.05938510      -0.03481118
Si       1.85834490       8.19822523      10.63998598      -0.02450603       0.00555168       0.07407074
Si       1.43799788       7.86720425       3.64140734      -0.03211154      -0.00543567       0.01062096
Si       2.10714873       7.01592147      16.66199153       0.09453134       0.05163145      -0.01183325
Si       1.91725830       9.41876588      16.68383398       0.05740718      -0.07476725       0.08908745
Si       2.08228198       5.36615367       8.33981565      -0.04912424       0.04582297      -0.05483025
Si       4.32724943       9.32931724      12.74498498      -0.06478801      -0.07498804      -0.11533106
Si       1.56415408      11.51340382      12.10526913      -0.00727436      -0.00989107       0.09826837
Si       2.08551642       5.84339434      10.71650647       0.00479069      -0.03363357       0.10025855
Si       1.76668371       3.38487095       1.82644988      -0.01505506      -0.04745377      -0.13521410
20
Lattice="2.4891284860109417 0.25166958836353237 -0.1396612777168172 1.7274480524489644 8.497339233773845 1.5781014921002146 0.2899108388660581 6.820122691965874 17.0506190099432" Properties=species:S:1:pos:R:3:forces:R:3 unique_starting_index=238 config_type=initial n_minim_iter=12 energy=-3256.2676536917593 stress="-0.0008180441319527845 0.0007307947680393034 -0.0013587700584690742 0.0007307947680393034 -0.0011977418222366696 -0.00031807594623919834 -0.0013587700584690742 -0.00031807594623919834 -0.0020399721376588" free_energy=-3256.2676536917593 pbc="T T T"