6
Lattice="5.21257 9.79661248938827e-16 4.1719624702726883e-16 -2.606284999999997 4.514218039004652 8.343924940545384e-16 3.2218926477067937e-16 5.580481762360779e-16 5.261750000000002" Properties=species:S:1:pos:R:3:forces:R:3 unique_starting_index=348 config_type=initial n_minim_iter=1 energy=-951.0192395265419 stress="-0.6704476653024889 -0.07152432994099173 -0.45825938067581923 -0.0010966143725221955 0.009742325654223985 -0.04014535491292746" pbc="T T T"
Si       0.09822228       0.94048722       3.00227405     -25.51657411       1.97945574       3.05678252
Si       1.79000983       0.94048722       4.61448740       0.76739437       0.45980349      17.91624619
Si       1.69536676       0.94048722       2.90673803      26.89894576      -1.23986941     -18.82041891
Si       2.50806272       3.57373082       2.25947595      25.51657411      -1.97945574      -3.05678252
Si       0.81627517       3.57373082       0.64726260      -0.76739438      -0.45980349     -17.91624619
Si       0.91091824       3.57373082       2.35501197     -26.89894576       1.23986941      18.82041891
6
Lattice="5.256020228304038 0.00260283701771555 -0.0006331429784651216 -2.625755991172767 4.516916566066002 0.00037792852167206707 -0.0006391166098376764 7.15174505618787e-05 5.291689146784576" Properties=species:S:1:pos:R:3:forces:R:3 unique_starting_index=348 config_type=initial n_minim_iter=2 energy=-952.4200172785111 stress="-0.6204954172032463 -0.06670063676556187 -0.4431304739072227 -0.002643037872467673 0.009928608716417542 -0.03945040638040161" pbc="T T T"
Si       0.09657311       0.94160727       3.01966545     -23.50826587       2.12378106       3.00389815
Si       1.80491706       0.94232319       4.64234082       0.70508224       0.54018777      17.40198452
Si       1.71232781       0.94208386       2.92119103      24.96735379      -1.22059081     -18.12628538
Si       2.53305201       3.57798365       2.27176848      23.50826587      -2.12378106      -3.00389815
Si       0.82470806       3.57726773       0.64909311      -0.70508224      -0.54018777     -17.40198452
Si       0.91729732       3.57750707       2.37024290     -24.96735379       1.22059081      18.12628538
6
Lattice="6.0217260038151315 0.05164325439095598 -0.013527715869433332 -2.966138631670897 4.559114539867685 0.009551623714715254 -0.013655348316854981 0.0032494058696696704 5.831271317410097" Properties=species:S:1:pos:R:3:forces:R:3 unique_starting_index=348 config_type=initial n_minim_iter=3 energy=-967.2439899410341 stress="-0.13680395614069113 0.022523160151776706 -0.1030888781911968 -0.008046034195016977 0.01097542648339995 -0.02808857774759136" pbc="T T T"
Si       0.06432707       0.96156113       3.33385822      -7.11866278       3.58668745       2.52818201
Si       2.06666128       0.97684284       5.14568575       0.17845199       0.99366640       8.56074752
Si       2.01420139       0.97198539       3.18009955       8.62815481      -0.86508896      -6.15890761
Si       2.97760496       3.65244607       2.49343700       7.11866277      -3.58668745      -2.52818201
Si       0.97527074       3.63716436       0.68160948      -0.17845199      -0.99366640      -8.56074752
Si       1.02773064       3.64202181       2.64719567      -8.62815481       0.86508896       6.15890762
6
Lattice="6.364818216217569 0.11845858583274801 -0.041424328657689496 -3.0798209634812443 4.485053720981727 0.03907731879962485 -0.04181516244666198 0.021406332326369848 6.079271770249949" Properties=species:S:1:pos:R:3:forces:R:3 unique_starting_index=348 config_type=initial n_minim_iter=4 energy=-969.8086159668992 stress="-0.03370285165422571 0.031968652144462546 -0.008810984394657453 -0.0019407073198955984 0.011277299974829834 -0.017216576031569945" pbc="T T T"
Si       0.03896263       0.97271744       3.48697312      -3.83663080       3.19557744       2.66375183
Si       2.17222800       1.01003431       5.38586260      -0.00486595       1.12151896       5.63199472
Si       2.15614696       0.99426517       3.28937785       5.10605694      -0.58472205      -2.94764114
Si       3.20421946       3.65220120       2.58995164       3.83663080      -3.19557744      -2.66375183
Si       1.07095409       3.61488433       0.69106216       0.00486595      -1.12151896      -5.63199472
Si       1.08703513       3.63065347       2.78754691      -5.10605694       0.58472204       2.94764114
6
Lattice="6.504427411805294 0.1817508946414462 -0.08663781040001578 -3.094812813982603 4.363638047306469 0.06674935305741775 -0.08745522820264963 0.0273104129992139 6.113814940258187" Properties=species:S:1:pos:R:3:forces:R:3 unique_starting_index=348 config_type=initial n_minim_iter=5 energy=-970.9113575716603 stress="0.004448236900356594 0.028899640319148084 0.0047242839860092735 -0.0027166854128678254 0.012973494827693945 -0.00954180858841195" pbc="T T T"
Si       0.00464434       0.96820711       3.52096098      -2.13479945       2.84108815       2.59227378
Si       2.19080953       1.02247737       5.42935786      -0.16366757       1.00572367       4.56556357
Si       2.21832411       0.99930244       3.27901284       3.42245173      -0.55577539      -2.10763495
Si       3.31751503       3.60449224       2.57296550       2.13479945      -2.84108815      -2.59227378
Si       1.13134983       3.55022199       0.66456862       0.16366757      -1.00572367      -4.56556357
Si       1.10383526       3.57339692       2.81491365      -3.42245173       0.55577539       2.10763495
6
Lattice="6.4786571464764915 0.23410849238452655 -0.16881046216554185 -3.0365846715915668 4.209308461218466 0.11896973635111607 -0.17040316951130513 0.04028821470834517 6.086092333574681" Properties=species:S:1:pos:R:3:forces:R:3 unique_starting_index=348 config_type=initial n_minim_iter=6 energy=-971.9554430200949 stress="0.018361406696429876 0.023035983903249097 0.0071539796649635464 -0.0049656141843756624 0.013068689956695813 -0.008846764062187162" pbc="T T T"
Si      -0.05208107       0.96313059       3.52824184      -1.25658359       2.34360952       2.25601804
Si       2.11498012       1.03091224       5.41438383      -0.27501234       0.89948037       3.72649465
Si       2.20523418       0.99632314       3.22050538       2.52065329      -0.36353028      -1.62171440
Si       3.32375037       3.52057458       2.50800976       1.25658359      -2.34360952      -2.25601804
Si       1.15668918       3.45279293       0.62186778       0.27501234      -0.89948037      -3.72649465
Si       1.06643512       3.48738203       2.81574623      -2.52065329       0.36353028       1.62171440
6
Lattice="6.21251084693228 0.3361315372718458 -0.3523336898338859 -2.815156973175603 3.9301711291577726 0.258414614385544 -0.35565791778018174 0.09586758930608694 5.991005237044744" Properties=species:S:1:pos:R:3:forces:R:3 unique_starting_index=348 config_type=initial n_minim_iter=7 energy=-973.4888069003184 stress="0.006260470173929967 0.008585575423651308 0.004100862430457162 0.0008245065287711799 0.008092834336423755 -0.0028104812463081805" pbc="T T T"
Si      -0.16652979       0.97345025       3.52860071      -0.74704286       2.02886432       1.69407488
Si       1.86542281       1.07967725       5.34646807      -0.62472590       0.70929762       2.01095120
Si       2.08640676       1.01382330       3.08062615       1.55918972       0.20168604      -0.81737706
Si       3.20822574       3.38872000       2.36848545       0.74704286      -2.02886432      -1.69407488
Si       1.17627314       3.28249301       0.55061809       0.62472590      -0.70929762      -2.01095120
Si       0.95528920       3.34834695       2.81646001      -1.55918972      -0.20168604       0.81737706
6
Lattice="6.077076025729421 0.3852763373240375 -0.5385921823170658 -2.704878917265071 3.7698583731791353 0.327533664584912 -0.5436737377736565 0.06788142471819912 5.907283102733185" Properties=species:S:1:pos:R:3:forces:R:3 unique_starting_index=348 config_type=initial n_minim_iter=8 energy=-974.3072290460672 stress="0.0029098391979661647 -0.010321352234341887 0.0058232348455231064 -0.0014589711137095208 0.005788670241059678 0.01888702613163941" pbc="T T T"
Si      -0.29556216       0.96789087       3.53792692      -0.35902305       1.64712625       1.09404970
Si       1.62618066       1.05605027       5.27371908      -0.76692821       0.51557816       0.47224087
Si       2.00966882       0.99821265       2.92876600       0.17992839       1.00034589       0.28985183
Si       3.12408553       3.25512526       2.15829766       0.35902305      -1.64712625      -1.09404970
Si       1.20234271       3.16696587       0.42250551       0.76692821      -0.51557816      -0.47224087
Si       0.81885455       3.22480349       2.76745858      -0.17992839      -1.00034589      -0.28985183
6
Lattice="6.029070148127982 0.13877289493774075 -0.6184971700489219 -2.894354221691195 3.985178908491556 0.3931584126281294 -0.6243326198986143 0.09780487596716608 5.831784178459136" Properties=species:S:1:pos:R:3:forces:R:3 unique_starting_index=348 config_type=initial n_minim_iter=9 energy=-974.5503225791143 stress="0.017461889633988058 0.033007132035259026 0.0074844352826196675 0.006085694573722689 -0.0025285685155704224 -0.004681252754592388" pbc="T T T"
Si      -0.40371821       1.03224843       3.52603862       0.05393211       0.70976200       0.37083666
Si       1.46961431       1.02647530       5.19676476      -0.31095062       0.32090220       0.79179047
Si       1.91022725       0.95709732       2.87100022       1.14252211       0.20701465      -0.45998197
Si       2.91410152       3.18950825       2.08040681      -0.05393211      -0.70976200      -0.37083666
Si       1.04076900       3.19528138       0.40968066       0.31095062      -0.32090220      -0.79179047
Si       0.60015606       3.26465936       2.73544520      -1.14252211      -0.20701465       0.45998197
6
Lattice="5.913769243052596 0.1635907072359277 -0.5942062030237764 -2.8152109132369185 3.8285755795287426 0.34866248738521927 -0.5998124703860784 0.06009736266057825 5.781637761178249" Properties=species:S:1:pos:R:3:forces:R:3 unique_starting_index=348 config_type=initial n_minim_iter=10 energy=-974.6921437319909 stress="-0.012218952716020925 -0.008902946106631495 -0.014573769726371874 -0.0006129682327300922 0.004473985058172029 0.009068948560358506" pbc="T T T"
Si      -0.38261056       0.97912064       3.49153779      -0.34609716       1.17289896       0.71974834
Si       1.45366136       0.97029220       5.15980730      -0.29720678       0.40114587       0.61537877
Si       1.89820497       0.91759361       2.83990704       0.82867269       0.44124686      -0.16224167
Si       2.88135642       3.07314301       2.04455625       0.34609716      -1.17289896      -0.71974834
Si       1.04508450       3.08197145       0.37628675       0.29720678      -0.40114587      -0.61537877
Si       0.60054089       3.13467004       2.69618701      -0.82867269      -0.44124686       0.16224167
6
Lattice="5.962714763358955 0.13320720903641903 -0.6170623571000445 -2.865996554686715 3.866174338152388 0.36356047864470825 -0.6228842696541551 0.06414187734650455 5.839564670339258" Properties=species:S:1:pos:R:3:forces:R:3 unique_starting_index=348 config_type=initial n_minim_iter=11 energy=-974.7528131205262 stress="0.0022475830058741168 0.007539866688146614 0.002141472995564591 0.0019943114983015583 0.0004098387330908359 0.003235360687941243" pbc="T T T"
Si      -0.40617690       0.99167453       3.53241072      -0.12440013       0.90390504       0.55158224
Si       1.44025747       0.97030291       5.21073362      -0.27022385       0.32807747       0.43336996
Si       1.90435354       0.91511558       2.86069825       0.77972054       0.38438410      -0.05516662
Si       2.88001084       3.07184889       2.05365207       0.12440014      -0.90390504      -0.55158224
Si       1.03357647       3.09322052       0.37532917       0.27022385      -0.32807747      -0.43336996
Si       0.56948040       3.14840784       2.72536455      -0.77972054      -0.38438410       0.05516662
6
Lattice="5.954537145269906 0.12301567586642588 -0.6178351567322969 -2.8707338722709146 3.853168846814268 0.35892359831735615 -0.6236643605622869 0.05828676710004376 5.8321093146533185" Properties=species:S:1:pos:R:3:forces:R:3 unique_starting_index=348 config_type=initial n_minim_iter=12 energy=-974.7808297383044 stress="1.9538615139260793e-05 0.0033661134491712774 0.00011452724987898659 0.001322829512810435 0.0005431416660818814 0.003802257320234875" pbc="T T T"
Si      -0.40989909       0.98692885       3.53000051      -0.14053420       0.87744729       0.56284021
Si       1.43282546       0.95857858       5.20522099      -0.24002100       0.31389039       0.39661933
Si       1.90378455       0.90588230       2.85422324       0.71945240       0.39615744      -0.01013344
Si       2.87003800       3.04754244       2.04319724       0.14053420      -0.87744729      -0.56284021
Si       1.02731345       3.07589271       0.36797676       0.24002100      -0.31389039      -0.39661933
Si       0.55635436       3.12858899       2.71897452      -0.71945240      -0.39615744       0.01013344
6
Lattice="5.954292496857648 0.10184659292253864 -0.6214327659099325 -2.88894451166901 3.849077822567389 0.3552822590752254 -0.6272959127698216 0.051945762621487215 5.831677163656672" Properties=species:S:1:pos:R:3:forces:R:3 unique_starting_index=348 config_type=initial n_minim_iter=13 energy=-974.8208746812433 stress="0.0005283287017204936 0.002296461018284381 0.0006760925212561328 0.0012614264721150224 -0.00017635318223096347 0.002812920294800484" pbc="T T T"
Si      -0.41894986       0.98508400       3.53451277      -0.11197057       0.76499389       0.52972812
Si       1.42204145       0.94427874       5.20695028      -0.19347686       0.27913373       0.32635137
Si       1.90569542       0.89420561       2.84991547       0.64120852       0.38726365       0.05459457
Si       2.85700193       3.01778618       2.03101389       0.11197057      -0.76499389      -0.52972812
Si       1.01601062       3.05859144       0.35857638       0.19347686      -0.27913373      -0.32635137
Si       0.53235665       3.10866456       2.71561118      -0.64120852      -0.38726365      -0.05459457
