22
Lattice="7.722932770040406 -0.769249866687389 0.06519249707021219 0.9223284267946287 6.879585128068014 4.06353176747839 3.0507010234360066 7.50127735340611 12.913793513766791" Properties=species:S:1:pos:R:3:forces:R:3 unique_starting_index=408 config_type=initial n_minim_iter=1 energy=-3581.367041845822 stress="-0.001279668333999737 -0.0006429155442582023 0.0002794716185873729 -0.0006429155442582023 0.0009303389568730258 -0.0008888687777647112 0.0002794716185873729 -0.0008888687777647112 -0.0003321485143079373" free_energy=-3581.367041845822 pbc="T T T"
Si       6.10012264       5.85483608       7.06136804      -0.18016536       0.31587670      -0.04193144
Si       6.39682894       9.00049768      11.17565134      -0.26669293      -0.33627753       0.03516360
Si       5.02119143       8.13616713       6.72621553       0.44565259      -0.04315560      -0.01557142
Si       2.99413074       8.16027387       7.87484700      -0.38615143       0.31472445       0.14223772
Si       2.62458670       5.88367373       7.43806760      -0.07089116      -0.48598273      -0.09247258
Si       2.29576217       2.81027477       5.56919329      -0.27955166       0.36053958       0.05547765
Si       3.00541567      11.88719363      14.80525212       0.22713235      -0.16123697      -0.16910267
Si       8.29242037       9.67673067      12.32560516       0.15472269       0.13047311       0.34482032
Si       3.22838877       4.08525608       8.88314359      -0.16275278      -0.04620431      -0.27455527
Si       4.14712030       6.15579556       5.66336222       0.00700664      -0.16346325       0.03223544
Si       5.39620649       2.95479471       1.63128789      -0.09878508      -0.01810927       0.21714661
Si       7.63605294       7.04536884      10.68261056      -0.01815469       0.16197471      -0.11628512
Si       9.74913320       6.46334776      11.79392466       0.16853933      -0.05334193       0.31541147
Si       6.99409822      12.26955779      15.02715553       0.01556503      -0.28017613       0.13582448
Si       5.83547286       3.13542661       4.97632659      -0.14734528       0.13408892      -0.00312801
Si       8.68545739       3.76613481       6.60022999       0.17337507       0.14086771      -0.27867245
Si       7.29227938       5.01780512       5.21827177      -0.19665460      -0.19169375      -0.30721065
Si       3.78115894       4.18758231       4.38918329       0.25368805       0.01742005      -0.17319473
Si       7.04203255       7.66924242       8.37293991      -0.24133081      -0.23220389       0.22680463
Si       6.47742262      11.22511583      12.92703079      -0.07442501       0.50356024      -0.12733411
Si       3.98205582       8.85055848      11.71143505       0.05904790       0.17958347      -0.07992632
Si       8.81666520       8.73828499       7.47145850       0.61817114      -0.24726358       0.17426284
22
Lattice="7.783430965585925 -0.732442185792274 0.047116076761033125 0.9510594379152058 6.865722846086566 4.109786255452482 3.083719850102706 7.542889762683751 12.978824504189868" Properties=species:S:1:pos:R:3:forces:R:3 unique_starting_index=408 config_type=initial n_minim_iter=2 energy=-3581.390349551862 stress="0.005331837473557273 0.002973201536644786 -0.001439510378124142 0.002973201536644786 -5.035217293371093e-05 0.002730557629096603 -0.001439510378124142 0.002730557629096603 0.0012149737420888583" free_energy=-3581.390349551862 pbc="T T T"
Si       6.15944490       5.88995713       7.09839507      -0.10518611       0.30715762      -0.17224285
Si       6.46292612       9.03234717      11.23996184      -0.15339237      -0.18261686       0.19840779
Si       5.09061036       8.14633841       6.77777225       0.20590365      -0.10225540       0.10831056
Si       3.03288390       8.17352023       7.93495530      -0.10161114       0.21897073       0.14109717
Si       2.65617372       5.89503868       7.48150560      -0.05789550      -0.31406385      -0.31060431
Si       2.31233776       2.83989256       5.59389545      -0.19010557       0.33433742      -0.06394599
Si       3.05603950      11.91108493      14.89696142       0.08753431      -0.08506531      -0.31849116
Si       8.38099480       9.72561746      12.39730414       0.05574459       0.11765950       0.24310474
Si       3.25365867       4.12422929       8.91580483       0.01919821      -0.14355524      -0.10287755
Si       4.19672405       6.16632348       5.70361042      -0.06135212      -0.12617928       0.05747391
Si       5.44862085       2.96858312       1.64505952       0.03966684       0.00678954       0.11913699
Si       7.70881311       7.09819934      10.73037627      -0.06803501      -0.01271007      -0.05473046
Si       9.83761892       6.53166537      11.84314149       0.11362016      -0.01664354       0.23511353
Si       7.07578612      12.30723020      15.11873324       0.09672190      -0.14113014       0.02953765
Si       5.88558247       3.17113791       4.99440003      -0.13529289       0.16585109      -0.00950009
Si       8.76342769       3.81920465       6.61633008       0.18675968       0.12360535      -0.15483635
Si       7.36103580       5.04508873       5.24059192      -0.36379331      -0.14033649      -0.21430291
Si       3.82546874       4.20358599       4.41320832       0.17876974       0.00850635      -0.07916109
Si       7.11335302       7.69719131       8.42523482      -0.01946240      -0.12576096       0.13764701
Si       6.55305198      11.26599868      13.00536687      -0.18650824       0.39655825      -0.04587915
Si       4.03135383       8.88371614      11.77875817       0.11365535       0.10463898      -0.04462144
Si       8.92105177       8.76191945       7.52394278       0.34506024      -0.39375767       0.30136401
22
Lattice="7.744937759320887 -0.7541784229340922 0.06291770831890237 0.9297796772530533 6.808515051293978 4.10220612080676 3.0662794587938182 7.466143378136555 12.967044366845206" Properties=species:S:1:pos:R:3:forces:R:3 unique_starting_index=408 config_type=initial n_minim_iter=3 energy=-3581.4328566268764 stress="-0.0021766218526741293 0.0012067118099865818 -0.0005685210925919183 0.0012067118099865818 -0.00888587107752543 0.001763276792558345 -0.0005685210925919183 0.001763276792558345 -0.0035593655257395206" free_energy=-3581.4328566268764 pbc="T T T"
Si       6.11603202       5.82698200       7.09736523      -0.03734328       0.23834366      -0.20277573
Si       6.41302770       8.92710521      11.23694776      -0.13696230      -0.07644170       0.22499561
Si       5.05757906       8.06173314       6.77527125       0.05946023      -0.11161071       0.18860115
Si       2.99585028       8.10337975       7.93051225       0.06506496       0.01030311       0.09307166
Si       2.63430241       5.82563776       7.47135094      -0.03598477      -0.10729096      -0.18432980
Si       2.29477463       2.81497770       5.59173024      -0.15046358       0.20958225      -0.04301744
Si       3.03172178      11.79725428      14.87457046       0.11975118      -0.11815682      -0.21747420
Si       8.32980094       9.61794007      12.40238825      -0.00879800       0.07827548       0.16677084
Si       3.23659756       4.07357389       8.90517716       0.00361340      -0.16454067      -0.03458434
Si       4.16361825       6.09797509       5.70250704      -0.04608542      -0.05031993      -0.02142470
Si       5.41097561       2.92616536       1.65645399       0.18503378       0.08041369       0.06631473
Si       7.66325768       7.01322402      10.72754771       0.11047021       0.00213450      -0.04741584
Si       9.78958478       6.43876316      11.85366228       0.10516181       0.03188303       0.15515460
Si       7.02545286      12.17387856      15.11144948      -0.05162104      -0.14404592       0.01854075
Si       5.84949885       3.12671216       4.99873355      -0.18033104       0.00500543      -0.00128690
Si       8.72095422       3.75851139       6.61837700      -0.07193876       0.13047548      -0.17645347
Si       7.30856771       4.97370592       5.23911701      -0.20443853      -0.04406107      -0.11865600
Si       3.80480283       4.15609853       4.40959320       0.12138655       0.01077487      -0.08822763
Si       7.06053614       7.60402066       8.43017962       0.02285286      -0.07946477       0.14834464
Si       6.50153039      11.16120731      12.99465802      -0.15049972       0.29897126      -0.03078954
Si       4.00359280       8.79861772      11.76703250       0.02627493       0.01900381      -0.08425748
Si       8.87107160       8.65337689       7.53241207       0.25539653      -0.21923402       0.18889910
22
Lattice="7.742258492455327 -0.800152408198124 0.08732960346762268 0.9044217896409819 6.839478146701925 4.103755691466291 3.0604382419736953 7.461105295728122 13.019944582137873" Properties=species:S:1:pos:R:3:forces:R:3 unique_starting_index=408 config_type=initial n_minim_iter=4 energy=-3581.4754110842127 stress="0.000777460264737284 -0.0015339571802272971 0.0004968215710662861 -0.0015339571802272971 -0.001725200323152751 -0.0006906111014715635 0.0004968215710662861 -0.0006906111014715635 0.003400265244560225" free_energy=-3581.4754110842127 pbc="T T T"
Si       6.09535851       5.82269702       7.13004777      -0.04961368       0.13809028      -0.22715295
Si       6.38501215       8.91325424      11.28770131       0.01869759      -0.03849612       0.11588317
Si       5.03959352       8.06946992       6.79956025      -0.06248729      -0.13572256       0.20624199
Si       2.96469793       8.12769470       7.95801500       0.19323859      -0.19394867      -0.00035621
Si       2.62025580       5.81761011       7.49450846       0.10112944       0.08598732      -0.02463299
Si       2.28630562       2.81463437       5.61911486      -0.08931159       0.12403293       0.01204305
Si       3.01373407      11.81340828      14.91675806       0.11444032      -0.26664489       0.07355148
Si       8.30964185       9.60662111      12.46849646      -0.14376686       0.17711187       0.04468443
Si       3.23416776       4.05414918       8.94209021      -0.02986878      -0.05150726      -0.11955344
Si       4.14322871       6.09748342       5.72495463       0.00306540      -0.03670546       0.06928973
Si       5.39443157       2.91378689       1.67569772       0.18872541       0.12247694       0.06360290
Si       7.64906810       6.99148927      10.77993570       0.11721079       0.03987043      -0.05702847
Si       9.78452671       6.39401664      11.93097912       0.08322276      -0.02943651       0.04494942
Si       6.99797373      12.16853819      15.17378545       0.00716971      -0.20885181      -0.00441026
Si       5.83737838       3.10596106       5.03112362      -0.23460335      -0.19438418       0.05561837
Si       8.71616941       3.72227934       6.65838335      -0.34798815       0.10552002      -0.22781867
Si       7.28352178       4.94962243       5.26289516      -0.03700203      -0.05460102       0.10182374
Si       3.79831285       4.15217678       4.42558957       0.13939105       0.00339610      -0.04297870
Si       7.03305356       7.58890648       8.47515019       0.09622683       0.06901192       0.15198837
Si       6.46987209      11.17836143      13.04187937      -0.07902138       0.23604909      -0.03357050
Si       3.98845716       8.80656993      11.80942532      -0.08474559       0.06379258      -0.21030001
Si       8.85372029       8.63688175       7.57428250       0.09589081       0.04495898       0.00812556
22
Lattice="7.720747009371211 -0.7935840066755666 0.0860720311561179 0.9118687305757549 6.885901916579407 4.079769720357005 3.0623869712858682 7.5163526568556085 12.941030419550433" Properties=species:S:1:pos:R:3:forces:R:3 unique_starting_index=408 config_type=initial n_minim_iter=5 energy=-3581.489050023424 stress="-0.0007934840385759519 0.00022355775711687165 0.00045590211943617314 0.00022355775711687165 0.0005831219563774303 -0.0002921870306914661 0.00045590211943617314 -0.0002921870306914661 -0.0008760732498836463" free_energy=-3581.489050023424 pbc="T T T"
Si       6.08572665       5.87458910       7.08476853      -0.01636262       0.12088604      -0.18918025
Si       6.37846626       8.97987373      11.22104988       0.09123281      -0.07418319       0.13801625
Si       5.04080551       8.12926674       6.76037965      -0.04124222      -0.10519149       0.19993204
Si       2.96676848       8.18774857       7.91173673       0.25126912      -0.34740997       0.00713616
Si       2.62128737       5.85713410       7.44764807       0.04733299       0.19675912       0.04026012
Si       2.28116963       2.84123017       5.58511343      -0.08669444       0.16134863      -0.07700589
Si       3.02447973      11.89441275      14.82532967       0.09799298      -0.19848868       0.17451600
Si       8.30139878       9.68574290      12.39617603      -0.17172827       0.17654645      -0.03555900
Si       3.22982627       4.08577912       8.88498584      -0.01015715      -0.10488031      -0.16731244
Si       4.14079777       6.14272908       5.69126558      -0.00256740      -0.04258682      -0.05910369
Si       5.38515242       2.94177594       1.66760829       0.15816761       0.11023267       0.14686947
Si       7.63893013       7.05144029      10.71318837       0.01306479      -0.05473943       0.01481606
Si       9.76922232       6.45187989      11.86101388       0.11531806      -0.06495476      -0.03559500
Si       6.99671958      12.25734383      15.08315395       0.09643733      -0.07428860      -0.08988197
Si       5.82359362       3.13606383       5.00056896      -0.12864135      -0.18406466       0.05283714
Si       8.69788664       3.76263505       6.61399813      -0.32625617       0.10072144      -0.20242880
Si       7.26879622       4.99181399       5.22888949      -0.06833397      -0.09137698       0.09782105
Si       3.79699938       4.18576194       4.39729949       0.03364900      -0.01669573       0.06466317
Si       7.02415086       7.64875847       8.42664932       0.09925385       0.11338937       0.07470367
Si       6.46688184      11.26851215      12.96221762      -0.04099318       0.22085346      -0.03352468
Si       3.99029589       8.87344519      11.73637430      -0.09892712       0.06425540      -0.11568193
Si       8.84815467       8.70510539       7.53078190      -0.01181464       0.09386804      -0.00629747
22
Lattice="7.727429986447087 -0.8366977044547091 0.02855049817016664 0.8454304655774101 6.9010962679329175 4.089057227255597 2.9296431656113193 7.5426537892085666 12.934317838459704" Properties=species:S:1:pos:R:3:forces:R:3 unique_starting_index=408 config_type=initial n_minim_iter=6 energy=-3581.521321426906 stress="-0.0006136914226986378 -0.001651235933802272 -0.0039015747509569603 -0.001651235933802272 0.0006760580213415316 0.0016732110388552877 -0.0039015747509569603 0.0016732110388552877 -0.00022486516857709392" free_energy=-3581.521321426906 pbc="T T T"
Si       5.99972669       5.88318597       7.03956266       0.15143829      -0.07380941      -0.18705273
Si       6.24973317       8.97487839      11.20510498       0.04789352      -0.14192231       0.06650743
Si       4.95661137       8.12203141       6.75513298      -0.09018460       0.08860733       0.17250617
Si       2.87337061       8.19209077       7.91264439       0.26916281      -0.27542931      -0.04349124
Si       2.53849537       5.86867039       7.43792419       0.08107265       0.20473292      -0.06351332
Si       2.21457770       2.86513667       5.57132963      -0.17490402       0.16014445      -0.21461350
Si       2.86516974      11.91593140      14.83149223       0.21586367      -0.04521846       0.05163842
Si       8.15607472       9.69896468      12.36448160      -0.13870675       0.27769647      -0.04555755
Si       3.14185031       4.08816990       8.85510002      -0.07008073      -0.02468285       0.04749523
Si       4.06744737       6.13686848       5.67431361      -0.16914423       0.01391211      -0.06217493
Si       5.36787766       2.92723447       1.64786397       0.00909687       0.05093845       0.09663287
Si       7.52790378       7.04702227      10.67036876       0.01484700      -0.00809681       0.14542369
Si       9.66291900       6.43302917      11.81028282       0.08336506      -0.15118440      -0.08808663
Si       6.82989605      12.26219102      15.05750943       0.15344776      -0.05645586      -0.10733558
Si       5.76009740       3.11439252       4.96807448      -0.14522110      -0.29930617       0.07536188
Si       8.61853617       3.74671306       6.54073788      -0.22428318      -0.06693647      -0.00759854
Si       7.19627711       4.96312596       5.18594937      -0.16869569       0.15798315       0.05514193
Si       3.75344246       4.18161666       4.37774744      -0.10518833      -0.01354491       0.10389269
Si       6.92629029       7.64333361       8.40340841       0.25653494       0.19930407      -0.03146866
Si       6.30845894      11.30727657      12.93584209       0.00318965       0.11455201      -0.03594226
Si       3.85572941       8.90128990      11.71684153      -0.04481361      -0.01948375      -0.05134216
Si       8.76456018       8.68463172       7.49245798       0.04531004      -0.09180025       0.12357677
22
Lattice="7.767097885920298 -0.8290395569959851 0.0804783594640641 0.8821565470077737 6.878527844263974 4.0781419830406325 3.034908297398043 7.496237798542008 12.940230137406568" Properties=species:S:1:pos:R:3:forces:R:3 unique_starting_index=408 config_type=initial n_minim_iter=7 energy=-3581.5665311537127 stress="0.0033011354209707623 0.0013310145861374155 -0.00044443712739730587 0.0013310145861374155 -0.0007558765594343881 -0.00011909040848799218 -0.00044443712739730587 -0.00011909040848799218 0.0001080335185343237" free_energy=-3581.5665311537127 pbc="T T T"
Si       6.07494276       5.88053342       7.04340168       0.10407160      -0.06509238       0.00561047
Si       6.36078035       8.91586756      11.24379672       0.02100304       0.04077288       0.09986072
Si       5.04167919       8.08193651       6.78968511       0.01958249       0.23384023      -0.00678471
Si       2.95996072       8.13862952       7.91903589       0.11828898       0.00581040       0.02759866
Si       2.60806884       5.84106176       7.43736504      -0.24001056      -0.09806246      -0.13801283
Si       2.24533688       2.87502138       5.57423804       0.00431695      -0.08122422      -0.24883249
Si       3.00428763      11.83240786      14.83094863       0.05692361       0.04413844       0.08194804
Si       8.27505961       9.67767261      12.40761047      -0.26551524       0.36381736      -0.15395773
Si       3.21343873       4.04738200       8.84839884       0.11018085       0.18241870       0.12004527
Si       4.12792368       6.10485463       5.68520718      -0.07198376       0.12826330      -0.07318268
Si       5.42211787       2.93204832       1.69439908       0.11826742      -0.20874169       0.08134752
Si       7.64433240       7.01200505      10.70365150       0.09742768      -0.19494041       0.19784011
Si       9.81114111       6.38918255      11.87038382      -0.06686405      -0.13165444      -0.17493088
Si       6.98305475      12.18645399      15.07326612       0.20992348       0.16466621      -0.05674581
Si       5.80455746       3.08644725       5.00458151      -0.05090737      -0.27531387       0.13641276
Si       8.68401493       3.74280948       6.56250977      -0.02238878       0.09629676       0.35901552
Si       7.25436633       4.93418618       5.22033373      -0.15884631       0.17057617      -0.12035980
Si       3.81742611       4.16459153       4.39231765      -0.22057305      -0.09000243       0.08468546
Si       7.02845269       7.61608073       8.44730864       0.34964775       0.18191824      -0.10469457
Si       6.42516813      11.29550436      12.94640079      -0.08114573      -0.07978480      -0.09242392
Si       3.95320619       8.86759860      11.70926780      -0.08065693      -0.15744250      -0.19990492
Si       8.88744564       8.65044293       7.53926505       0.04925794      -0.23025950       0.17546582
22
Lattice="7.713460306408789 -0.843337537669064 0.10217066005086467 0.878444293272519 6.92264271452246 4.122879602173944 3.0436375691351536 7.57858907134523 13.019651549143603" Properties=species:S:1:pos:R:3:forces:R:3 unique_starting_index=408 config_type=initial n_minim_iter=8 energy=-3581.5801569894143 stress="-0.0015906693868889083 -0.0003026688579018891 0.0019887566824595207 -0.0003026688579018891 0.0006975551658859688 0.003340258909015696 0.0019887566824595207 0.003340258909015696 0.0014314004608385763" free_energy=-3581.5801569894143 pbc="T T T"
Si       6.04578606       5.93008289       7.10254026       0.12750888      -0.00235479       0.02823026
Si       6.33925781       8.98790368      11.34100069       0.06612118      -0.07407078       0.07346554
Si       5.01646516       8.13690514       6.86696989       0.16749330       0.16252397      -0.06409497
Si       2.95917359       8.19354803       7.98804388      -0.00131720       0.07764712       0.16060444
Si       2.60282882       5.89485853       7.49068800      -0.35207724      -0.15829276      -0.08987707
Si       2.23827135       2.91350697       5.60444800      -0.13714340      -0.15994009      -0.19733060
Si       3.01846374      11.93406828      14.93923952       0.13115447       0.10851129       0.05710827
Si       8.23352505       9.77039008      12.51135593      -0.33896020       0.39849951       0.05406875
Si       3.21284271       4.09712620       8.89761798      -0.05133414       0.11605924       0.10780285
Si       4.10588144       6.14795982       5.73954782      -0.01087524       0.11880264      -0.18031088
Si       5.39026492       2.94370907       1.73594958       0.01928194      -0.22402744      -0.07630209
Si       7.61623515       7.07317705      10.79209886       0.11645310      -0.08828181       0.14786903
Si       9.77339216       6.44827595      11.96239783      -0.04785781      -0.19766980      -0.19636808
Si       6.96887569      12.28862658      15.18982333       0.09968226       0.04323320      -0.06107212
Si       5.76865997       3.10311591       5.05455500       0.02908703      -0.24963743       0.14237980
Si       8.62835343       3.77865133       6.62306532       0.16989725       0.07804306       0.32949387
Si       7.20651596       4.96592631       5.27984491      -0.17586179       0.18001288      -0.17187775
Si       3.79767814       4.19349525       4.43712292      -0.16256257       0.09272695       0.01578710
Si       7.00105656       7.67800145       8.52988487       0.13374445       0.05897748      -0.05527401
Si       6.40098563      11.39652358      13.05061147       0.08983776      -0.07290625      -0.02813504
Si       3.94569750       8.94920905      11.78715794      -0.11032678      -0.04316245      -0.14121410
Si       8.84003090       8.70256772       7.63125190       0.23805473      -0.16469373       0.14504681
22
Lattice="7.681303298545132 -0.850004288878691 0.07097913246644136 0.8523718898004257 6.918513244516599 4.060100242122446 2.9662498667624324 7.509942420752002 12.926728011754289" Properties=species:S:1:pos:R:3:forces:R:3 unique_starting_index=408 config_type=initial n_minim_iter=9 energy=-3581.6225603280614 stress="-0.005176909193144836 -0.00018237558823387266 -0.00033891208091592215 -0.00018237558823387266 0.0006606974658312619 -0.0017225520660111152 -0.00033891208091592215 -0.0017225520660111152 0.0014039253641367692" free_energy=-3581.6225603280614 pbc="T T T"
Si       5.98734271       5.90310819       7.00803287       0.03959476      -0.02881946       0.21828342
Si       6.25855076       8.93028929      11.23376186      -0.10511310      -0.16490871      -0.10240677
Si       4.96239427       8.11884366       6.77915209       0.27763435       0.24083666      -0.16175495
Si       2.91788666       8.15224646       7.90254180      -0.08983123       0.09035386       0.04183463
Si       2.54691910       5.86272084       7.41791989      -0.14704180      -0.20514730      -0.01916634
Si       2.19317979       2.88831209       5.55091348      -0.17511647      -0.08619155      -0.10926380
Si       2.94050994      11.85974080      14.81955494       0.21178558       0.01296840       0.13494248
Si       8.11868068       9.73605090      12.37567185      -0.12426489       0.43689780       0.05784175
Si       3.15543242       4.04707951       8.83263886      -0.14298925       0.18630159       0.00751909
Si       4.05616189       6.12956030       5.65869991      -0.11547254       0.13204812      -0.08157592
Si       5.36793863       2.93765523       1.69374526      -0.08104102      -0.34941846       0.04137958
Si       7.53613876       7.01149071      10.69117738       0.10742495      -0.00663455       0.13261486
Si       9.67771556       6.37156390      11.84124126      -0.04210830      -0.18091643      -0.07666219
Si       6.87314518      12.21849585      15.03434178       0.11587519       0.03462098       0.12245013
Si       5.71068304       3.05680067       5.00270971       0.03135969      -0.14127437       0.15738075
Si       8.54620989       3.74924921       6.54374580       0.07901931      -0.02128069       0.30602074
Si       7.13924501       4.94613476       5.19686014      -0.13411203       0.10793163      -0.31375211
Si       3.75524278       4.17382596       4.38356057      -0.18513218       0.03069705      -0.12246922
Si       6.94227171       7.65093096       8.42657871       0.08259017      -0.02702481      -0.03354557
Si       6.30449592      11.35204709      12.90773976       0.14219855       0.05864899      -0.16524948
Si       3.86247223       8.89421500      11.66855704      -0.09393154      -0.00877926      -0.11504304
Si       8.77232115       8.67073023       7.51816681       0.34867180      -0.11090950       0.08062197
22
Lattice="7.744082409284615 -0.9090547610582842 0.06830625240949 0.8065853653737478 6.920814390292403 4.001432159752517 2.92710205314158 7.475922290691167 12.776638021436739" Properties=species:S:1:pos:R:3:forces:R:3 unique_starting_index=408 config_type=initial n_minim_iter=10 energy=-3581.6535195510187 stress="-0.0005368899905332732 -0.004859283799069584 0.0010244521495618862 -0.004859283799069584 0.0008800607211092839 -0.0022947977270530652 0.0010244521495618862 -0.0022947977270530652 -0.004725924597357088" free_energy=-3581.6535195510187 pbc="T T T"
Si       5.98662536       5.86780931       6.90817580      -0.07429787       0.06248035       0.22911418
Si       6.23500503       8.86828112      11.10759852      -0.27385099      -0.27509222      -0.06854298
Si       4.94570246       8.09115746       6.69876347       0.23481984       0.15157682      -0.11738483
Si       2.88935368       8.11942511       7.80678936      -0.19034904       0.14748742      -0.12564438
Si       2.51004495       5.83825210       7.32070341      -0.02178696      -0.18096056       0.05364906
Si       2.17099800       2.87807669       5.47204980      -0.33122354       0.03814438       0.04241047
Si       2.88548040      11.81967163      14.64917798       0.08859270       0.03766781       0.14631797
Si       8.08017548       9.70626727      12.22389980      -0.14544520       0.38593015       0.03779513
Si       3.14231094       4.01401787       8.72401429      -0.01131123       0.20531449      -0.03261483
Si       4.03384565       6.10352470       5.57771248      -0.04704012       0.19108632      -0.04463780
Si       5.39713681       2.89623100       1.68004835      -0.02787253      -0.17770466       0.11800983
Si       7.54277013       6.94140664      10.57003869       0.17504423       0.15803756       0.19560196
Si       9.70412794       6.27456937      11.69724804      -0.08093143      -0.09909314      -0.13073490
Si       6.84208079      12.15736965      14.84529643       0.20599345      -0.10231425       0.14328351
Si       5.71520912       2.98792042       4.95237389      -0.15924019       0.10550978       0.04109341
Si       8.56267533       3.69183640       6.46425559       0.03708761      -0.02939571       0.06531709
Si       7.13636163       4.89541114       5.12072218      -0.02384418      -0.07911928      -0.21241812
Si       3.74737400       4.14483793       4.32863826       0.01627836      -0.12356805      -0.04615215
Si       6.95010670       7.60819015       8.32406553       0.04658662      -0.15784092      -0.03715472
Si       6.25723609      11.32451548      12.73743641       0.00727568      -0.06690305      -0.22107107
Si       3.81148650       8.86218045      11.50912560      -0.01665396      -0.03905077      -0.06867157
Si       8.78966208       8.59966280       7.42808429       0.59216873      -0.15219247       0.03243474
22
Lattice="7.741063370798696 -0.8939845233981881 0.028910029602531084 0.7995812696349062 6.926799389708616 3.993774153961658 2.8739663409006218 7.469251739162397 12.781444933040156" Properties=species:S:1:pos:R:3:forces:R:3 unique_starting_index=408 config_type=initial n_minim_iter=11 energy=-3581.783516590769 stress="0.0004382241056528139 3.8268951171086244e-05 -0.0011117138227586408 3.8268951171086244e-05 -0.0017047946979707202 -0.0031652657152524237 -0.0011117138227586408 -0.0031652657152524237 -0.0010963387201108293" free_energy=-3581.783516590769 pbc="T T T"
Si       5.95867636       5.91900372       6.84814283      -0.14406848      -0.00484826       0.34980922
Si       6.18575935       8.82927715      11.12580353      -0.29857277      -0.21559070      -0.12931131
Si       4.96196350       8.10950515       6.70711409       0.07954318       0.09817218      -0.09848909
Si       2.89364764       8.09152107       7.81342315       0.16568377      -0.20022791      -0.27928102
Si       2.45783127       5.82033821       7.29312849       0.35920498       0.14935659      -0.00838369
Si       2.09394602       2.92415936       5.43051653      -0.28725861       0.01161340       0.11415392