8
Lattice="5.57356 9.860761315262645e-32 0.0 -2.7867799999999994 4.826844549516793 0.0 0.0 0.0 5.80078" Properties=species:S:1:pos:R:3:forces:R:3 unique_starting_index=80 config_type=initial n_minim_iter=1 energy=-1260.6548710263012 stress="-1.0777239196759039 -1.0777239196777455 -0.1293479120965437 1.021165051033552e-12 5.686282315291592e-13 5.764745147173855e-13" pbc="T T T"
Si       2.83545780       3.14253259       4.12598460      -8.96212433      -3.53187724       4.50981933
Si       1.43431777       0.88431267       4.12598460       7.53975758      -5.99548872       4.50981933
Si       4.09056360       0.79999977       4.12598460       1.42236675       9.52736596       4.50981933
Si       1.30378360       4.02684510       4.12598460       1.42236675      -9.52736596       4.50981933
Si       0.04867780       1.68431228       4.12598460      -8.96212433       3.53187724       4.50981933
Si      -1.35246223       3.94253220       4.12598460       7.53975758       5.99548872       4.50981933
Si       2.78677972       1.60894834       3.37999733       0.00000000       0.00000000     -13.52945799
Si      -0.00000028       3.21789653       3.37999733      -0.00000000       0.00000000     -13.52945799
8
Lattice="5.668092212453703 1.1451522754274593e-17 0.0 -2.834046106226851 4.908711846977649 0.0 0.0 0.0 5.812501052307973" Properties=species:S:1:pos:R:3:forces:R:3 unique_starting_index=80 config_type=initial n_minim_iter=2 energy=-1266.325124753983 stress="-0.9911524458858514 -0.9911524458862913 -0.11485663607007672 9.00600309445837e-13 3.9257546717553914e-13 -9.733678756555595e-13" pbc="T T T"
Si       2.88263811       3.19547338       4.13477345      -7.56086153      -2.18890819       4.13157208
Si       1.45941176       0.89870163       4.13477345       5.67608086      -5.45344407       4.13157208
Si       4.16008761       0.81453733       4.13477345       1.88478067       7.64235225       4.13157208
Si       1.32604151       4.09417485       4.13477345       1.88478067      -7.64235225       4.13157208
Si       0.04859200       1.71323879       4.13477345      -7.56086153       2.18890819       4.13157208
Si      -1.37463435       4.01001054       4.13477345       5.67608086       5.45344407       4.13157208
Si       2.83404583       1.63623745       3.38547127      -0.00000000       0.00000000     -12.39471624
Si      -0.00000028       3.27247473       3.38547127       0.00000000      -0.00000000     -12.39471624
8
Lattice="7.6572711017461295 -9.796669785610657e-18 0.0 -3.8286355508730643 6.631391297776606 0.0 5.1858460648842845e-62 7.741695152043504e-46 6.018683732084167" Properties=species:S:1:pos:R:3:forces:R:3 unique_starting_index=80 config_type=initial n_minim_iter=3 energy=-1299.2783559240256 stress="-0.010999062506874028 -0.0109990625068842 0.001371279893327688 -1.326827945445392e-13 5.993907884344824e-13 -3.6598943152832973e-13" pbc="T T T"
Si       3.87445660       4.31116415       4.28950417      -1.06939144       0.74335127      -0.08643238
Si       1.98646475       1.19979642       4.28950417      -0.10906537      -1.29779579      -0.08643238
Si       5.62498417       1.12043139       4.28950417       1.17845681       0.55444452      -0.08643238
Si       1.79634862       5.51096035       4.28950417       1.17845681      -0.55444452      -0.08643238
Si       0.04582105       2.32022759       4.28950417      -1.06939144      -0.74335127      -0.08643238
Si      -1.84217080       5.43159532       4.28950417      -0.10906537       1.29779579      -0.08643238
Si       3.82863517       2.21046399       3.48137908       0.00000000       0.00000000       0.25929714
Si      -0.00000038       4.42092775       3.48137908      -0.00000000      -0.00000000       0.25929714
8
Lattice="7.706764029164952 3.873564052907909e-16 1.326666541290574e-47 -3.853382014582475 6.674253430228963 1.2093683093588892e-47 1.3707708117866968e-47 8.034940254068684e-46 6.013851287282786" Properties=species:S:1:pos:R:3:forces:R:3 unique_starting_index=80 config_type=initial n_minim_iter=4 energy=-1299.3339798578502 stress="0.001053774432145852 0.0010537744310536398 0.0023787229116482827 -1.590315606426103e-13 -7.948583325809596e-14 -1.541579694177351e-12" pbc="T T T"
Si       3.89560563       4.34173595       4.28588190      -0.90678946       0.72040360      -0.15201058
Si       1.99890721       1.20282613       4.28588190      -0.17049309      -1.14550451      -0.15201058
Si       5.66563206       1.12969202       4.28588190       1.07728254       0.42510091      -0.15201058
Si       1.81225005       5.54456185       4.28588190       1.07728254      -0.42510091      -0.15201058
Si       0.04222361       2.33251793       4.28588190      -0.90678946      -0.72040360      -0.15201058
Si      -1.85447481       5.47142775       4.28588190      -0.17049309       1.14550451      -0.15201058
Si       3.85338163       2.22475136       3.47911844       0.00000000      -0.00000000       0.45603175
Si      -0.00000038       4.44950251       3.47911844      -0.00000000       0.00000000       0.45603175
8
Lattice="7.7021459957953144 1.0906901417193239e-15 2.5746269956443775e-47 -3.851072997897656 6.6702540960153325 3.512005028524374e-46 2.6700171929544423e-47 8.311883889432213e-46 6.005719794828889" Properties=species:S:1:pos:R:3:forces:R:3 unique_starting_index=80 config_type=initial n_minim_iter=5 energy=-1299.3639595644477 stress="0.00012469808935488974 0.00012469808684336872 0.0024048678274525524 -1.913261456756177e-14 -1.3225093210339834e-12 1.211466754646256e-12" pbc="T T T"
Si       3.89008517       4.34166555       4.27978682      -0.85112860       0.70757310      -0.15372622
Si       1.99711037       1.19808047       4.27978682      -0.18721198      -1.09088554      -0.15372622
Si       5.66602231       1.13050875       4.27978682       1.03834058       0.38331244      -0.15372622
Si       1.81494931       5.53974579       4.27978682       1.03834058      -0.38331244      -0.15372622
Si       0.03901217       2.32858899       4.27978682      -0.85112860      -0.70757310      -0.15372622
Si      -1.85396262       5.47217407       4.27978682      -0.18721198       1.09088554      -0.15372622
Si       3.85107262       2.22341825       3.47531430      -0.00000000       0.00000000       0.46117865
Si      -0.00000038       4.44683629       3.47531430      -0.00000000      -0.00000000       0.46117865
8
Lattice="7.699815831175145 -4.2193211614542894e-17 3.8057005530300457e-47 -3.849907915587571 6.668236114259267 3.6498350539442854e-46 3.961553145001557e-47 8.589727393350715e-46 5.970775963956311" Properties=species:S:1:pos:R:3:forces:R:3 unique_starting_index=80 config_type=initial n_minim_iter=6 energy=-1299.4723178397267 stress="-2.4800610545021946e-05 -2.4800610892475237e-05 0.00275311335083699 6.415890357963346e-13 8.915821622614825e-13 -7.835747995891373e-13" pbc="T T T"
Si       3.87612968       4.35097535       4.25359685      -0.59326192       0.64189681      -0.17702125
Si       1.99369543       1.18133976       4.25359685      -0.25926799      -0.83472830      -0.17702125
Si       5.67989749       1.13592167       4.25359685       0.85252991       0.19283149      -0.17702125
Si       1.82998958       5.53231488       4.25359685       0.85252991      -0.19283149      -0.17702125
Si       0.02622176       2.31726121       4.25359685      -0.59326192      -0.64189681      -0.17702125
Si      -1.85621248       5.48689680       4.25359685      -0.25926799       0.83472830      -0.17702125
Si       3.84990753       2.22274559       3.45895849       0.00000000       0.00000000       0.53106374
Si      -0.00000038       4.44549096       3.45895849       0.00000000      -0.00000000       0.53106374
8
Lattice="7.701400008435286 -1.4741484116932114e-15 3.16851954474902e-47 -3.8507000042176425 6.669608052010647 1.0650010979714513e-44 3.387878695986614e-47 1.323270893613465e-44 5.835966094794823" Properties=species:S:1:pos:R:3:forces:R:3 unique_starting_index=80 config_type=initial n_minim_iter=7 energy=-1299.6642488313178 stress="-0.0026170762745130974 -0.002617076273965945 0.003602228051012141 2.6491441309784635e-13 6.249055414918077e-14 2.4397347486458837e-14" pbc="T T T"
Si       3.84628458       4.38502515       4.15259784       0.11280411       0.30261074      -0.23778761
Si       1.98071416       1.13846824       4.15259784      -0.31847065      -0.05361414      -0.23778761
Si       5.72510013       1.14611532       4.15259784       0.20566653      -0.24899660      -0.23778761
Si       1.87440013       5.52349317       4.15259784       0.20566653       0.24899660      -0.23778761
Si      -0.00441543       2.28458334       4.15259784       0.11280411      -0.30261074      -0.23778761
Si      -1.86998584       5.53114026       4.15259784      -0.31847065       0.05361414      -0.23778761
Si       3.85069962       2.22320291       3.39574144      -0.00000000       0.00000000       0.71336283
Si      -0.00000038       4.44640559       3.39574144       0.00000000      -0.00000000       0.71336283
8
Lattice="7.836002696340677 -4.2997616820350185e-16 -3.382536027065076e-46 -3.9180013481703377 6.7861773991543854 3.021619178745556e-44 -3.5179314284286915e-46 -1.2285778059504354e-44 5.698430442156179" Properties=species:S:1:pos:R:3:forces:R:3 unique_starting_index=80 config_type=initial n_minim_iter=8 energy=-1299.5806334825456 stress="0.0362343458827466 0.03623434588365039 0.004323524859110435 -5.930675809302471e-13 -2.342427978007854e-13 -3.207190930890519e-13" pbc="T T T"
Si       3.91834870       4.47464902       4.04954356      -0.00717091       0.24998614      -0.30400538
Si       2.00166823       1.15606567       4.04954356      -0.21290889      -0.13120326      -0.30400538
Si       5.83398595       1.15546338       4.04954356       0.22007980      -0.11878287      -0.30400538
Si       1.91598460       5.63071447       4.04954356       0.22007980       0.11878288      -0.30400538
Si       0.00034735       2.31152883       4.04954356      -0.00717091      -0.24998614      -0.30400538
Si      -1.91633311       5.63011217       4.04954356      -0.21290889       0.13120326      -0.30400538
Si       3.91800096       2.26205936       3.33128555       0.00000000      -0.00000000       0.91201615
Si      -0.00000039       4.52411849       3.33128555      -0.00000000      -0.00000000       0.91201615
8
Lattice="7.712255741886987 -6.28699882002864e-16 -5.086034309786026e-46 -3.856127870943493 6.679009392956533 5.036170491175139e-44 -5.236596026794856e-46 -1.2614427381088996e-44 5.687617289281039" Properties=species:S:1:pos:R:3:forces:R:3 unique_starting_index=80 config_type=initial n_minim_iter=9 energy=-1299.7487624577525 stress="-0.0029063911873679705 -0.002906391183174122 0.0036393001608470738 1.9763941525102843e-13 3.1909460646688176e-13 6.428883280519995e-13" pbc="T T T"
Si       3.85644951       4.40468996       4.04143476      -0.00855734       0.18078026      -0.24846475
Si       1.96945720       1.13743893       4.04143476      -0.15228163      -0.09780100      -0.24846475
Si       5.74247576       1.13688117       4.04143476       0.16083897      -0.08297926      -0.24846475
Si       1.88634789       5.54212867       4.04143476       0.16083897       0.08297926      -0.24846475
Si       0.00032164       2.27431987       4.04143476      -0.00855734      -0.18078026      -0.24846475
Si      -1.88667067       5.54157091       4.04143476      -0.15228163       0.09780100      -0.24846475
Si       3.85612749       2.22633669       3.32623775      -0.00000000       0.00000000       0.74539424
Si      -0.00000038       4.45267315       3.32623775       0.00000000      -0.00000000       0.74539424
8
Lattice="7.72112148099778 -8.966723037145447e-16 -8.842246257283127e-46 -3.8605607404988898 6.686687348249806 4.983372845589908e-44 -9.157858926700072e-46 -1.341621969320108e-44 5.67944081946419" Properties=species:S:1:pos:R:3:forces:R:3 unique_starting_index=80 config_type=initial n_minim_iter=10 energy=-1299.7538164209795 stress="-0.00019434605990254064 -0.0001943460617628668 0.00371108460326136 -3.806717737878762e-13 2.9375780413206417e-13 3.446185775499582e-13" pbc="T T T"
Si       3.86086062       4.41022102       4.03530300      -0.00787205       0.18515331      -0.25440711
Si       1.97132735       1.13849353       4.03530300      -0.15641145      -0.09939405      -0.25440711
Si       5.74949311       1.13797347       4.03530300       0.16428350      -0.08575926      -0.25440711
Si       1.88893237       5.54871433       4.03530300       0.16428350       0.08575926      -0.25440711
Si       0.00029988       2.27646677       4.03530300      -0.00787205      -0.18515331      -0.25440711
Si      -1.88923339       5.54819426       4.03530300      -0.15641145       0.09939405      -0.25440711
Si       3.86056036       2.22889600       3.32242149       0.00000000      -0.00000000       0.76322132
Si      -0.00000038       4.45779179       3.32242149      -0.00000000      -0.00000000       0.76322132
8
Lattice="7.721726588707932 -7.880062908599524e-17 -1.2896817037338365e-45 -3.8608632943539654 6.687211386898823 6.986433933638223e-44 -1.3393395416761513e-45 -1.4282205673167312e-44 5.670948211688598" Properties=species:S:1:pos:R:3:forces:R:3 unique_starting_index=80 config_type=initial n_minim_iter=11 energy=-1299.758033949143 stress="-0.00016707947812207087 -0.0001670794765695154 0.0036998589512738326 -3.5358913861458767e-13 -6.933787281533806e-13 -7.682524642091996e-13" pbc="T T T"
Si       3.86114242       4.41105533       4.02893404      -0.00733658       0.18199470      -0.25415558
Si       1.97106903       1.13832042       4.02893404      -0.15394374      -0.09735102      -0.25415558
Si       5.75037729       1.13783630       4.02893404       0.16128033      -0.08464368      -0.25415558
Si       1.88951400       5.54937553       4.02893404       0.16128033       0.08464368      -0.25415558
Si       0.00027912       2.27615650       4.02893404      -0.00733658      -0.18199470      -0.25415558
Si      -1.88979427       5.54889141       4.02893404      -0.15394374       0.09735102      -0.25415558
Si       3.86086291       2.22907068       3.31845801      -0.00000000       0.00000000       0.76246673
Si      -0.00000038       4.45814115       3.31845801      -0.00000000      -0.00000000       0.76246673
8
Lattice="7.752593879490666 -1.4311805102867297e-15 -5.2072629830291936e-45 -3.8762969397453335 6.713943244862671 4.1844222931291403e-44 -5.5405190427862205e-45 -1.9102583753263747e-44 5.191443702542753" Properties=species:S:1:pos:R:3:forces:R:3 unique_starting_index=80 config_type=initial n_minim_iter=12 energy=-1299.9538357492859 stress="0.003106274606760332 0.003106274605876937 0.0027014323442993084 3.5873391832296273e-13 -7.518847859737554e-13 -3.9701948444024444e-13" pbc="T T T"
Si       3.87542434       4.45728624       3.67013713       0.02464951      -0.09101000      -0.21053439
Si       1.95475821       1.12757347       3.67013713       0.06649221       0.06685211      -0.21053439
Si       5.79870712       1.12908420       3.67013713      -0.09114173       0.02415789      -0.21053439
Si       1.92241018       5.58485949       3.67013713      -0.09114173      -0.02415789      -0.21053439
Si      -0.00087260       2.25665745       3.67013713       0.02464952       0.09101000      -0.21053439
Si      -1.92153873       5.58637022       3.67013713       0.06649221      -0.06685211      -0.21053439
Si       3.87629656       2.23798130       3.09226379      -0.00000000      -0.00000000       0.63160316
Si      -0.00000038       4.47596239       3.09226379      -0.00000000       0.00000000       0.63160316
