10
Lattice="4.59690064003835 -2.7340818106359022e-36 -1.0914700198493453e-45 7.92932969442223e-63 3.937514920467269 -8.176057574042234e-11 2.370059133515089e-45 2.194849913350645e-10 10.570197437750668" Properties=species:S:1:pos:R:3:forces:R:3 unique_starting_index=72 config_type=initial n_minim_iter=11 energy=-1629.7362953425009 stress="0.00022867053588843136 -5.165676021235497e-12 -2.3751205455715154e-13 -5.165676021235497e-12 0.0004384304495916117 -3.665834219112218e-12 -2.3751205455715154e-13 -3.665834219112218e-12 -3.0606206715940384e-05" free_energy=-1629.7362953425009 pbc="T T T"
Si       4.09449767       2.92832401       3.73572073       0.00496828      -0.00515630       0.00522773
Si       4.09449767       1.00919091       6.83447670       0.00496829       0.00515630      -0.00522773
Si       1.79604735       0.95956655       1.54937799       0.00496829      -0.00515630      -0.00522773
Si       1.79604735       2.97794837       9.02081945       0.00496829       0.00515630       0.00522773
Si       0.88226706       1.01201594       3.73594954      -0.00539787       0.00072573       0.00186197
Si       0.88226706       2.92549898       6.83424790      -0.00539787      -0.00072573      -0.00186197
Si       3.18071738       2.98077340       1.54914918      -0.00539787       0.00072573      -0.00186197
Si       3.18071738       0.95674152       9.02104826      -0.00539787      -0.00072573       0.00186197
Si       0.19034589       0.00000000      -0.00000000       0.00085917      -0.00000000       0.00000000
Si       2.48879621       1.96875746       5.28509872       0.00085917       0.00000000      -0.00000000
