18
Lattice="5.815871145932571 0.0 0.0 0.0 4.838488273139054 -1.6044149867939944e-22 0.0 3.903696547917285e-22 11.727308267263155" Properties=species:S:1:pos:R:3:forces:R:3 unique_starting_index=36 config_type=initial n_minim_iter=3 energy=-2929.5806080034554 stress="-5.1907188722840215e-05 -1.918556096988901e-12 -3.032433090981657e-12 -1.918556096988901e-12 -3.43890372069395e-05 -1.2211406726596096e-12 -3.032433090981657e-12 -1.2211406726596096e-12 4.573339665291557e-05" free_energy=-2929.5806080034554 pbc="T T T"
Si       4.33093448       4.75225602      10.80384602       0.00119555       0.00009383      -0.00977364
Si       1.48493666       4.75225602       0.92346225      -0.00119555       0.00009383       0.00977364
Si       4.39287224       4.75225602       4.94019189      -0.00119555       0.00009383      -0.00977364
Si       1.42299891       4.75225602       6.78711638       0.00119555       0.00009383       0.00977364
Si      -0.07809297       1.61537539       1.83319167       0.00123305       0.00340212       0.00554875
Si       5.89396412       1.61537539       9.89411660      -0.00123305       0.00340212      -0.00554875
Si       2.98602855       1.61537539       7.69684580      -0.00123305       0.00340212       0.00554875
Si       2.82984260       1.61537539       4.03046246       0.00123305       0.00340212      -0.00554875
Si       1.41028464       3.25003582       2.85518226      -0.00685001      -0.00630667       0.00280244
Si       4.40558651       3.25003582       8.87212601       0.00685001      -0.00630667      -0.00280244
Si       1.49765093       3.25003582       8.71883639       0.00685001      -0.00630667       0.00280244
Si       4.31822021       3.25003582       3.00847188      -0.00685001      -0.00630667      -0.00280244
Si       3.80955441       0.13299755       1.45153614      -0.00516338       0.00023853       0.00269752
Si       2.00631674       0.13299755      10.27577212       0.00516338       0.00023853      -0.00269752
Si      -0.90161884       0.13299755       7.31519028       0.00516338       0.00023853       0.00269752
Si       6.71748998       0.13299755       4.41211799      -0.00516338       0.00023853      -0.00269752
Si      -0.00000000       3.09422873       0.00000000       0.00000000       0.00514439      -0.00000000
Si       2.90793557       3.09422873       5.86365413       0.00000000       0.00514438       0.00000000
