12
Lattice="2.534317587467847 0.07806665206954182 -0.4160020857765565 0.11982301881689944 7.233441212896391 -0.23369071900312227 -0.1757352635215117 -0.20011430147989762 16.546586290026113" Properties=species:S:1:pos:R:3:forces:R:3 unique_starting_index=344 config_type=initial n_minim_iter=1 energy=-1952.1640328479882 stress="-0.001863074781957422 -0.0002870072818894758 0.00022002401213692014 -0.0002870072818894758 -0.0018253790977211762 -0.000600720007339563 0.00022002401213692014 -0.000600720007339563 -0.002058259044415921" free_energy=-1952.1640328479882 pbc="T T T"
Si       2.22896914       1.09403464       0.46892189       0.01949769       0.03082566       0.04886112
Si       2.21974677      -1.51599216      16.40032774      -0.02054187      -0.05702254      -0.07020807
Si       1.18915049       4.69689060      13.98397079      -0.04223914      -0.04884559      -0.05995442
Si       0.45107202       4.01945238       9.56069607      -0.04578088       0.08675518       0.00728708
Si       2.00910795       3.39022616      -0.63653517      -0.00235725      -0.04587321       0.00931176
Si      -0.06162926       2.10781566       5.76535196       0.02094205      -0.00518934      -0.03359472
Si       0.91053209       3.65193121       7.31133946       0.05335811      -0.00034390       0.10012899
Si       0.23705940       5.89867324       2.53447186      -0.03126472       0.05681133      -0.00786787
Si       2.68272320       1.19929674       3.03738425       0.04297653      -0.00435004      -0.01385960
Si       2.30914129       3.47158195       1.87485495      -0.05138084      -0.03596317      -0.02665640
Si       1.66021861       4.15683655       4.28543192       0.01590450       0.00681056       0.08225789
Si       1.63516308       4.48776241      11.59090311       0.04088582       0.01638505      -0.03570577
12
Lattice="2.5369305064257177 0.07840172526760679 -0.4167408467022294 0.12109362667094502 7.240518838249149 -0.23161575667206 -0.17791109039375058 -0.19496526219227137 16.56494662656056" Properties=species:S:1:pos:R:3:forces:R:3 unique_starting_index=344 config_type=initial n_minim_iter=2 energy=-1952.1650742970112 stress="0.000592201352307435 -0.00018761250251984662 0.0001677639922880794 -0.00018761250251984662 -0.0006462880999821289 -0.00022261102091433924 0.0001677639922880794 -0.00022261102091433924 0.0006318936282846365" free_energy=-1952.1650742970112 pbc="T T T"
Si       2.23136187       1.09566697       0.46962100       0.02114781       0.02569920       0.05347289
Si       2.21975905      -1.51191888      16.41768766      -0.02217708      -0.05983623      -0.07257114
Si       1.18933772       4.70616213      14.00080165      -0.04312228      -0.04230509      -0.07185054
Si       0.45093087       4.02674703       9.57259504      -0.05205921       0.08549067       0.00384849
Si       2.01172798       3.39359322      -0.63636448      -0.00348917      -0.03941252       0.01235161
Si      -0.06201254       2.11174828       5.77239646       0.01902044       0.02155778      -0.02558616
Si       0.91124109       3.65804856       7.32072836       0.06870383      -0.01039481       0.12025407
Si       0.23785589       5.90545296       2.53916434      -0.03369446       0.05374610      -0.00926900
Si       2.68532555       1.20187456       3.04080832       0.04259639      -0.00668549      -0.01631846
Si       2.31168972       3.47590908       1.87774548      -0.05073582      -0.03263289      -0.02460489
Si       1.66205361       4.16259830       4.29149805       0.01251656       0.00031206       0.07043817
Si       1.63620003       4.49623628      11.60499461       0.04129299       0.00446122      -0.04016503
12
Lattice="2.5344303379176902 0.08074787223617959 -0.4183917197958965 0.1286103760092497 7.270572353769214 -0.22118533966070572 -0.19264348959493954 -0.17251529605559307 16.545144945032842" Properties=species:S:1:pos:R:3:forces:R:3 unique_starting_index=344 config_type=initial n_minim_iter=3 energy=-1952.1659801315411 stress="-0.0009660376890187916 -0.00017304130169568344 7.868395162193503e-05 -0.00017304130169568344 0.0014018962290919309 9.264033559744918e-06 7.868395162193503e-05 9.264033559744918e-06 -7.985851459591852e-05" free_energy=-1952.1659801315411 pbc="T T T"
Si       2.22982543       1.10365259       0.46951606       0.03317478      -0.00693505       0.04496286
Si       2.20064513      -1.49371951      16.39284878      -0.03673506      -0.03289316      -0.06859823
Si       1.17961984       4.74613687      13.98860187      -0.02823780      -0.03028467      -0.05019551
Si       0.44517798       4.05903025       9.56660353      -0.03883302       0.08293668      -0.00140808
Si       2.01338932       3.40826227      -0.63238984      -0.00023923      -0.04282711       0.03108752
Si      -0.06457868       2.12897597       5.76813723       0.02610109       0.03137737      -0.01776145
Si       0.90854287       3.68448968       7.31836786       0.04132651      -0.03326657       0.08025910
Si       0.24084019       5.93488169       2.54415664      -0.03394204       0.05670968       0.00555855
Si       2.68144757       1.21385581       3.03624092       0.04476533      -0.02924656      -0.01793491
Si       2.31005445       3.49490898       1.87796658      -0.03826275      -0.02021773      -0.01107970
Si       1.66080225       4.18780075       4.29202983       0.00589963       0.00850412       0.03907139
Si       1.62928994       4.53323887      11.59545930       0.02498257       0.01614301      -0.03396154
12
Lattice="2.539272202720484 0.08353377664292112 -0.4201341079848036 0.13846278697618503 7.259236504802085 -0.21410565386331606 -0.20822379803351085 -0.15660974924465448 16.52590274659438" Properties=species:S:1:pos:R:3:forces:R:3 unique_starting_index=344 config_type=initial n_minim_iter=4 energy=-1952.167008942528 stress="0.0010854454402120799 0.00016610433810461002 -0.0005206176499765385 0.00016610433810461002 7.852749784430199e-05 0.0003107317359708959 -0.0005206176499765385 0.0003107317359708959 -0.0011888546892272268" free_energy=-1952.167008942528 pbc="T T T"
Si       2.23527384       1.10556823       0.46912921       0.02931022      -0.02931447       0.03019950
Si       2.18694247      -1.47388712      16.36871702      -0.02406871      -0.02323365      -0.07370198
Si       1.17426281       4.75287283      13.97436637      -0.02822407      -0.02599747      -0.06752609
Si       0.44147109       4.06444893       9.55898775      -0.02637097       0.08577191       0.00350748
Si       2.02179644       3.40403804      -0.62976037      -0.00149267      -0.03931476       0.03047676
Si      -0.06664811       2.13169506       5.76299987       0.03091468      -0.00453646       0.01833586
Si       0.90951076       3.68652564       7.31486221       0.04112909      -0.04055231       0.05712526
Si       0.24586860       5.92970100       2.54659122      -0.03238578       0.04212900       0.00654978
Si       2.68588036       1.21800348       3.03103274       0.05476481      -0.01691420      -0.00816593
Si       2.31581165       3.49367043       1.87658757      -0.03688268      -0.00298165       0.01471799
Si       1.66541262       4.18769664       4.29082894      -0.00996179       0.03134591       0.02162996
Si       1.62822508       4.53970478      11.58395524       0.00326789       0.02359816      -0.03314858
12
Lattice="2.535293429211895 0.08589332362832867 -0.4193473606055752 0.1454798682967255 7.237425535215452 -0.2148898734046222 -0.19530710013403776 -0.1566714712880898 16.572741889421856" Properties=species:S:1:pos:R:3:forces:R:3 unique_starting_index=344 config_type=initial n_minim_iter=5 energy=-1952.168503072104 stress="-0.00019755995112163193 0.000549439203042091 7.224161558422887e-05 0.000549439203042091 -0.001117172906457951 0.0007235057895263107 7.224161558422887e-05 0.0007235057895263107 0.0008387421718395799" free_energy=-1952.168503072104 pbc="T T T"
Si       2.23459832       1.10445466       0.47395034       0.03019432      -0.03227804       0.04801669
Si       2.19373299      -1.46915221      16.41410051      -0.01902552      -0.04163498      -0.05817596
Si       1.18679196       4.73803380      14.01226607      -0.01797718      -0.02629361      -0.07378049
Si       0.45073015       4.05589488       9.58645803       0.00366062       0.07682489      -0.00435656
Si       2.02171492       3.39415674      -0.62912437      -0.00733252      -0.01585285       0.00550228
Si      -0.05890017       2.12575105       5.77883080       0.05487070      -0.02685423       0.04350022
Si       0.91963742       3.67508449       7.33980111       0.02017201      -0.04063129       0.06607939
Si       0.25215242       5.91407672       2.55382752      -0.03702163       0.03003772      -0.03350216
Si       2.68742589       1.21630375       3.04110512       0.05904656       0.01868643       0.01634820
Si       2.31566795       3.48462135       1.88324983      -0.04490370       0.00068947      -0.00199694
Si       1.67069019       4.17717196       4.30604302      -0.02131317       0.04522109       0.01822393
Si       1.64040729       4.52801060      11.61652528      -0.02037049       0.01208538      -0.02585860
12
Lattice="2.5363870240675674 0.0849200251116459 -0.4186338502134911 0.1394706848577946 7.240083741820798 -0.23398992538598778 -0.18801418523462787 -0.20015677835306744 16.580624208344393" Properties=species:S:1:pos:R:3:forces:R:3 unique_starting_index=344 config_type=initial n_minim_iter=6 energy=-1952.1708755636478 stress="0.00022130262204058797 0.00026003560127147124 0.00013419237179838412 0.00026003560127147124 -0.00044349415934689517 -0.0003591771775736042 0.00013419237179838412 -0.0003591771775736042 0.0005671246760214694" free_energy=-1952.1708755636478 pbc="T T T"
Si       2.23669799       1.10123114       0.47480263       0.02530351      -0.01932378       0.03207711
Si       2.20181054      -1.51690085      16.42251336      -0.01309208      -0.04463846      -0.02870784
Si       1.18792692       4.69978813      14.00301345      -0.00047510      -0.04871786      -0.03610995
Si       0.45010028       4.03629347       9.58038735       0.03403079       0.07974983       0.01651784
Si       2.01952954       3.39313336      -0.63629250      -0.01705635      -0.00604814      -0.02156002
Si      -0.05635562       2.11168972       5.77588123       0.04080925       0.00829403       0.00240418
Si       0.92277780       3.65443789       7.33858197       0.01036305      -0.02573107       0.02482085
Si       0.24656932       5.91165317       2.53915355      -0.03771166      -0.00787926      -0.03341825
Si       2.69200812       1.20587673       3.04002675       0.04922638       0.02518529       0.01486222
Si       2.31239012       3.47791389       1.87554558      -0.04195062       0.00746326       0.00634657
Si       1.66992768       4.16684628       4.30002515      -0.00757984       0.02313648       0.02828142
Si       1.64348552       4.49828562      11.60870396      -0.04186734       0.00850967      -0.00551414
12
Lattice="2.5365228301916996 0.08231635059288078 -0.41929073569747527 0.1328283207607921 7.2455729827636635 -0.2285610767935485 -0.19306771914570217 -0.18775894896137935 16.577096925367663" Properties=species:S:1:pos:R:3:forces:R:3 unique_starting_index=344 config_type=initial n_minim_iter=7 energy=-1952.1729491328815 stress="-1.3722812972783623e-05 -5.8931700124027054e-05 -9.531165664761928e-05 -5.8931700124027054e-05 0.00016160632855565478 -0.00032916589792261275 -9.531165664761928e-05 -0.00032916589792261275 4.2295348716473e-05" free_energy=-1952.1729491328815 pbc="T T T"
Si       2.23814064       1.09975546       0.47873499       0.02117454      -0.04969697       0.01711789
Si       2.19585280      -1.51178257      16.41155234      -0.01830185      -0.02332993      -0.00334672
Si       1.17681003       4.70948070      13.99787627       0.01747597      -0.04911129      -0.01354287
Si       0.44141574       4.05401140       9.58171173       0.05944765       0.07211522       0.01757989
Si       2.01613460       3.39054231      -0.63307697      -0.01367599       0.00378834      -0.03414020
Si      -0.05726295       2.11880935       5.77589420       0.03922220       0.00860729       0.00696623
Si       0.92075487       3.65946354       7.34631395      -0.00997982      -0.03004553      -0.02950719
Si       0.23707843       5.92157725       2.54208614      -0.03883485      -0.03039782      -0.03693361
Si       2.69450938       1.20610582       3.03889131       0.03800072       0.03591971       0.03548077
Si       2.30466289       3.47871582       1.87648803      -0.03061458       0.03163577       0.01882697
Si       1.66473503       4.17343451       4.30552477      -0.00051926       0.01345916       0.00614516
Si       1.63641294       4.51023544      11.60647375      -0.06339472       0.01705606       0.01535367
12
Lattice="2.5370048523321835 0.08130446126689744 -0.41738695354519345 0.13115116851346098 7.244707400816895 -0.22041551353897407 -0.1816969350242321 -0.16935554593627558 16.573815666207015" Properties=species:S:1:pos:R:3:forces:R:3 unique_starting_index=344 config_type=initial n_minim_iter=8 energy=-1952.1742827564708 stress="4.958536329757996e-05 -9.03496335422596e-05 0.0002330672424481588 -9.03496335422596e-05 0.00032351430242698814 -8.59578269448509e-05 0.0002330672424481588 -8.59578269448509e-05 -0.0002860119189852418" free_energy=-1952.1742827564708 pbc="T T T"
Si       2.24173832       1.09807453       0.48548319       0.01788065      -0.07175443       0.00749540
Si       2.20557872      -1.49802933      16.40286863      -0.01493252      -0.00961296       0.01555902
Si       1.18377136       4.72025465      13.99589949       0.01355519      -0.04597783       0.00052791
Si       0.44637530       4.07290707       9.58544613       0.06946791       0.06197217       0.02662359
Si       2.01493314       3.38633966      -0.62723453      -0.00483326       0.01345957      -0.04209151
Si      -0.05028393       2.12610667       5.77707772       0.04754150       0.00418854       0.03017335
Si       0.92866312       3.66408568       7.35571232      -0.02082321      -0.03591796      -0.07989674
Si       0.23383722       5.92680599       2.54683526      -0.04179102      -0.04472983      -0.04384187
Si       2.70214741       1.20896146       3.04172149       0.02308658       0.04547163       0.05312405
Si       2.30157420       3.47945654       1.88139571      -0.02661959       0.05131607       0.02065602
Si       1.66729608       4.17928811       4.31418693       0.00691859       0.00862951      -0.01368247
Si       1.64355326       4.52388064      11.60822144      -0.06945084       0.02295552       0.02535323
12
Lattice="2.536596467668173 0.07979937525133213 -0.4201682852432721 0.12854223227634157 7.238436146841341 -0.21276058821609628 -0.19839220622149853 -0.150960658203737 16.585290358668885" Properties=species:S:1:pos:R:3:forces:R:3 unique_starting_index=344 config_type=initial n_minim_iter=9 energy=-1952.1757378152129 stress="-0.0002009518236062677 -0.00035294647134653416 -0.0004531712126394672 -0.00035294647134653416 0.0001612025703009531 0.00012205889656154997 -0.0004531712126394672 0.00012205889656154997 -0.00010309748469587029" free_energy=-1952.1757378152129 pbc="T T T"
Si       2.24392759       1.09333806       0.48992804       0.01068929      -0.08306857       0.00211637
Si       2.18541932      -1.48485746      16.40373937      -0.01731548       0.00516299       0.03579780
Si       1.16514664       4.72534797      14.00271343       0.01799768      -0.04431958       0.01310920
Si       0.43525673       4.09181953       9.59744139       0.05365742       0.03902576      -0.00783019
Si       2.01273008       3.37894706      -0.62612001      -0.00072504       0.01099548      -0.04654534
Si      -0.05162964       2.13199172       5.78412246       0.03842537      -0.01724539       0.04031727
Si       0.92318590       3.66430474       7.36966638      -0.02119936      -0.01868458      -0.08966758
Si       0.22339625       5.92733090       2.55205617      -0.03887245      -0.05108624      -0.04759396
Si       2.70433814       1.21143335       3.04374639       0.01735039       0.05937981       0.06785847
Si       2.29170408       3.47812303       1.88435469      -0.01759518       0.06545299       0.02241435
Si       1.66084006       4.18238195       4.32424569       0.00299613       0.00018554      -0.03290966
Si       1.62763640       4.53455228      11.61720275      -0.04540877       0.03420179       0.04293327
12
Lattice="2.536998457636733 0.08130244250958517 -0.41737172576118386 0.13398420090593982 7.233705860788658 -0.20517549906831145 -0.1810997487859083 -0.13395571701908254 16.583487517030882" Properties=species:S:1:pos:R:3:forces:R:3 unique_starting_index=344 config_type=initial n_minim_iter=10 energy=-1952.1778135348466 stress="-6.566894879005795e-05 -0.00018959475899765372 2.4956923703542626e-05 -0.00018959475899765372 0.00017912502126422224 0.00030178065623101086 2.4956923703542626e-05 0.00030178065623101086 -0.00022438191695906587" free_energy=-1952.1778135348466 pbc="T T T"
Si       2.25005307       1.08946977       0.49853636       0.00761812      -0.07409433      -0.00058555
Si       2.19853554      -1.47049398      16.39748615      -0.00500016       0.01099983       0.04583808
Si       1.18229839       4.73067457      14.00112222      -0.01494830      -0.03896726       0.02589165
Si       0.45077270       4.11226901       9.60266830       0.01719780       0.01735796      -0.01466230
Si       2.01427882       3.37507538      -0.62189345       0.01275811       0.00392256      -0.03711567
Si      -0.03756798       2.13744637       5.78741134       0.04079495      -0.02258873       0.06301968
Si       0.93702409       3.66530876       7.37717310      -0.00701403      -0.00412467      -0.10360374
Si       0.22435731       5.92753878       2.55407346      -0.03817648      -0.04279371      -0.04356581
Si       2.71636991       1.21865418       3.05059390      -0.00045317       0.04992680       0.06142741
Si       2.29079258       3.48159200       1.89098823      -0.01953200       0.06749758       0.00882474
Si       1.66919217       4.18806644       4.33329641       0.00739288      -0.00768147      -0.04414039
Si       1.64045459       4.54787031      11.62132240      -0.00063772       0.04054544       0.03867190
12
Lattice="2.5370037913088397 0.08417348099020851 -0.41650517256011027 0.1426307442453447 7.226382944108864 -0.20331062971174832 -0.175193473331459 -0.12967556244028805 16.587188197891066" Properties=species:S:1:pos:R:3:forces:R:3 unique_starting_index=344 config_type=initial n_minim_iter=11 energy=-1952.1800058865003 stress="9.382404935421008e-06 -3.053743724300194e-05 7.776705687473125e-05 -3.053743724300194e-05 3.205567176883669e-05 0.0002099362401357158 7.776705687473125e-05 0.0002099362401357158 -6.884490028241672e-05" free_energy=-1952.1800058865003 pbc="T T T"
Si       2.25547336       1.08376008       0.50415025       0.00452470      -0.03480195       0.00383730
Si       2.19947929      -1.46635226      16.39851655       0.00720801       0.00532265       0.04127144
Si       1.19190653       4.72329783      14.00128440      -0.04964039      -0.03381165       0.03277014
Si       0.46301684       4.12327722       9.60731807      -0.04001020      -0.00697799      -0.04124749
Si       2.01733012       3.37213371      -0.62343954       0.02127265      -0.01987011      -0.01538077
Si      -0.02576893       2.13692596       5.79265758       0.02772925      -0.02682514       0.06091602
Si       0.94589299       3.65983536       7.37916117       0.02336189       0.03309200      -0.06295331
Si       0.22548415       5.92126672       2.55087842      -0.03078442      -0.01542076      -0.02610731
Si       2.72546551       1.22598367       3.05756290      -0.01028442       0.02605535       0.03157078
Si       2.28954979       3.48541526       1.89453667      -0.02407112       0.04797016      -0.01096879
Si       1.67596897       4.18921897       4.33749448       0.00523743      -0.01940038      -0.03944245
Si       1.64578493       4.55199587      11.62622882       0.06545662       0.04466783       0.02573445
12
Lattice="2.5369051277111803 0.0859932022373224 -0.41628455512954543 0.1475567248511803 7.223170927872325 -0.20539287965066036 -0.17354801252625102 -0.13445851432450928 16.58837347905976" Properties=species:S:1:pos:R:3:forces:R:3 unique_starting_index=344 config_type=initial n_minim_iter=12 energy=-1952.1809923880176 stress="1.704166569314842e-05 6.068779550930616e-05 6.946411410008487e-05 6.068779550930616e-05 -5.729182727356011e-05 1.945817700380346e-05 6.946411410008487e-05 1.945817700380346e-05 1.3785767119091368e-05" free_energy=-1952.1809923880176 pbc="T T T"
Si       2.25739101       1.08088018       0.50521536       0.00411374      -0.00422149       0.00923737
Si       2.19928478      -1.46981336      16.40109372       0.01127304      -0.00582727       0.02781894
Si       1.19571960       4.71461322      14.00087276      -0.05770997      -0.02987089       0.02878549
Si       0.46838005       4.12245660       9.60652776      -0.05332898      -0.01222520      -0.04814711
Si       2.01955054       3.37169739      -0.62625054       0.02186797      -0.03569601      -0.00081873
Si      -0.02068667       2.13364064       5.79509199       0.01739923      -0.02305457       0.04394179
Si       0.94941712       3.65579260       7.37549749       0.03618381       0.05444860      -0.02346763
Si       0.22685439       5.91619138       2.54663875      -0.02476815       0.00614652      -0.01023926
Si       2.72820512       1.22908686       3.06064671      -0.01112021       0.00797600       0.00804448
Si       2.28974050       3.48785079       1.89449815      -0.02838016       0.02752043      -0.02166673
Si       1.67931359       4.18748811       4.33584184       0.00458160      -0.02706749      -0.02678913
Si       1.64896186       4.54991652      11.62729317       0.07988808       0.04187139       0.01330054
12
Lattice="2.53674509665057 0.08813863183150049 -0.4163309841370331 0.15354802361849565 7.218667101350222 -0.207023300055838 -0.1736930691199349 -0.13816688897502538 16.58960503478973" Properties=species:S:1:pos:R:3:forces:R:3 unique_starting_index=344 config_type=initial n_minim_iter=13 energy=-1952.1821430156494 stress="2.999295963672432e-05 0.00015124125124144392 -3.261658583424595e-05 0.00015124125124144392 -0.00011601441222228283 -0.0002722787904814459 -3.261658583424595e-05 -0.0002722787904814459 0.00014682076468268605" free_energy=-1952.1821430156494 pbc="T T T"
Si       2.26030190       1.07566852       0.50730020       0.00282982       0.03885710       0.01762719
Si       2.19685523      -1.47261072      16.40478670       0.01062476      -0.02531166      -0.00100850
Si       1.19580196       4.70275229      14.00157616      -0.03888029      -0.01769242       0.01137942
Si       0.47214870       4.12351876       9.60378869      -0.02196475      -0.01050080      -0.04384767
Si       2.02312355       3.36905266      -0.63031724       0.01876542      -0.05667943       0.01888475
Si      -0.01331231       2.12912953       5.80095356       0.00067845      -0.01095135       0.00312094
Si       0.95440793       3.65337743       7.36932483       0.03542650       0.08166948       0.04064430
Si       0.22586197       5.90954322       2.54067862      -0.01242851       0.04250995       0.02231455
Si       2.73142654       1.23451030       3.06563677      -0.01208894      -0.02023366      -0.02651818
Si       2.28743133       3.49302519       1.89391735      -0.03276233      -0.00864049      -0.03265021
Si       1.68299418       4.18457252       4.33275929       0.00683350      -0.04290717      -0.00309316
Si       1.65398460       4.55117079      11.62985442       0.04296636       0.02988047      -0.00685344
12
Lattice="2.5368131305776678 0.08471180455783017 -0.41588417683439394 0.14572815966664088 7.217273169747946 -0.19510706652781887 -0.1717549800278539 -0.11079097943204927 16.587157792500182" Properties=species:S:1:pos:R:3:forces:R:3 unique_starting_index=344 config_type=initial n_minim_iter=14 energy=-1952.1837668948858 stress="4.801585366391534e-05 -3.5466056453508157e-06 -1.8009421091279596e-05 -3.5466056453508157e-06 0.00013861162062021743 4.826929027344208e-05 -1.8009421091279596e-05 4.826929027344208e-05 4.870009944866439e-05" free_energy=-1952.1837668948858 pbc="T T T"
Si       2.26231679       1.07213119       0.51402931      -0.00210613      -0.00011085       0.00973974
Si       2.19912397      -1.45253367      16.39829005      -0.00507730      -0.01233686       0.00088087
Si       1.18525602       4.71685179      14.00562950       0.02905460      -0.00215615      -0.00314669
Si       0.46465863       4.14484499       9.60474729       0.08802770       0.00393996      -0.00688516
Si       2.02148391       3.35844642      -0.62412674       0.01536057      -0.03529545      -0.00169445
Si      -0.00999036       2.13699978       5.80780048       0.01021153       0.00293826      -0.00188097
Si       0.95771020       3.66824150       7.37749356      -0.01750869       0.05525383       0.00701429
Si       0.21358096       5.91652300       2.54826463      -0.00819387       0.03399141       0.03031615
Si       2.73358793       1.23733549       3.06854326      -0.02347851      -0.01137438      -0.00442229
Si       2.27672683       3.49560477       1.89695497      -0.02133627       0.00086030      -0.01649753
Si       1.67991719       4.18695015       4.33947330       0.01789673      -0.05087941      -0.00986285
Si       1.65644196       4.57404720      11.63549959      -0.08285037       0.01516935      -0.00356110
12
Lattice="2.5363401720154664 0.08210193544551633 -0.41454990687367094 0.1394694087139566 7.206653012734886 -0.18896269851422792 -0.16332104763924557 -0.09644416410447562 16.58670411773875" Properties=species:S:1:pos:R:3:forces:R:3 unique_starting_index=344 config_type=initial n_minim_iter=15 energy=-1952.1853659319816 stress="-0.00021842237297961807 -8.361761404773449e-05 3.2286571895258156e-05 -8.361761404773449e-05 -0.0002989784027138768 8.935356453310047e-05 3.2286571895258156e-05 8.935356453310047e-05 -0.0003754353836131401" free_energy=-1952.1853659319816 pbc="T T T"
Si       2.26513654       1.06412531       0.52195131      -0.00950093      -0.01226270       0.00291046
Si       2.20588797      -1.44439281      16.39580999      -0.00749284      -0.00811043      -0.00026273
Si       1.18449519       4.71211178      14.00687689       0.01869756       0.00713843      -0.00269872
Si       0.47118837       4.15681388       9.60478818       0.03328967       0.00194689       0.02112515
Si       2.02032439       3.34322042      -0.62199284       0.01397626      -0.02507871      -0.02206310
Si      -0.00114463       2.13777734       5.81444147       0.01168212       0.00653687      -0.00086515
Si       0.96212651       3.67370087       7.38201429       0.00158490       0.05171547      -0.01906126
Si       0.20148665       5.91403890       2.55139142      -0.00097029       0.02860980       0.03773630
Si       2.73700245       1.23819803       3.07397106      -0.03220538      -0.00629175       0.00506138
Si       2.26488658       3.49451170       1.89856011      -0.01273619      -0.00519394      -0.01291994
Si       1.68024774       4.17880044       4.34327634       0.01700647      -0.04757560      -0.00139904
Si       1.65470485       4.58346165      11.64013409      -0.03333137       0.00856569      -0.00756335
12
Lattice="2.5359641893145666 0.08062667789093726 -0.41393015016349655 0.13566557736728552 7.2033104601846665 -0.18665498652683452 -0.15905516629012056 -0.09100289511959865 16.588193841865124" Properties=species:S:1:pos:R:3:forces:R:3 unique_starting_index=344 config_type=initial n_minim_iter=16 energy=-1952.1865106637094 stress="-0.00012756258453556094 -3.0879096152675835e-05 3.888183338066407e-05 -3.0879096152675835e-05 -0.0002441518680056138 6.386559862781247e-05 3.888183338066407e-05 6.386559862781247e-05 -0.0002322717412330913" free_energy=-1952.1865106637094 pbc="T T T"
Si       2.26647478       1.05908919       0.52718925      -0.01314207      -0.02779207      -0.00356473
Si       2.20931651      -1.44415635      16.39807676      -0.01305121      -0.01028990      -0.00631463
Si       1.18258036       4.70718279      14.00978164       0.01241699       0.01658148      -0.00822864
Si       0.47739022       4.16322357       9.60286295      -0.02601216       0.01027763       0.05754351
Si       2.02156934       3.33183831      -0.62251550       0.00565124      -0.00858018      -0.04549625
Si       0.00535553       2.13720365       5.82057491       0.01755553       0.02247587      -0.00375334
Si       0.96506273       3.68376384       7.38288755       0.02114602       0.03361535      -0.04097660
Si       0.19251917       5.91657328       2.55415839       0.00474743       0.01326280       0.04315806
Si       2.73622352       1.23861286       3.07770178      -0.03074626      -0.00274253       0.01465031
Si       2.25501860       3.49638516       1.89696617      -0.00287645      -0.01147753      -0.00313537
Si       1.68153460       4.16986133       4.34300245       0.00767714      -0.03074928       0.00851052
Si       1.65186625       4.59174497      11.64392576       0.01663380      -0.00458163      -0.01239283
12
Lattice="2.535734909199529 0.07974763761215779 -0.4138656476046327 0.1327552847722138 7.206333802921568 -0.18843033963838493 -0.15818699289552401 -0.0950446652453836 16.58963903017594" Properties=species:S:1:pos:R:3:forces:R:3 unique_starting_index=344 config_type=initial n_minim_iter=17 energy=-1952.1871257419318 stress="9.061837710917356e-05 6.398896801115004e-05 -7.47140290644233e-05 6.398896801115004e-05 0.00014790861220317868 -5.8569469948104e-05 -7.47140290644233e-05 -5.8569469948104e-05 0.00021762753102847672" free_energy=-1952.1871257419318 pbc="T T T"