8
Lattice="5.020965879978702 0.35499436278560087 0.4229767745865739 -0.391042195260025 5.01828709492058 0.4229767745861779 -0.3910421952599606 -0.453826006658408 5.015591358410919" Properties=species:S:1:pos:R:3:forces:R:3 unique_starting_index=426 config_type=initial n_minim_iter=13 energy=-1302.317272653699 stress="8.667612896037436e-05 1.313740601946521e-05 1.5653246923089977e-05 1.313740601946521e-05 9.060287723677917e-05 1.8166458305147514e-05 1.5653246923089977e-05 1.8166458305147514e-05 9.700156227485266e-05" free_energy=-1302.317272653699 pbc="T T T"
Si       2.77179396       3.21177997       1.05104063      -0.00527372       0.00571805       0.00167509
Si       2.76680971       0.47730177       3.34962770       0.00643474       0.00240776      -0.00401384
Si       0.06310340       2.81200788       3.34539809       0.00143021      -0.00511854       0.00592192
Si      -0.85462265       4.48436982       1.81259395      -0.00023632       0.00618867      -0.00581782
Si       4.56143383       1.81675992       0.13473705       0.00615562      -0.00584776      -0.00033837
Si       1.12258987      -0.69634379       4.73078710      -0.00669337      -0.00123926       0.00508581
Si       2.57358895       2.98679174       3.55877069       0.00218744       0.00253865       0.00302480
Si       1.22790322       1.42504933       1.69795025      -0.00400460      -0.00464756      -0.00553758
