8
Lattice="6.604393063645709 0.8483357313726652 0.8007775523848957 1.2506302798701379 6.540153297540268 0.8007775523850471 1.2506302798702813 1.1763514502696204 6.483135592379574" Properties=species:S:1:pos:R:3:forces:R:3 unique_starting_index=114 config_type=initial n_minim_iter=1 energy=-1297.728460560344 stress="-1.4151096200758236e-06 -1.6130075190104576e-05 -1.5225823797306001e-05 -1.6130075190104576e-05 5.614240221791434e-07 -1.4321510112257157e-05 -1.5225823797306001e-05 -1.4321510112257157e-05 2.214839058595667e-06" free_energy=-1297.728460560344 pbc="T T T"
Si       4.81082792       6.84274978       1.98058777       0.00332601      -0.00115572       0.00241705
Si       2.66139986       4.65678956       6.71723748       0.00254544       0.00317629      -0.00129309
Si       7.12414205       2.22990659       4.26194021      -0.00095016       0.00260842       0.00324554
Si       5.52927028       1.59817718       1.59070184       0.00742800      -0.00401068      -0.00445943
Si       2.01515014       5.41617371       1.50384998      -0.00422014       0.00770049      -0.00374702
Si       1.93332069       1.90047764       5.32050640      -0.00354892      -0.00401061       0.00790363
Si       1.31927587       1.24091996       1.17135329       0.00113949       0.00107181       0.00101172
Si       7.69387413       7.23691097       6.83120567      -0.00571972      -0.00538001      -0.00507840
