24
Lattice="9.459541200239324 -8.102260239901416e-16 -9.692433069524743e-20 8.606467495377064e-16 10.048212653069566 -1.3485775560094994e-16 7.470721978654358e-20 9.78558845216933e-17 7.291213861943187" Properties=species:S:1:pos:R:3:forces:R:3 unique_starting_index=102 config_type=initial n_minim_iter=1 energy=-3893.2260263099706 stress="0.0013503789653524709 -3.8992251813743864e-13 4.3318003896308984e-12 -3.8992251813743864e-13 0.00024012552266585845 4.753766261156479e-12 4.3318003896308984e-12 4.753766261156479e-12 -0.001027470711256845" free_energy=-3893.2260263099706 pbc="T T T"
Si       3.56055909       1.19028436       3.64628936      -0.08273796      -0.14287000      -0.12588539
Si       3.56055909       8.85792829       3.64492450      -0.08273796       0.14287000       0.12588539
Si       1.16921151       1.19028436       3.64492450       0.08273796      -0.14287000       0.12588539
Si       1.16921151       8.85792829       3.64628936       0.08273796       0.14287000      -0.12588539
Si       5.89898211       8.85792829       3.64492450       0.08273796       0.14287000       0.12588538
Si       5.89898211       1.19028436       3.64628936       0.08273796      -0.14287000      -0.12588538
Si       8.29032969       8.85792829       3.64628936      -0.08273796       0.14287000      -0.12588538
Si       8.29032969       1.19028436       3.64492450      -0.08273796      -0.14287000       0.12588539
Si       1.85821340       9.02918861       1.38619800      -0.20846552      -0.15532585      -0.05038021
Si       1.85821340       1.01902404       5.90501586      -0.20846552       0.15532585       0.05038021
Si       2.87155720       9.02918861       5.90501586       0.20846552      -0.15532584       0.05038021
Si       2.87155720       1.01902404       1.38619800       0.20846552       0.15532584      -0.05038021
Si       7.60132780       1.01902404       5.90501586       0.20846552       0.15532584       0.05038021
Si       7.60132780       9.02918861       1.38619800       0.20846552      -0.15532585      -0.05038021
Si       6.58798400       1.01902404       1.38619800      -0.20846552       0.15532584      -0.05038021
Si       6.58798400       9.02918861       5.90501586      -0.20846552      -0.15532584       0.05038021
Si       5.97495186       7.00799425       6.75069475       0.00100811      -0.14138283       0.73279900
Si       5.97495186       3.04021840       0.54051911       0.00100811       0.14138283      -0.73279900
Si       8.21435994       7.00799425       0.54051911      -0.00100811      -0.14138283      -0.73279900
Si       8.21435994       3.04021840       6.75069475      -0.00100811       0.14138283       0.73279900
Si       3.48458934       3.04021840       0.54051911      -0.00100811       0.14138283      -0.73279900
Si       3.48458934       7.00799425       6.75069475      -0.00100811      -0.14138283       0.73279900
Si       1.24518126       3.04021840       6.75069475       0.00100811       0.14138283       0.73279900
Si       1.24518126       7.00799425       0.54051911       0.00100811      -0.14138283      -0.73279900
24
Lattice="9.406632731921793 -8.056868963706368e-16 -9.661057322937716e-20 8.597973239108794e-16 10.03819588984606 -1.347555033248877e-16 7.485017596062845e-20 9.825087444733004e-17 7.322396520925896" Properties=species:S:1:pos:R:3:forces:R:3 unique_starting_index=102 config_type=initial n_minim_iter=2 energy=-3893.2467138857346 stress="-0.006154505890240171 3.236511033025436e-12 1.136237372448575e-13 3.236511033025436e-12 -0.0012847648216107901 -1.1101537355697074e-11 1.136237372448575e-13 -1.1101537355697074e-11 0.002306803221110451" free_energy=-3893.2467138857346 pbc="T T T"
Si       3.54015132       1.18824241       3.66112593      -0.14423614      -0.10288617      -0.16896247
Si       3.54015132       8.84995348       3.66127059      -0.14423614       0.10288617       0.16896247
Si       1.16316504       1.18824241       3.66127059       0.14423614      -0.10288617       0.16896247
Si       1.16316504       8.84995348       3.66112593       0.14423614       0.10288617      -0.16896247
Si       5.86648141       8.84995348       3.66127059       0.14423614       0.10288617       0.16896247
Si       5.86648141       1.18824241       3.66112593       0.14423614      -0.10288617      -0.16896247
Si       8.24346769       8.84995348       3.66112593      -0.14423614       0.10288617      -0.16896247
Si       8.24346769       1.18824241       3.66127059      -0.14423614      -0.10288617       0.16896247
Si       1.84657778       9.01925772       1.39182319      -0.20708693      -0.15256559       0.00271577
Si       1.84657778       1.01893817       5.93057333      -0.20708693       0.15256559      -0.00271577
Si       2.85673859       9.01925772       5.93057333       0.20708693      -0.15256559      -0.00271577
Si       2.85673859       1.01893817       1.39182319       0.20708693       0.15256559       0.00271577
Si       7.56005495       1.01893817       5.93057333       0.20708693       0.15256559      -0.00271577
Si       7.56005495       9.01925772       1.39182319       0.20708693      -0.15256559       0.00271577
Si       6.54989414       1.01893817       1.39182319      -0.20708693       0.15256559       0.00271577
Si       6.54989414       9.01925772       5.93057333      -0.20708693      -0.15256559      -0.00271577
Si       5.94153917       7.00016170       6.78397634       0.00372909      -0.10925337       0.72756107
Si       5.94153917       3.03803419       0.53842019       0.00372909       0.10925337      -0.72756108
Si       8.16840993       7.00016170       0.53842019      -0.00372909      -0.10925337      -0.72756108
Si       8.16840993       3.03803419       6.78397634      -0.00372909       0.10925337       0.72756108
Si       3.46509356       3.03803419       0.53842019      -0.00372910       0.10925337      -0.72756108
Si       3.46509356       7.00016170       6.78397634      -0.00372910      -0.10925337       0.72756108
Si       1.23822280       3.03803419       6.78397634       0.00372909       0.10925337       0.72756108
Si       1.23822280       7.00016170       0.53842019       0.00372909      -0.10925337      -0.72756108
24
Lattice="9.567200846659977 -8.18552749344905e-16 -1.0035807570142189e-19 8.6700783450089e-16 10.111363761905881 -1.356949982222974e-16 7.631019994956557e-20 1.0231403429317342e-16 7.622769156953394" Properties=species:S:1:pos:R:3:forces:R:3 unique_starting_index=102 config_type=initial n_minim_iter=3 energy=-3893.809355152326 stress="0.0062009476935477445 9.25807431349109e-13 3.0063109791529466e-13 9.25807431349109e-13 0.018826438185604758 1.5048427107526272e-12 3.0063109791529466e-13 1.5048427107526272e-12 0.01885197610145632" free_energy=-3893.809355152326 pbc="T T T"
Si       3.58511319       1.17504015       3.78862225       0.05946183       0.03613114      -0.36373266
Si       3.58511319       8.93632361       3.83414691       0.05946183      -0.03613114       0.36373266
Si       1.19848723       1.17504015       3.83414691      -0.05946183       0.03613114       0.36373266
Si       1.19848723       8.93632361       3.78862225      -0.05946183      -0.03613114      -0.36373266
Si       5.98208765       8.93632361       3.83414691      -0.05946183      -0.03613115       0.36373266
Si       5.98208765       1.17504015       3.78862225      -0.05946183       0.03613115      -0.36373266
Si       8.36871362       8.93632361       3.78862225       0.05946183      -0.03613115      -0.36373266
Si       8.36871362       1.17504015       3.83414691       0.05946183       0.03613115       0.36373266
Si       1.84420688       9.05990692       1.44222385       0.20916737       0.20792394       0.08953235
Si       1.84420688       1.05145685       6.18054530       0.20916737      -0.20792394      -0.08953235
Si       2.93939354       9.05990692       6.18054530      -0.20916738       0.20792394      -0.08953235
Si       2.93939354       1.05145685       1.44222385      -0.20916738      -0.20792394       0.08953235
Si       7.72299396       1.05145685       6.18054530      -0.20916738      -0.20792394      -0.08953235
Si       7.72299396       9.05990692       1.44222385      -0.20916737       0.20792394       0.08953235
Si       6.62780731       1.05145685       1.44222385       0.20916738      -0.20792394       0.08953235
Si       6.62780731       9.05990692       6.18054530       0.20916738       0.20792394      -0.08953235
Si       6.04321181       7.02930820       7.18564277      -0.12268070       0.19256470       0.87777920
Si       6.04321181       3.08205556       0.43712639      -0.12268070      -0.19256470      -0.87777920
Si       8.30758946       7.02930820       0.43712639       0.12268070       0.19256470      -0.87777920
Si       8.30758946       3.08205556       7.18564277       0.12268070      -0.19256470       0.87777920
Si       3.52398904       3.08205556       0.43712639       0.12268070      -0.19256470      -0.87777920
Si       3.52398904       7.02930820       7.18564277       0.12268070       0.19256470       0.87777920
Si       1.25961139       3.08205556       7.18564277      -0.12268070      -0.19256470       0.87777920
Si       1.25961139       7.02930820       0.43712639      -0.12268070       0.19256470      -0.87777920
24
Lattice="9.657671772659247 -8.305141797999544e-16 -1.0285332832085298e-19 8.45696626605995e-16 9.914763932670924 -1.3344334504547529e-16 7.60244186633143e-20 1.0324594779630442e-16 7.712681776356623" Properties=species:S:1:pos:R:3:forces:R:3 unique_starting_index=102 config_type=initial n_minim_iter=4 energy=-3894.3661646772293 stress="0.01132704133403869 -3.4605725731455446e-12 -8.390356346994928e-13 -3.4605725731455446e-12 0.010097248912637262 -2.7578842598187623e-12 -8.390356346994928e-13 -2.7578842598187623e-12 0.022047751708680976" free_energy=-3894.3661646772293 pbc="T T T"
Si       3.60372236       1.13114063       3.80987859       0.41186707       0.95392602      -0.58867978
Si       3.60372236       8.78362330       3.90280319       0.41186707      -0.95392602       0.58867978
Si       1.22511352       1.13114063       3.90280319      -0.41186707       0.95392602       0.58867978
Si       1.22511352       8.78362330       3.80987859      -0.41186707      -0.95392602      -0.58867978
Si       6.05394941       8.78362330       3.90280319      -0.41186707      -0.95392602       0.58867978
Si       6.05394941       1.13114063       3.80987859      -0.41186707       0.95392602      -0.58867978
Si       8.43255825       8.78362330       3.80987859       0.41186707      -0.95392602      -0.58867978
Si       8.43255825       1.13114063       3.90280319       0.41186707       0.95392602       0.58867978
Si       1.82834057       8.85989907       1.45277003       0.26227815       0.33349693       0.07819656
Si       1.82834057       1.05486486       6.25991175       0.26227815      -0.33349693      -0.07819656
Si       3.00049532       8.85989907       6.25991175      -0.26227815       0.33349693      -0.07819656
Si       3.00049532       1.05486486       1.45277003      -0.26227815      -0.33349693       0.07819656
Si       7.82933120       1.05486486       6.25991175      -0.26227815      -0.33349693      -0.07819656
Si       7.82933120       8.85989907       1.45277003      -0.26227815       0.33349693       0.07819656
Si       6.65717646       1.05486486       1.45277003       0.26227815      -0.33349693       0.07819656
Si       6.65717646       8.85989907       6.25991175       0.26227815       0.33349693      -0.07819656
Si       6.10036324       6.87186903       7.39536872      -0.53362094       0.44044628       0.64220792
Si       6.10036324       3.04289490       0.31731305      -0.53362094      -0.44044628      -0.64220792
Si       8.38614442       6.87186903       0.31731305       0.53362094       0.44044628      -0.64220792
Si       8.38614442       3.04289490       7.39536872       0.53362094      -0.44044628       0.64220792
Si       3.55730853       3.04289490       0.31731305       0.53362094      -0.44044628      -0.64220792
Si       3.55730853       6.87186903       7.39536872       0.53362094       0.44044628       0.64220792
Si       1.27152735       3.04289490       7.39536872      -0.53362094      -0.44044628       0.64220792
Si       1.27152735       6.87186903       0.31731305      -0.53362094       0.44044628      -0.64220792
24
Lattice="9.597175323003391 -8.2619769199634e-16 -1.0209200184433656e-19 8.497352803117733e-16 9.972220376495619 -1.3434658343916341e-16 7.516349486222054e-20 1.0188045620847208e-16 7.61880500655979" Properties=species:S:1:pos:R:3:forces:R:3 unique_starting_index=102 config_type=initial n_minim_iter=5 energy=-3894.58543166735 stress="0.000486712806940152 4.046253853778441e-12 -1.581651421594932e-12 4.046253853778441e-12 0.01636390387752476 -4.930602704649206e-13 -1.581651421594932e-12 -4.930602704649206e-13 0.010002011347420405" free_energy=-3894.58543166735 pbc="T T T"
Si       3.57709874       1.13326938       3.75473518       0.56646082       0.78103686      -0.59612580
Si       3.57709874       8.83895100       3.86406983       0.56646082      -0.78103686       0.59612580
Si       1.22148893       1.13326938       3.86406983      -0.56646082       0.78103686       0.59612580
Si       1.22148893       8.83895100       3.75473518      -0.56646082      -0.78103686      -0.59612580
Si       6.02007659       8.83895100       3.86406983      -0.56646082      -0.78103686       0.59612580
Si       6.02007659       1.13326938       3.75473518      -0.56646082       0.78103686      -0.59612580
Si       8.37568640       8.83895100       3.75473518       0.56646082      -0.78103686      -0.59612580
Si       8.37568640       1.13326938       3.86406983       0.56646082       0.78103686       0.59612580
Si       1.80604728       8.90364138       1.43300319       0.29898983       0.42992244      -0.18125322
Si       1.80604728       1.06857899       6.18580181       0.29898983      -0.42992244       0.18125322
Si       2.99254038       8.90364138       6.18580181      -0.29898983       0.42992244       0.18125322
Si       2.99254038       1.06857899       1.43300319      -0.29898983      -0.42992244      -0.18125322
Si       7.79112804       1.06857899       6.18580181      -0.29898983      -0.42992244       0.18125322
Si       7.79112804       8.90364138       1.43300319      -0.29898983       0.42992244      -0.18125322
Si       6.60463495       1.06857899       1.43300319       0.29898983      -0.42992244      -0.18125322
Si       6.60463495       8.90364138       6.18580181       0.29898983       0.42992244       0.18125322
Si       6.06083251       6.90550202       7.34661787      -0.71022962       0.43504236       0.37262332
Si       6.06083251       3.06671836       0.27218714      -0.71022962      -0.43504236      -0.37262332
Si       8.33493047       6.90550202       0.27218714       0.71022962       0.43504236      -0.37262332
Si       8.33493047       3.06671836       7.34661787       0.71022962      -0.43504236       0.37262332
Si       3.53634281       3.06671836       0.27218714       0.71022962      -0.43504236      -0.37262332
Si       3.53634281       6.90550202       7.34661787       0.71022962       0.43504236       0.37262332
Si       1.26224485       3.06671836       7.34661787      -0.71022962      -0.43504236       0.37262332
Si       1.26224485       6.90550202       0.27218714      -0.71022962       0.43504236      -0.37262332
24
Lattice="9.657769835964764 -8.478813953208094e-16 -1.023278048323568e-19 8.021940149073741e-16 9.624667297871348 -1.3022420549367148e-16 7.436422763136579e-20 1.0010159375217499e-16 7.515018016810418" Properties=species:S:1:pos:R:3:forces:R:3 unique_starting_index=102 config_type=initial n_minim_iter=6 energy=-3895.036533706708 stress="0.005116117654288841 1.397986410916495e-12 1.476692092033347e-12 1.397986410916495e-12 -0.009592287624213821 6.287732148714476e-13 1.476692092033347e-12 6.287732148714476e-13 -0.009002442986995719" free_energy=-3895.036533706708 pbc="T T T"
Si       3.60141779       1.09888769       3.67962787       0.50666241       1.42333145      -0.50528649
Si       3.60141779       8.52577961       3.83539015       0.50666241      -1.42333145       0.50528649
Si       1.22746713       1.09888769       3.83539015      -0.50666241       1.42333145       0.50528649
Si       1.22746713       8.52577961       3.67962787      -0.50666241      -1.42333145      -0.50528649
Si       6.05635205       8.52577961       3.83539015      -0.50666241      -1.42333145       0.50528649
Si       6.05635205       1.09888769       3.67962787      -0.50666241       1.42333145      -0.50528649
Si       8.43030271       8.52577961       3.67962787       0.50666241      -1.42333145      -0.50528649
Si       8.43030271       1.09888769       3.83539015       0.50666241       1.42333145       0.50528649
Si       1.79919490       8.58389251       1.40539489       0.22718384       0.36611482      -0.34204018
Si       1.79919490       1.04077479       6.10962313       0.22718384      -0.36611482       0.34204018
Si       3.02969002       8.58389251       6.10962313      -0.22718384       0.36611482       0.34204018
Si       3.02969002       1.04077479       1.40539489      -0.22718384      -0.36611482      -0.34204018
Si       7.85857493       1.04077479       6.10962313      -0.22718384      -0.36611482       0.34204018
Si       7.85857493       8.58389251       1.40539489      -0.22718384       0.36611482      -0.34204018
Si       6.62807982       1.04077479       1.40539489       0.22718384      -0.36611482      -0.34204018
Si       6.62807982       8.58389251       6.10962313       0.22718384       0.36611482       0.34204018
Si       6.08501664       6.65850448       7.32305348      -0.43511401       0.20354685       0.31395758
Si       6.08501664       2.96616282       0.19196454      -0.43511401      -0.20354685      -0.31395758
Si       8.40163811       6.65850448       0.19196454       0.43511400       0.20354685      -0.31395758
Si       8.40163811       2.96616282       7.32305348       0.43511401      -0.20354685       0.31395758
Si       3.57275320       2.96616282       0.19196454       0.43511401      -0.20354685      -0.31395758
Si       3.57275320       6.65850448       7.32305348       0.43511401       0.20354685       0.31395758
Si       1.25613172       2.96616282       7.32305348      -0.43511401      -0.20354685       0.31395758
Si       1.25613172       6.65850448       0.19196454      -0.43511400       0.20354685      -0.31395758
24
Lattice="9.6564388647219 -8.862329072254054e-16 -1.0322059487023468e-19 7.519326661949878e-16 9.51939554580331 -1.2743835974841912e-16 7.471866756192761e-20 1.0246440803440986e-16 7.615506596473311" Properties=species:S:1:pos:R:3:forces:R:3 unique_starting_index=102 config_type=initial n_minim_iter=7 energy=-3895.570987229893 stress="0.006324359151647428 -2.6443530851150043e-12 5.392861715600132e-13 -2.6443530851150043e-12 -0.002448361716444326 1.7485592968050631e-12 5.392861715600132e-13 1.7485592968050631e-12 -0.006246571255753791" free_energy=-3895.570987229893 pbc="T T T"
Si       3.60619926       1.10769874       3.68657366       0.28474536       1.08623020      -0.57566091
Si       3.60619926       8.41169681       3.92893294       0.28474536      -1.08623020       0.57566091
Si       1.22202017       1.10769874       3.92893294      -0.28474536       1.08623020       0.57566091
Si       1.22202017       8.41169681       3.68657366      -0.28474536      -1.08623020      -0.57566091
Si       6.05023960       8.41169681       3.92893294      -0.28474536      -1.08623020       0.57566091
Si       6.05023960       1.10769874       3.68657366      -0.28474536       1.08623020      -0.57566091
Si       8.43441870       8.41169681       3.68657366       0.28474536      -1.08623020      -0.57566091
Si       8.43441870       1.10769874       3.92893294       0.28474536       1.08623020       0.57566091
Si       1.77782551       8.48182797       1.40860729       0.18423903       0.21785872      -0.48427545
Si       1.77782551       1.03756758       6.20689931       0.18423903      -0.21785872       0.48427546
Si       3.05039392       8.48182797       6.20689931      -0.18423904       0.21785872       0.48427545
Si       3.05039392       1.03756758       1.40860729      -0.18423904      -0.21785872      -0.48427545
Si       7.87861335       1.03756758       6.20689931      -0.18423903      -0.21785872       0.48427545
Si       7.87861335       8.48182797       1.40860729      -0.18423903       0.21785872      -0.48427545
Si       6.60604495       1.03756758       1.40860729       0.18423903      -0.21785872      -0.48427546
Si       6.60604495       8.48182797       6.20689931       0.18423903       0.21785872       0.48427545
Si       6.06343977       6.57794200       7.54420862       0.20443221       0.14474955      -0.10006597
Si       6.06343977       2.94145355       0.07129798       0.20443221      -0.14474955       0.10006597
Si       8.42121852       6.57794200       0.07129798      -0.20443221       0.14474955       0.10006597
Si       8.42121852       2.94145355       7.54420862      -0.20443221      -0.14474955      -0.10006597
Si       3.59299909       2.94145355       0.07129798      -0.20443220      -0.14474955       0.10006597
Si       3.59299909       6.57794200       7.54420862      -0.20443221       0.14474955      -0.10006597
Si       1.23522034       2.94145355       7.54420862       0.20443221      -0.14474955      -0.10006597
Si       1.23522034       6.57794200       0.07129798       0.20443221       0.14474955       0.10006597
24
Lattice="9.553200975184383 -9.135863260120511e-16 -1.0407666513583029e-19 7.000463373028895e-16 9.367203246954865 -1.255503435525173e-16 7.476150651473362e-20 1.0425535548564623e-16 7.757555572424026" Properties=species:S:1:pos:R:3:forces:R:3 unique_starting_index=102 config_type=initial n_minim_iter=8 energy=-3896.132192640203 stress="-0.009704765026528695 4.460487613455384e-12 -5.051118231419132e-13 4.460487613455384e-12 0.003535835442811698 5.931466897088289e-13 -5.051118231419132e-13 5.931466897088289e-13 -0.006057426750032732" free_energy=-3896.132192640203 pbc="T T T"
Si       3.58727569       1.14689319       3.70435467      -0.25028578       0.17846527      -0.66028781
Si       3.58727569       8.22031006       4.05320090      -0.25028578      -0.17846527       0.66028781
Si       1.18932480       1.14689319       4.05320090       0.25028578       0.17846527       0.66028781
Si       1.18932480       8.22031006       3.70435467       0.25028578      -0.17846527      -0.66028781
Si       5.96592529       8.22031006       4.05320090       0.25028578      -0.17846527       0.66028781
Si       5.96592529       1.14689319       3.70435467       0.25028578       0.17846527      -0.66028781
Si       8.36387617       8.22031006       3.70435467      -0.25028578      -0.17846527      -0.66028781
Si       8.36387617       1.14689319       4.05320090      -0.25028578       0.17846527       0.66028781
Si       1.76177496       8.35637748       1.40894325      -0.06705150      -0.09749184      -0.32312083
Si       1.76177496       1.01082577       6.34861233      -0.06705150       0.09749184       0.32312083
Si       3.01482553       8.35637748       6.34861233       0.06705150      -0.09749184       0.32312083
Si       3.01482553       1.01082577       1.40894325       0.06705150       0.09749184      -0.32312083
Si       7.79142602       1.01082577       6.34861233       0.06705150       0.09749184       0.32312084
Si       7.79142602       8.35637748       1.40894325       0.06705150      -0.09749184      -0.32312083
Si       6.53837545       1.01082577       1.40894325      -0.06705150       0.09749184      -0.32312083
Si       6.53837545       8.35637748       6.34861233      -0.06705150      -0.09749184       0.32312083
Si       5.98437977       6.48031704       7.74514340       0.52069809      -0.17359518      -0.24885891
Si       5.98437977       2.88688620       0.01241217       0.52069809       0.17359518       0.24885891
Si       8.34542169       6.48031704       0.01241217      -0.52069809      -0.17359518       0.24885891
Si       8.34542169       2.88688620       7.74514340      -0.52069809       0.17359518      -0.24885891
Si       3.56882120       2.88688620       0.01241217      -0.52069809       0.17359518       0.24885891
Si       3.56882120       6.48031704       7.74514340      -0.52069809      -0.17359518      -0.24885891
Si       1.20777929       2.88688620       7.74514340       0.52069809       0.17359518      -0.24885891
Si       1.20777929       6.48031704       0.01241217       0.52069809      -0.17359518       0.24885891
24
Lattice="9.595091567243445 -9.673667837377306e-16 -1.0823627025790368e-19 6.233679569294757e-16 9.136516589642087 -1.2252148932948617e-16 7.403936879336981e-20 1.0692622878075536e-16 7.960611593832665" Properties=species:S:1:pos:R:3:forces:R:3 unique_starting_index=102 config_type=initial n_minim_iter=9 energy=-3896.4756757550253 stress="-0.0014358254712740488 2.8442580088850268e-12 2.8964584220020223e-12 2.8442580088850268e-12 0.006853065911888526 -2.4403072007251552e-12 2.8964584220020223e-12 -2.4403072007251552e-12 -0.0013492845577073957" free_energy=-3896.4756757550253 pbc="T T T"
Si       3.60872178       1.16139847       3.73717661      -0.45374717      -0.08219831      -0.60315993
Si       3.60872178       7.97511812       4.22343498      -0.45374717       0.08219831       0.60315993
Si       1.18882401       1.16139847       4.22343498       0.45374716      -0.08219831       0.60315993
Si       1.18882401       7.97511812       3.73717661       0.45374717       0.08219831      -0.60315993
Si       5.98636979       7.97511812       4.22343498       0.45374717       0.08219831       0.60315993
Si       5.98636979       1.16139847       3.73717661       0.45374716      -0.08219831      -0.60315993
Si       8.40626756       7.97511812       3.73717661      -0.45374716       0.08219831      -0.60315993
Si       8.40626756       1.16139847       4.22343498      -0.45374716      -0.08219831       0.60315993
Si       1.75915110       8.14893994       1.41874292      -0.18525628      -0.36064205      -0.13191655
Si       1.75915110       0.98757665       6.54186867      -0.18525627       0.36064205       0.13191655
Si       3.03839469       8.14893994       6.54186867       0.18525628      -0.36064205       0.13191655
Si       3.03839469       0.98757665       1.41874292       0.18525628       0.36064205      -0.13191655
Si       7.83594047       0.98757665       6.54186867       0.18525627       0.36064205       0.13191655
Si       7.83594047       8.14893994       1.41874292       0.18525628      -0.36064205      -0.13191655
Si       6.55669688       0.98757665       1.41874292      -0.18525628       0.36064205      -0.13191655
Si       6.55669688       8.14893994       6.54186867      -0.18525627      -0.36064205       0.13191655
Si       6.00815875       6.31770054       8.03510340       0.58173238      -0.43406941      -0.38148389
Si       6.00815875       2.81881605      -0.07449181       0.58173238       0.43406941       0.38148389
Si       8.38447860       6.31770054      -0.07449181      -0.58173238      -0.43406941       0.38148389
Si       8.38447860       2.81881605       8.03510340      -0.58173238       0.43406941      -0.38148389
Si       3.58693282       2.81881605      -0.07449181      -0.58173238       0.43406941       0.38148389
Si       3.58693282       6.31770054       8.03510340      -0.58173238      -0.43406941      -0.38148389
Si       1.21061296       2.81881605       8.03510340       0.58173238       0.43406941      -0.38148389
Si       1.21061296       6.31770054      -0.07449181       0.58173238      -0.43406941       0.38148389
24
Lattice="9.627507368814584 -1.0752982438079123e-15 -1.1831295321153163e-19 4.627704939682467e-16 8.697838119903702 -1.1661375921927395e-16 7.01553265232351e-20 1.1135992139969773e-16 8.290331944891857" Properties=species:S:1:pos:R:3:forces:R:3 unique_starting_index=102 config_type=initial n_minim_iter=10 energy=-3896.921316421241 stress="0.009679114795259475 6.793279101386889e-13 -1.932053926480528e-12 6.793279101386889e-13 0.012797869736688646 -3.6393528808796105e-13 -1.932053926480528e-12 -3.6393528808796105e-13 0.013470544470598428" free_energy=-3896.921316421241 pbc="T T T"
Si       3.61543839       1.16556437       3.78068962      -0.40344482      -0.20198695      -0.33263450
Si       3.61543839       7.53227375       4.50964233      -0.40344482       0.20198695       0.33263450
Si       1.19831530       1.16556437       4.50964233       0.40344482      -0.20198694       0.33263450
Si       1.19831530       7.53227375       3.78068962       0.40344482       0.20198695      -0.33263450
Si       6.01206898       7.53227375       4.50964233       0.40344482       0.20198695       0.33263450
Si       6.01206898       1.16556437       3.78068962       0.40344482      -0.20198695      -0.33263450
Si       8.42919207       7.53227375       3.78068962      -0.40344482       0.20198694      -0.33263450
Si       8.42919207       1.16556437       4.50964233      -0.40344482      -0.20198695       0.33263450
Si       1.74687894       7.74763462       1.43739847      -0.42219050      -0.51601278       0.26414684
Si       1.74687894       0.95020350       6.85293347      -0.42219050       0.51601278      -0.26414684
Si       3.06687475       7.74763462       6.85293347       0.42219050      -0.51601278      -0.26414684
Si       3.06687475       0.95020350       1.43739847       0.42219050       0.51601278       0.26414684
Si       7.88062843       0.95020350       6.85293347       0.42219050       0.51601278      -0.26414684