24
Lattice="6.850186534661973 0.5831097031719075 0.04540870850873041 2.156258683455997 9.150146258382106 2.4475345420095005 3.408494883596935 5.27500365371404 9.420473759896751" Properties=species:S:1:pos:R:3:forces:R:3 unique_starting_index=216 config_type=initial n_minim_iter=19 energy=-3910.695502265498 stress="4.382194712859709e-05 -1.6990409672154678e-05 2.979164734452986e-06 -1.6990409672154678e-05 -1.0839347405012746e-05 2.8910750231325346e-05 2.979164734452986e-06 2.8910750231325346e-05 2.889482556227345e-06" free_energy=-3910.695502265498 pbc="T T T"
Si       8.40668178       7.25967108       4.40546835      -0.00000213       0.00032429      -0.00282766
Si       5.19267196       8.04520901       6.30440878      -0.00244571       0.00000860      -0.00042145
Si       8.53298200      10.57542885       4.71558634      -0.00234458      -0.00128571      -0.00376125
Si       3.59602335       6.03535048       8.58710782      -0.00001547       0.00443224      -0.00195546
Si       2.86900959       8.43137088       3.40368869       0.00053533       0.00373339       0.00048394
Si       8.20327176       6.21661022       8.23579975      -0.00091313      -0.00044497       0.00355572
Si       6.59653894       6.89611494       2.95127564       0.00167815      -0.00086749       0.00106252
Si       7.53656120       7.83911106       6.60212472      -0.00148749      -0.00046293       0.00467772
Si       6.20985695       4.15871817       6.13811363      -0.00400691       0.00273322       0.00224659
Si       9.50544207       3.18869630       5.94187566      -0.00043786      -0.00087255       0.00122729
Si       5.12036179       8.37727010       4.00378231       0.00172424      -0.00157913       0.00056406
Si       3.85295724       9.62899318       7.57682854      -0.00201823       0.00055852      -0.00318932
Si       4.52425011       5.76660654       6.47015904       0.00865897      -0.00069310       0.00211527
Si       8.38426395      10.01983182       6.94968696      -0.00078388      -0.00154090      -0.00148668
Si       7.13560451      11.29411972       8.53820695       0.00235183      -0.00299245       0.00103519
Si      10.20282410      13.09102140      10.11076230      -0.00303389      -0.00315887       0.00129553
Si       0.75055812       2.89002049       2.03253309       0.00246084       0.00331836      -0.00226689
Si       2.97211399       4.86832579       4.87703994      -0.00134594       0.00143644      -0.00199051
Si       6.49814164       4.66077543       3.74114835      -0.00008138       0.00094175       0.00176575
Si       6.43117428      10.25111148       3.56658474      -0.00438686      -0.00126637       0.00086391
Si       4.29712038       4.50445314       3.01962056       0.00067797      -0.00403038       0.00182843
Si       7.82457892       9.69186374      10.06439765       0.00613983       0.00649306       0.00078389
Si       6.58661932       3.60600321      -0.00037780      -0.00077870      -0.00276611      -0.00349872
Si       3.07537293       2.91239837       1.80629482      -0.00014499      -0.00201891      -0.00210786
