22
Lattice="5.564949216706014 1.0896737268671655 -0.30171096093433863 3.9384631370872123 6.260745811748516 -0.8243187758151236 0.6263265451441471 -1.2133202049110299 13.058216955940921" Properties=species:S:1:pos:R:3:forces:R:3 unique_starting_index=40 config_type=initial n_minim_iter=1 energy=-3581.927484947392 stress="-0.0008696205281411966 -0.0004329668558834775 -0.0003603228838623952 -0.0004329668558834775 -0.00016400732771196044 0.0005040208308949214 -0.0003603228838623952 0.0005040208308949214 -0.0015873553281394576" free_energy=-3581.927484947392 pbc="T T T"
Si       7.16046240       2.49927311      10.06505489       0.11440367       0.08195557       0.12698636
Si       1.35388778       2.08322975       3.74065638       0.02262051       0.05830951       0.07412661
Si       4.80834236       1.31006844       5.59580888      -0.19265907       0.11689588      -0.03805181
Si       3.66432058       2.35182099       9.33574449       0.06461829       0.01117967       0.02749683
Si       3.77814093       0.72716324      11.44530511       0.01308465      -0.07242309       0.08422570
Si       8.15240343       5.06627009       4.43656499       0.04219483      -0.06132264       0.03179275
Si       6.84182626       2.94127504       1.09121394       0.04871674       0.12844434      -0.14359593
Si       5.61741363       4.06797153       6.89170417       0.13257071       0.00272809      -0.13138799
Si       4.80957151       3.90873758       0.20666071       0.21186659      -0.06115415       0.26426060
Si       5.96592499       4.06739510      11.44826947       0.05645581       0.02872702      -0.10685679
Si       5.84376583       1.96632466       8.15011882      -0.03506620      -0.09213803       0.05142218
Si       3.97596381       4.69272019       8.42111351       0.02015283       0.01142071       0.15889578
Si       2.51389168       3.47700404       0.14066464      -0.01628181      -0.00359697      -0.02353732
Si       1.49690186      -0.12618499       6.43807496      -0.06208779      -0.11803618       0.02862472
Si       3.61183145      -0.80130632      13.36970012      -0.02758546       0.03307727      -0.03944185
Si       7.87083290       4.77332645       6.81929816      -0.28677282      -0.06103031      -0.18942335
Si       4.53204381       2.90630996       3.71764179      -0.07323394       0.03066919      -0.11606027
Si       6.29968557       6.20928677       3.24791562       0.05517223       0.04580058       0.01977275
Si       4.52147423       4.94827144       2.27615632      -0.04512082      -0.01386218      -0.09027975
Si       3.11072223       1.41738649       7.23266028      -0.02008500       0.00404170      -0.05119723
Si       6.12824881       0.52614252      11.03077688      -0.06582924      -0.09350726      -0.05826516
Si       4.03384767       0.86571934       2.47584004       0.04286527       0.02382128       0.12049317
22
Lattice="5.5727211639106535 1.0937662325559168 -0.30025035875710815 3.9471838256989 6.265448869529951 -0.8288684145064145 0.633388436796978 -1.2230471781381413 13.090448877866438" Properties=species:S:1:pos:R:3:forces:R:3 unique_starting_index=40 config_type=initial n_minim_iter=2 energy=-3581.929911204903 stress="0.0015538584935677754 8.826664217048543e-05 -3.431151867427168e-05 8.826664217048543e-05 0.0012312370389155035 0.00013435999381421977 -3.431151867427168e-05 0.00013435999381421977 0.00121250914903478" free_energy=-3581.929911204903 pbc="T T T"
Si       7.17723458       2.49724503      10.09138900       0.10610211       0.05513855       0.09510401
Si       1.35909399       2.08201903       3.74897175       0.00651884       0.05293726       0.04033114
Si       4.81772201       1.30972536       5.61054329      -0.17960682       0.11586900      -0.03397536
Si       3.67587396       2.34777852       9.35820012       0.05454440       0.00011775      -0.00119003
Si       3.78973302       0.72089112      11.47426534       0.01224975      -0.07275990       0.09343685
Si       8.16881924       5.06921106       4.44778648       0.02864738      -0.05596214       0.04028387
Si       6.85338858       2.94608380       1.09472891       0.06335304       0.14277279      -0.11022259
Si       5.63155423       4.06742216       6.90751967       0.12657617       0.01059188      -0.12109194
Si       4.81925968       3.91241927       0.20779805       0.20014372      -0.04364362       0.23844361
Si       5.98268440       4.06373723      11.47517622       0.04577220       0.02871920      -0.06369750
Si       5.85688596       1.96409922       8.17131624      -0.01912498      -0.08322919       0.07031463
Si       3.98877517       4.69014272       8.44030114       0.01388211      -0.00729739       0.14510614
Si       2.51941989       3.47936286       0.13964460       0.00320270      -0.00344233      -0.00349020
Si       1.50199742      -0.13054261       6.45435912      -0.07349101      -0.11115452       0.03961677
Si       3.62310194      -0.80911161      13.40381923      -0.02430637       0.02830712      -0.03805510
Si       7.88673291       4.77421998       6.83540401      -0.26539510      -0.04390293      -0.19414917
Si       4.54153605       2.90726924       3.72627459      -0.06955177       0.02920098      -0.12175533
Si       6.31384249       6.21261000       3.25441264       0.05414275       0.03688498       0.01568045
Si       4.53160283       4.95064227       2.27992339      -0.03373620      -0.00415756      -0.09147825
Si       3.11949926       1.41431378       7.25023399      -0.01833296       0.00215791      -0.04075726
Si       6.14224231       0.52157332      11.05963145      -0.06355547      -0.09392648      -0.07167330
Si       4.04114383       0.86676489       2.48369044       0.03196550       0.01677864       0.11321856
22
Lattice="5.563696966554996 1.0969114403315154 -0.2961746650862075 3.945804219542638 6.25256944320227 -0.8371611780207479 0.6463621676184248 -1.2434230910535777 13.111137561111581" Properties=species:S:1:pos:R:3:forces:R:3 unique_starting_index=40 config_type=initial n_minim_iter=3 energy=-3581.9347935777164 stress="-0.0008726356370400035 0.0009847752617366556 0.0007297261487117301 0.0009847752617366556 -0.0014795932712039469 -0.0010743395228483654 0.0007297261487117301 -0.0010743395228483654 0.000706809310268077" free_energy=-3581.9347935777164 pbc="T T T"
Si       7.18067214       2.47933757      10.11034871       0.11503451       0.00237101       0.03712325
Si       1.36349683       2.07101924       3.75254335      -0.00566995       0.07728758      -0.00325531
Si       4.81446338       1.30200398       5.62074896      -0.14956790       0.12774028      -0.06275300
Si       3.68371430       2.32711812       9.37090254       0.03479112       0.00483537       0.00424885
Si       3.79746771       0.70003263      11.49412660      -0.01059574      -0.10129528       0.07843383
Si       8.16547110       5.05348543       4.45434691       0.01229374      -0.03141658       0.05408912
Si       6.84649943       2.94443585       1.09681567       0.07670247       0.12626890      -0.04146818
Si       5.63589063       4.04834441       6.91391462       0.08440655      -0.02923733      -0.12548632
Si       4.81813051       3.90469430       0.21007607       0.19393198      -0.02505054       0.12964435
Si       5.99061378       4.03675227      11.48873744       0.00153046       0.02754704       0.01512345
Si       5.85781354       1.94771598       8.18639556       0.00446797      -0.06949802       0.09450102
Si       3.99681306       4.66454041       8.44975857      -0.03063679      -0.03181150       0.10849558
Si       2.51868036       3.47137128       0.13602852       0.01870759       0.00864619       0.02532910
Si       1.50579961      -0.14242634       6.46556867      -0.08241716      -0.11302032       0.02736613
Si       3.63122944      -0.82773119      13.42708674       0.00051961       0.03266081      -0.02898427
Si       7.88179666       4.75466408       6.84204638      -0.19310820       0.02426257      -0.17675780
Si       4.53989937       2.89681978       3.72939478      -0.04988913       0.02771614      -0.12188822
Si       6.31383593       6.19527355       3.25476183       0.05499901       0.01399524       0.01609931
Si       4.53088653       4.93628094       2.27764566      -0.01166953       0.00953584      -0.04122328
Si       3.12371069       1.39976994       7.26032010      -0.02772190      -0.01665726      -0.01192217
Si       6.14399951       0.50423935      11.07981099      -0.03533956      -0.06085347      -0.05742114
Si       4.03840272       0.86403271       2.49186989      -0.00076916      -0.00402667       0.08070571
22
Lattice="5.563551969829084 1.0812664759351092 -0.3009779548982257 3.9304406594980166 6.245377878043431 -0.8330947809843662 0.6351966404748991 -1.2293632745488288 13.101246921031022" Properties=species:S:1:pos:R:3:forces:R:3 unique_starting_index=40 config_type=initial n_minim_iter=4 energy=-3581.948345358266 stress="-0.000276596757907513 -0.0007718592694332491 0.00016080635203509033 -0.0007718592694332491 -0.0006699717557425208 -0.0001214421895653163 0.00016080635203509033 -0.0001214421895653163 0.0005427620620354301" free_energy=-3581.948345358266 pbc="T T T"
Si       7.17103431       2.47625765      10.10420142       0.06807862       0.01755670       0.03581086
Si       1.35426141       2.07686346       3.75361044      -0.01050171       0.01648696      -0.05280659
Si       4.79746634       1.30254048       5.61140043      -0.05972508       0.11888521      -0.04479293
Si       3.67063546       2.33083650       9.36487798       0.04375313       0.00166439      -0.02466026
Si       3.78435692       0.70034718      11.48851247       0.00729608      -0.05627085       0.06636044
Si       8.15107448       5.03720546       4.45108727       0.01834809      -0.01319048      -0.00236145
Si       6.84314178       2.93527781       1.08677565       0.08874202       0.03368312       0.07049558
Si       5.62487006       4.04422573       6.90220806      -0.15381993      -0.08071978       0.01658410
Si       4.81928756       3.89195881       0.22075982       0.06856415       0.03416008      -0.01444649
Si       5.97043622       4.03914949      11.47750223      -0.01898993      -0.05339538       0.03302949
Si       5.84460635       1.93870185       8.18111428       0.01388207      -0.05390849       0.07189641
Si       3.97561292       4.66750202       8.45360821      -0.01909466      -0.14983175      -0.10663322
Si       2.50963130       3.46719517       0.13741252       0.11926529       0.06848697      -0.04505387
Si       1.49581406      -0.14440784       6.46160612      -0.13869684      -0.05587772      -0.01113777
Si       3.61898178      -0.81998685      13.41225426       0.02486923       0.02197181       0.04259371
Si       7.85083622       4.74310259       6.82552196       0.04160333       0.04782168      -0.06689603
Si       4.52598351       2.89245353       3.71960191      -0.02908782       0.07175367      -0.07266427
Si       6.29789681       6.18817874       3.25457525       0.01094261       0.03364943       0.02532890
Si       4.51441908       4.93009801       2.27355658      -0.01234480       0.04619933       0.01363842
Si       3.11166795       1.40118195       7.25248225      -0.05037036       0.02426932       0.01563035
Si       6.12984540       0.49682557      11.06380035      -0.00255967      -0.04608625       0.01945172
Si       4.03637091       0.85693412       2.49244069      -0.01015386      -0.02730797       0.03063291
22
Lattice="5.568171158382855 1.0939244001227524 -0.30306540178671365 3.9449135870477945 6.262873403318576 -0.8316223462040792 0.6260038314039251 -1.2256995678035738 13.076581123282633" Properties=species:S:1:pos:R:3:forces:R:3 unique_starting_index=40 config_type=initial n_minim_iter=5 energy=-3581.9506368806924 stress="0.00026657705722820356 0.0006000773899417126 8.721059339141046e-05 0.0006000773899417126 0.00010032620030953923 4.1006744165425055e-05 8.721059339141046e-05 4.1006744165425055e-05 -0.000744096913451818" free_energy=-3581.9506368806924 pbc="T T T"
Si       7.17530096       2.49854255      10.08406205       0.06382101      -0.02232898       0.03934925
Si       1.35696677       2.08492697       3.74679585      -0.01411592       0.01514027      -0.02549852
Si       4.79656904       1.31826347       5.59817654      -0.05064892       0.10363298      -0.04423285
Si       3.67271943       2.34503620       9.34650934       0.04662359       0.01238598      -0.02082492
Si       3.78130750       0.71147314      11.46723378       0.00589426      -0.05210073       0.05388210
Si       8.16255667       5.06220495       4.44067778       0.00646068      -0.01117333      -0.02985541
Si       6.85260413       2.95566609       1.08140839       0.11405956       0.03370491       0.05810088
Si       5.63169054       4.06350914       6.88662514      -0.15057886      -0.08724291       0.02066510
Si       4.83172081       3.90754966       0.22147566       0.01317714       0.03667582      -0.07210287
Si       5.97509093       4.06117704      11.45422141       0.00166620      -0.06414741       0.06413271
Si       5.84638257       1.95475366       8.16501203       0.01647509      -0.05397060       0.05854183
Si       3.98192486       4.68443906       8.43836111      -0.04516073      -0.17222594      -0.14063730
Si       2.51839727       3.47827870       0.13655290       0.13810062       0.07157144      -0.03302847
Si       1.49080799      -0.14123807       6.44924268      -0.11133389      -0.01464114       0.00117982
Si       3.61164165      -0.80912972      13.38546742       0.00253944       0.00576105       0.02459948
Si       7.85726989       4.76849613       6.80775108       0.05269503       0.05116082      -0.00904603
Si       4.53063362       2.90817973       3.70941154      -0.01488908       0.06687311      -0.06604214
Si       6.31175363       6.21229731       3.24768467      -0.00976017       0.01352893       0.01566189
Si       4.52438967       4.94798930       2.26780951       0.03323112       0.07125414       0.05793468
Si       3.11122821       1.41218287       7.23771867      -0.08219404       0.00273608       0.00442776
Si       6.12677498       0.51213133      11.03990437      -0.00112592      -0.00076527       0.01979349
Si       4.03866239       0.86709125       2.48747084      -0.01493621      -0.00582921       0.02299951
22
Lattice="5.549067354936645 1.0923271536526338 -0.31751907485200664 3.928803002453503 6.274444717072273 -0.8439536278133332 0.5930807754973524 -1.2296586498259707 13.11382605670489" Properties=species:S:1:pos:R:3:forces:R:3 unique_starting_index=40 config_type=initial n_minim_iter=6 energy=-3581.9573638449288 stress="-0.0020176197630959645 0.0001310845763129338 -0.0013387465281984035 0.0001310845763129338 0.002158741799769269 0.00020438779151831513 -0.0013387465281984035 0.00020438779151831513 0.0015497002041496497" free_energy=-3581.9573638449288 pbc="T T T"
Si       7.13226240       2.50026238      10.10210567       0.02996540      -0.05212337       0.03310044
Si       1.34138892       2.09164485       3.75405612       0.01942272      -0.02990786      -0.06222272
Si       4.75594461       1.32806549       5.59901016      -0.07217692       0.12121570      -0.03636138
Si       3.64034196       2.34787190       9.36427136       0.03037794       0.00842789      -0.05869427
Si       3.74072415       0.70378147      11.49859225      -0.03017894      -0.02085542       0.08684395
Si       8.12193994       5.06493153       4.43426993      -0.02228615       0.00732505      -0.04204567
Si       6.83236203       2.96424072       1.06727794       0.15254254       0.01141579       0.10477184
Si       5.58875778       4.06364844       6.88952452      -0.22449453      -0.11868675       0.06392337
Si       4.82141824       3.91321096       0.21611635      -0.02236921       0.14362318      -0.11389185
Si       5.92502894       4.06326473      11.47383223      -0.01587905      -0.13066158       0.09131000
Si       5.80523694       1.94833657       8.18108412       0.04362126      -0.05191047       0.04022638
Si       3.94281404       4.68259794       8.45177688      -0.00752570      -0.14200038      -0.10592617
Si       2.51408336       3.48832319       0.12828481       0.09200528       0.03408321      -0.02522503
Si       1.46066459      -0.14909633       6.46575762      -0.06336972       0.00482500       0.01372939
Si       3.56737169      -0.81248803      13.41681373       0.02230634       0.01428722       0.05428254
Si       7.80340922       4.77471022       6.79958871       0.12379030       0.02643594      -0.01019685
Si       4.50034061       2.91632256       3.70089223      -0.01249372       0.06618464      -0.03038763
Si       6.27969883       6.22438088       3.24345199      -0.01629185       0.04095340       0.03059359
Si       4.49923612       4.95911429       2.26240495       0.07889076       0.01382427       0.01939015
Si       3.07743411       1.41342620       7.25059060      -0.07872512       0.02723183      -0.00029222
Si       6.07640768       0.50376937      11.05641976       0.02799991       0.00850888      -0.04464874
Si       4.01857830       0.86567922       2.49060024      -0.05513153       0.01780383      -0.00827912
22
Lattice="5.569500120914102 1.0649584257076272 -0.31452105431224653 3.9200721474238907 6.233420500046655 -0.8437663572926497 0.6090634256069876 -1.2314377383011186 13.11995971942012" Properties=species:S:1:pos:R:3:forces:R:3 unique_starting_index=40 config_type=initial n_minim_iter=7 energy=-3581.971833677661 stress="0.0023389575138598718 -0.0015730983365675776 -6.936569865031882e-05 -0.0015730983365675776 0.0003246925341869073 0.0009053061175099924 -6.936569865031882e-05 0.0009053061175099924 0.00021397607597327997" free_energy=-3581.971833677661 pbc="T T T"
Si       7.18076994       2.46075292      10.12473932      -0.04175609      -0.09974701      -0.06162405
Si       1.34048819       2.08392966       3.75348473      -0.04117192      -0.07230557      -0.06034135
Si       4.74997210       1.32995102       5.59294046       0.13178470       0.12576463       0.03709500
Si       3.66503059       2.32207825       9.36650247      -0.02777344      -0.09735103      -0.05797764
Si       3.76322650       0.66632445      11.52346215       0.04080180       0.03250920      -0.04925353
Si       8.14473752       5.00302416       4.44006945      -0.06913264       0.09682678      -0.13722099
Si       6.87447924       2.94090311       1.07177596       0.06129791      -0.05674258       0.12438609
Si       5.58727901       4.00806296       6.88671061      -0.12438050      -0.16708642       0.07214600
Si       4.85098961       3.88035299       0.23027500      -0.08804413       0.10522292      -0.14889737
Si       5.94470458       4.01083837      11.48390028      -0.03773529      -0.02305319       0.03572171
Si       5.82963207       1.89746864       8.20384683       0.12216908      -0.01389471       0.07869661
Si       3.94225620       4.61873750       8.44952736      -0.00895650      -0.03255205      -0.04947745
Si       2.53129166       3.47449684       0.12233632       0.15476699       0.10030081      -0.01749787
Si       1.44655768      -0.17167444       6.47208257      -0.13086866       0.11318537      -0.03162307
Si       3.59548712      -0.82352880      13.42692266       0.05047715      -0.10130826       0.15069506
Si       7.80819673       4.72543629       6.78318277       0.06978077       0.00047623       0.12348009
Si       4.50153158       2.89856610       3.68267549       0.06666738       0.11724558       0.06638769
Si       6.28903688       6.17948635       3.25173406      -0.05111128       0.03354311       0.06314255
Si       4.50048153       4.92848663       2.26313152       0.04221414       0.07661729       0.01316127
Si       3.07698680       1.39475918       7.25284979      -0.12294344      -0.04572883      -0.00195375
Si       6.10357514       0.46213342      11.06098536       0.04840149      -0.04862273      -0.03536304
Si       4.03478558       0.84411237       2.50772260      -0.04448752      -0.04329955      -0.11368196
22
Lattice="5.560061940607734 1.0754820357035844 -0.31402104384928003 3.922253064689551 6.245880907554394 -0.8523410588933796 0.6113651658567636 -1.2517187052263081 13.129439246355757" Properties=species:S:1:pos:R:3:forces:R:3 unique_starting_index=40 config_type=initial n_minim_iter=8 energy=-3581.982799847578 stress="0.0006089894301345145 -0.0006228950700334785 0.00012072026799955463 -0.0006228950700334785 0.0007579412824297452 -0.00018351339652894223 0.00012072026799955463 -0.00018351339652894223 -7.060662324828825e-05" free_energy=-3581.982799847578 pbc="T T T"
Si       7.17593611       2.45656615      10.12937964      -0.02114061      -0.12810567      -0.06347535
Si       1.34210254       2.08130770       3.75075544      -0.02103542      -0.04939185      -0.01718716
Si       4.74544191       1.33464036       5.59502939       0.08139364       0.14270429       0.02329067
Si       3.66625535       2.31450673       9.36811495      -0.04468216      -0.08517281      -0.04649894
Si       3.76201509       0.65413835      11.53141857       0.01014814       0.00692961      -0.02844118
Si       8.13782533       5.01452545       4.43576037      -0.09052298       0.09687403      -0.10260973
Si       6.87020855       2.95272531       1.07468244       0.04956095      -0.00040540       0.04020094
Si       5.57921077       4.00482506       6.88843269       0.00896011      -0.14298127      -0.01864385
Si       4.84698607       3.89400919       0.22159785      -0.00469882       0.08145035      -0.08297601
Si       5.94347314       4.00340673      11.48939583      -0.03206674       0.02012491       0.02198708
Si       5.82689176       1.89430815       8.21053918       0.12684849      -0.02239559       0.07585737
Si       3.94432341       4.61050809       8.44406462      -0.02676985       0.03660364       0.08603413
Si       2.53753149       3.48411770       0.11706556       0.06341942       0.04542658       0.04126521
Si       1.44162603      -0.17847272       6.47613420      -0.07404339       0.06673831       0.00804057
Si       3.59371886      -0.83995883      13.44002696       0.04350192      -0.09242967       0.09303156
Si       7.80678028       4.73314239       6.78408495      -0.04651341      -0.02428961       0.06579097
Si       4.49945195       2.90570571       3.68127843       0.05463893       0.08229621       0.04436439
Si       6.28727041       6.19030279       3.24782206      -0.03384392       0.03589653       0.06092167
Si       4.50233113       4.93866276       2.26034939       0.05407035       0.03876580      -0.01013268
Si       3.07261463       1.38930420       7.25636322      -0.11629023      -0.05274695      -0.01993695
Si       6.09784077       0.45499770      11.06889422       0.05598951      -0.04763311      -0.07738461
Si       4.02783110       0.84676832       2.50832138      -0.03692393      -0.00825833      -0.09349811
22
Lattice="5.557464481978519 1.0833008632404142 -0.31741692794860077 3.9314518137833745 6.237707597858861 -0.8498110115628252 0.5990544454359222 -1.2329755589167692 13.153877106190613" Properties=species:S:1:pos:R:3:forces:R:3 unique_starting_index=40 config_type=initial n_minim_iter=9 energy=-3581.9871611903527 stress="-0.000362740115138261 0.0007026380143595914 -0.0005373005264561626 0.0007026380143595914 -0.0012817944425825853 0.0010915952254014277 -0.0005373005264561626 0.0010915952254014277 0.0006445254496625017" free_energy=-3581.9871611903527 pbc="T T T"
Si       7.16985486       2.47339743      10.14810323      -0.02855607      -0.12422678      -0.05924548
Si       1.34152695       2.08314895       3.75797868      -0.01181945      -0.00221475      -0.01507353
Si       4.73807644       1.35431825       5.60273346       0.03047403       0.15398186       0.05140073
Si       3.66205305       2.32533515       9.38512602      -0.06378512      -0.11570676      -0.06098561
Si       3.75208206       0.67032793      11.55487486       0.00830391       0.00489383      -0.01422588
Si       8.13606383       5.02431773       4.44201816      -0.10388731       0.09465876      -0.06713690
Si       6.87461101       2.96209686       1.07811558       0.04927942       0.01574219       0.02880943
Si       5.57182225       4.00774826       6.90261816       0.06115795      -0.11988489      -0.03918511
Si       4.85223205       3.89739860       0.22046021       0.00915805       0.07813908       0.01571155
Si       5.93710578       4.01608099      11.51504786       0.01849726       0.04031654      -0.00077990
Si       5.82240850       1.90721556       8.22920450       0.13688967      -0.03017403       0.08277987
Si       3.94202152       4.61103072       8.46086747      -0.01387308       0.09040446       0.14947970
Si       2.54804942       3.48431902       0.11867791       0.03225513      -0.00322404       0.06437625
Si       1.42913981      -0.16851202       6.48806257      -0.02888166       0.07123882       0.00729205
Si       3.58048904      -0.81709823      13.46628311       0.01439413      -0.09097266       0.06213156
Si       7.80401422       4.74586218       6.79634326      -0.11479713       0.00542517       0.02653054
Si       4.49833249       2.91588813       3.68624469       0.04250891       0.03418236       0.03200381
Si       6.29098385       6.19301383       3.25880189      -0.01949172      -0.00247708       0.04742284
Si       4.50794005       4.94104907       2.26809442       0.09180940       0.02076111      -0.07398902
Si       3.06249018       1.39943190       7.27002764      -0.07117584      -0.10458263      -0.03530176
Si       6.08611586       0.47608863      11.08588853       0.01519128      -0.03598377      -0.13126462
Si       4.02287842       0.85474902       2.51122592      -0.05365176       0.01970321      -0.07075053
22
Lattice="5.548919872295866 1.0885747587160652 -0.3164149765986717 3.9279332917371033 6.2485846407918775 -0.8705856298278468 0.6100305087314357 -1.2837334838519108 13.168588534928858" Properties=species:S:1:pos:R:3:forces:R:3 unique_starting_index=40 config_type=initial n_minim_iter=10 energy=-3581.9966468408397 stress="-0.0015224766584626872 0.0009763835553755194 -0.0001092486085687227 0.0009763835553755194 -0.00027158942777753966 -0.0013091512062650427 -0.0001092486085687227 -0.0013091512062650427 -0.0006366448682923111" free_energy=-3581.9966468408397 pbc="T T T"
Si       7.17876024       2.43477138      10.15651469      -0.01143297      -0.14915937      -0.05404693
Si       1.34236086       2.07287892       3.75007900       0.00687032       0.00442676       0.05273779
Si       4.72849490       1.36037548       5.60143258       0.02015818       0.19957772       0.05203097
Si       3.67042965       2.28975717       9.38140559      -0.09672199      -0.10620569      -0.04462344
Si       3.75873191       0.62127004      11.57225545      -0.01093858      -0.02474612      -0.01076775
Si       8.12713313       5.01877704       4.42773670      -0.13167315       0.11258648      -0.02495099
Si       6.88271641       2.97228806       1.08011066      -0.00933316       0.07215682      -0.09953721
Si       5.56006962       3.97127959       6.89469297       0.18546894      -0.09868923      -0.13460623
Si       4.85667125       3.91040354       0.20852385       0.11701900       0.01614386       0.04767812
Si       5.94044170       3.97431249      11.51865132       0.01290105       0.10416437      -0.04801689
Si       5.83031958       1.87096424       8.24682957       0.13844012      -0.03895660       0.05882123
Si       3.94198577       4.57046605       8.44987195      -0.05166391       0.13887273       0.24028184
Si       2.56281742       3.49736132       0.10616567      -0.07420315      -0.06918998       0.14959006
Si       1.41469866      -0.19547844       6.49587001       0.02756779      -0.00803721       0.06231074
Si       3.58984577      -0.86966068      13.48977717       0.02264951      -0.08860573      -0.02438719
Si       7.79473933       4.73188484       6.78397959      -0.20458429      -0.02759632      -0.00799649
Si       4.49488125       2.91906710       3.67311849       0.02836971       0.00242329       0.02382803
Si       6.28757422       6.19436600       3.24931514      -0.00509646       0.02758789       0.04460405
Si       4.51036406       4.94711254       2.25507638       0.05817492      -0.00296612      -0.06524621
Si       3.05160579       1.37227664       7.27120592      -0.06023061      -0.08565800      -0.06366530
Si       6.08784218       0.43088480      11.09222068       0.04703931      -0.03320499      -0.10219235
Si       4.01615033       0.84722752       2.51493929      -0.00878058       0.05507546      -0.05184586
22
Lattice="5.529851422311425 1.0886095629699877 -0.28259284194413803 3.909265358077503 6.256910834237495 -0.8442377675769211 0.688214752247952 -1.274857947160954 13.218607654836205" Properties=species:S:1:pos:R:3:forces:R:3 unique_starting_index=40 config_type=initial n_minim_iter=11 energy=-3582.012399489187 stress="-0.0028899842225316307 0.0007989488288345409 0.003332815031733192 0.0007989488288345409 0.0015098064435448096 0.0006582657089271709 0.003332815031733192 0.0006582657089271709 -0.00030749376390263667" free_energy=-3582.012399489187 pbc="T T T"
Si       7.23458515       2.43181512      10.24594026      -0.07809149      -0.12942960      -0.05781289
Si       1.35761016       2.08229724       3.76954753       0.06319308       0.04125541       0.08647634
Si       4.73177562       1.41499179       5.64547175       0.11335259       0.25273350       0.03395765
Si       3.71983292       2.28943380       9.42955239      -0.15794939      -0.13541300      -0.14673492
Si       3.81983520       0.61612526      11.65214550      -0.05299181       0.03687020       0.05332417
Si       8.11911210       5.03543359       4.48697420      -0.17733809       0.09658682       0.00273818