16
Lattice="4.8256987696605735 -5.625990433003015e-32 -3.069589891488727e-16 -3.137877444613829e-32 9.600475620656944 -2.252894939146865e-15 4.3859664772075703e-16 1.61805526558917e-15 6.895172899650144" Properties=species:S:1:pos:R:3:forces:R:3 unique_starting_index=98 config_type=initial n_minim_iter=1 energy=-2599.6074375215094 stress="-0.00042523308884747773 -2.1089191857689656e-12 -3.994466308368715e-12 -2.1089191857689656e-12 0.0021070221217390577 1.772203034131049e-12 -3.994466308368715e-12 1.772203034131049e-12 -0.0021512220778684334" free_energy=-2599.6074375215094 pbc="T T T"
Si       1.58419821       6.00932658       1.06877848      -0.31582440      -0.35155718      -0.44614826
Si       3.24150056       1.20908877       5.82639442       0.31582440      -0.35155718       0.44614826
Si       3.99704760       8.39138685       5.82639442      -0.31582440       0.35155718       0.44614826
Si       0.82865117       3.59114904       1.06877848       0.31582440       0.35155718      -0.44614826
Si       3.24150056       3.59114904       5.82639442       0.31582440       0.35155718       0.44614826
Si       1.58419821       8.39138685       1.06877848      -0.31582440       0.35155718      -0.44614826
Si       0.82865117       1.20908877       1.06877848       0.31582440      -0.35155718      -0.44614826
Si       3.99704760       6.00932658       5.82639442      -0.31582440      -0.35155718       0.44614826
Si       1.86901362       5.99868990       3.44734241       0.03898768      -0.13679551      -0.08002463
Si       2.95668515       1.19845209       3.44783049      -0.03898768      -0.13679551       0.08002463
Si       4.28186300       8.40202353       3.44783049       0.03898768       0.13679551       0.08002463
Si       0.54383577       3.60178572       3.44734241      -0.03898768       0.13679551      -0.08002463
Si       2.95668515       3.60178572       3.44783049      -0.03898768       0.13679551       0.08002463
Si       1.86901362       8.40202353       3.44734241       0.03898768       0.13679551      -0.08002463
Si       0.54383577       1.19845209       3.44734241      -0.03898768      -0.13679551      -0.08002463
Si       4.28186300       5.99868990       3.44783049       0.03898768      -0.13679551       0.08002463
16
Lattice="4.835072420969078 -5.600976588748225e-32 -3.0473156435952776e-16 -3.2656473920672146e-32 9.50860521587574 -2.2466656741354624e-15 4.469582134316956e-16 1.6230083575172435e-15 6.963197186338388" Properties=species:S:1:pos:R:3:forces:R:3 unique_starting_index=98 config_type=initial n_minim_iter=2 energy=-2599.6336636765786 stress="-0.0022292754728598413 -3.0460086187977976e-12 -1.4444929718737326e-12 -3.0460086187977976e-12 -0.013660330096021984 2.0003160249969306e-12 -1.4444929718737326e-12 2.0003160249969306e-12 0.004658626457378206" free_energy=-2599.6336636765786 pbc="T T T"
Si       1.58275489       5.94684699       1.07288608      -0.25532970      -0.30676748      -0.26301425
Si       3.25231753       1.19254438       5.89031110       0.25532970      -0.30676748       0.26301425
Si       4.00029110       8.31606084       5.89031110      -0.25532970       0.30676748       0.26301425
Si       0.83478132       3.56175823       1.07288608       0.25532970       0.30676748      -0.26301425
Si       3.25231753       3.56175823       5.89031110       0.25532970       0.30676748       0.26301425
Si       1.58275489       8.31606084       1.07288608      -0.25532970       0.30676748      -0.26301425
Si       0.83478132       1.19254438       1.07288608       0.25532970      -0.30676748      -0.26301425
Si       4.00029110       5.94684699       5.89031110      -0.25532970      -0.30676748       0.26301425
Si       1.87320212       5.93935076       3.48019765       0.00193792      -0.19296456      -0.24569426
Si       2.96187030       1.18504815       3.48299953      -0.00193792      -0.19296456       0.24569426
Si       4.29073833       8.32355707       3.48299953       0.00193792       0.19296456       0.24569426
Si       0.54433409       3.56925446       3.48019765      -0.00193792       0.19296456      -0.24569426
Si       2.96187030       3.56925446       3.48299953      -0.00193792       0.19296456       0.24569426
Si       1.87320212       8.32355707       3.48019765       0.00193792       0.19296456      -0.24569426
Si       0.54433409       1.18504815       3.48019765      -0.00193792      -0.19296456      -0.24569426
Si       4.29073833       5.93935076       3.48299953       0.00193792      -0.19296456       0.24569426
16
Lattice="4.8622840004932595 -5.586963707444348e-32 -3.0700398532490645e-16 -3.3818510421042385e-32 9.568463778567935 -2.2947893130147034e-15 4.490285311396877e-16 1.6090315026676572e-15 7.007950375241529" Properties=species:S:1:pos:R:3:forces:R:3 unique_starting_index=98 config_type=initial n_minim_iter=3 energy=-2599.676289344117 stress="0.006435702900467462 -1.4415610867681198e-12 -4.966538248987955e-12 -1.4415610867681198e-12 0.0033927404293807696 -5.413958323625169e-12 -4.966538248987955e-12 -5.413958323625169e-12 0.012508318212358238" free_energy=-2599.676289344117 pbc="T T T"
Si       1.58460909       5.97643524       1.07015029      -0.25722100      -0.14286750      -0.15823199
Si       3.27767491       1.19220335       5.93780008       0.25722100      -0.14286750       0.15823199
Si       4.01575109       8.37626042       5.93780008      -0.25722100       0.14286750       0.15823199
Si       0.84653291       3.59202854       1.07015029       0.25722100       0.14286750      -0.15823199
Si       3.27767491       3.59202854       5.93780008       0.25722100       0.14286750       0.15823199
Si       1.58460909       8.37626042       1.07015029      -0.25722100       0.14286750      -0.15823199
Si       0.84653291       1.19220335       1.07015029       0.25722100      -0.14286750      -0.15823199
Si       4.01575109       5.97643524       5.93780008      -0.25722100      -0.14286750       0.15823199
Si       1.88448646       5.97337319       3.49995964      -0.01511659      -0.08614428      -0.34891241
Si       2.97779754       1.18914130       3.50799073       0.01511659      -0.08614428       0.34891241
Si       4.31562846       8.37932248       3.50799073      -0.01511659       0.08614428       0.34891241
Si       0.54665554       3.59509059       3.49995964       0.01511659       0.08614428      -0.34891241
Si       2.97779754       3.59509059       3.50799073       0.01511659       0.08614428       0.34891241
Si       1.88448646       8.37932248       3.49995964      -0.01511659       0.08614428      -0.34891241
Si       0.54665554       1.18914130       3.49995964       0.01511659      -0.08614428      -0.34891241
Si       4.31562846       5.97337319       3.50799073      -0.01511659      -0.08614428       0.34891241
16
Lattice="4.810809609258507 -5.978591352417312e-32 -3.1862746002083226e-16 -3.699823913425861e-32 9.6318018648199 -2.3264605751077693e-15 4.098640114874554e-16 1.5300594494796356e-15 6.729036089636738" Properties=species:S:1:pos:R:3:forces:R:3 unique_starting_index=98 config_type=initial n_minim_iter=4 energy=-2599.8983976363065 stress="-0.0041466354932970075 -8.620941253415235e-12 -1.019845352064584e-11 -8.620941253415235e-12 -0.007123193523862391 -2.0720410895831602e-12 -1.019845352064584e-11 -2.0720410895831602e-12 -0.0004109925726979938" free_energy=-2599.8983976363065 pbc="T T T"
Si       1.52654430       5.97207757       0.97621160      -0.04413235       0.49715543      -0.43964304
Si       3.28426530       1.15617664       5.75282449       0.04413235       0.49715543       0.43964304
Si       3.93194911       8.47562522       5.75282449      -0.04413235      -0.49715543       0.43964304
Si       0.87886050       3.65972429       0.97621160       0.04413235      -0.49715543      -0.43964304
Si       3.28426530       3.65972429       5.75282449       0.04413235      -0.49715543       0.43964304
Si       1.52654430       8.47562522       0.97621160      -0.04413235      -0.49715543      -0.43964304
Si       0.87886050       1.15617664       0.97621160       0.04413235       0.49715543      -0.43964304
Si       3.93194911       5.97207757       5.75282449      -0.04413235       0.49715543       0.43964304
Si       1.86811982       5.99368775       3.34131390       0.05982170       0.17045507       0.00103068
Si       2.94268979       1.17778682       3.38772219      -0.05982170       0.17045507      -0.00103068
Si       4.27352462       8.45401505       3.38772219       0.05982170      -0.17045507      -0.00103068
Si       0.53728498       3.63811411       3.34131390      -0.05982170      -0.17045507       0.00103068
Si       2.94268979       3.63811411       3.38772219      -0.05982170      -0.17045507      -0.00103068
Si       1.86811982       8.45401505       3.34131390       0.05982170      -0.17045507       0.00103068
Si       0.53728498       1.17778682       3.34131390      -0.05982170       0.17045507       0.00103068
Si       4.27352462       5.99368775       3.38772219       0.05982170       0.17045507      -0.00103068
16
Lattice="5.13449722126886 -7.992421329716684e-32 -4.487722765122277e-16 -1.3496997229969412e-31 10.013079770423538 -3.894368805775933e-15 2.048366162830406e-16 3.3386083749870815e-16 6.100596444032957" Properties=species:S:1:pos:R:3:forces:R:3 unique_starting_index=98 config_type=initial n_minim_iter=5 energy=-2600.522461573286 stress="0.06591686718817605 -4.112228807846086e-12 1.0227279562311084e-12 -4.112228807846086e-12 0.03125770369609565 -1.1200732667915309e-11 1.0227279562311084e-12 -1.1200732667915309e-11 0.0036571793574117517" free_energy=-2600.522461573286 pbc="T T T"
Si       1.54537233       6.21752974       0.74629530      -0.08141564       0.23856156      -1.51266234
Si       3.58912489       1.21098985       5.35430114       0.08141564       0.23856156       1.51266234
Si       4.11262094       8.80208992       5.35430114      -0.08141564      -0.23856156       1.51266234
Si       1.02187628       3.79555003       0.74629530       0.08141564      -0.23856156      -1.51266234
Si       3.58912489       3.79555003       5.35430114       0.08141564      -0.23856156       1.51266234
Si       1.54537233       8.80208992       0.74629530      -0.08141564      -0.23856156      -1.51266234
Si       1.02187628       1.21098985       0.74629530       0.08141564       0.23856156      -1.51266234
Si       4.11262094       6.21752974       5.35430114      -0.08141564       0.23856156       1.51266234
Si       2.01045238       6.23029866       2.99932114       0.15591718       0.13226252       0.67661707
Si       3.12404484       1.22375878       3.10127530      -0.15591718       0.13226252      -0.67661707
Si       4.57770099       8.78932099       3.10127530       0.15591718      -0.13226252      -0.67661707
Si       0.55679623       3.78278111       2.99932114      -0.15591718      -0.13226252       0.67661707
Si       3.12404484       3.78278111       3.10127530      -0.15591718      -0.13226252      -0.67661707
Si       2.01045238       8.78932099       2.99932114       0.15591718      -0.13226252       0.67661707
Si       0.55679623       1.22375878       2.99932114      -0.15591718       0.13226252       0.67661707
Si       4.57770099       6.23029866       3.10127530       0.15591718       0.13226252      -0.67661707
16
Lattice="5.166755300484103 -5.624523838784019e-32 -4.896045473976628e-16 -1.2573343788753353e-31 10.113726188198775 -4.66519932658899e-15 1.366950220631959e-16 -2.758290912212512e-16 5.982124631213375" Properties=species:S:1:pos:R:3:forces:R:3 unique_starting_index=98 config_type=initial n_minim_iter=6 energy=-2600.627238626625 stress="0.07108105807099205 -6.048947686459247e-12 -8.747416332531596e-13 -6.048947686459247e-12 0.04159067026106356 -6.211368084396614e-12 -8.747416332531596e-13 -6.211368084396614e-12 -0.009384694960313083" free_energy=-2600.627238626625 pbc="T T T"
Si       1.53572950       6.28035140       0.70084524      -0.12564558       0.20563801      -1.56013045
Si       3.63102580       1.22348830       5.28127939       0.12564558       0.20563801       1.56013045
Si       4.11910715       8.89023789       5.28127939      -0.12564558      -0.20563801       1.56013045
Si       1.04764815       3.83337479       0.70084524       0.12564558      -0.20563801      -1.56013045
Si       3.63102580       3.83337479       5.28127939       0.12564558      -0.20563801       1.56013045
Si       1.53572950       8.89023789       0.70084524      -0.12564558      -0.20563801      -1.56013045
Si       1.04764815       1.22348830       0.70084524       0.12564558       0.20563801      -1.56013045
Si       4.11910715       6.28035140       5.28127939      -0.12564558       0.20563801       1.56013045
Si       2.02686008       6.29205276       2.93467067       0.21942870       0.11435786       0.69956063
Si       3.13989522       1.23518967       3.04745397      -0.21942870       0.11435786      -0.69956063
Si       4.61023773       8.87853652       3.04745397       0.21942870      -0.11435786      -0.69956063
Si       0.55651757       3.82167343       2.93467067      -0.21942870      -0.11435786       0.69956063
Si       3.13989522       3.82167343       3.04745397      -0.21942870      -0.11435786      -0.69956063
Si       2.02686008       8.87853652       2.93467067       0.21942870      -0.11435786       0.69956063
Si       0.55651757       1.23518967       2.93467067      -0.21942870       0.11435786       0.69956063
Si       4.61023773       6.29205276       3.04745397       0.21942870       0.11435786      -0.69956063
16
Lattice="4.973636593544851 -4.886094697031826e-32 -5.486460993682036e-16 -4.4218374018794333e-32 10.592593703929014 -4.775178693015842e-15 4.275646013942573e-17 -3.841987299380557e-16 5.940974661867515" Properties=species:S:1:pos:R:3:forces:R:3 unique_starting_index=98 config_type=initial n_minim_iter=7 energy=-2601.7547948453207 stress="0.05326100179646882 -3.769464464675719e-12 4.6004163048585004e-12 -3.769464464675719e-12 0.0622058928975048 -3.8370219873759884e-12 4.6004163048585004e-12 -3.8370219873759884e-12 0.015719823958335627" free_energy=-2601.7547948453207 pbc="T T T"
Si       1.40756531       6.59599968       0.57232513       0.08968268      -0.01313263      -0.79534444
Si       3.56607128       1.29970283       5.36864953      -0.08968268      -0.01313263       0.79534444
Si       3.89438361       9.29289088       5.36864953       0.08968268       0.01313263       0.79534444
Si       1.07925298       3.99659403       0.57232513      -0.08968268       0.01313263      -0.79534444
Si       3.56607128       3.99659403       5.36864953      -0.08968268       0.01313263       0.79534444
Si       1.40756531       9.29289088       0.57232513       0.08968268       0.01313263      -0.79534444
Si       1.07925298       1.29970283       0.57232513      -0.08968268      -0.01313263      -0.79534444
Si       3.89438361       6.59599968       5.36864953       0.08968268      -0.01313263       0.79534444
Si       1.96795356       6.59119422       2.88904181       0.03935896       0.00259462      -0.19418403
Si       3.00568303       1.29489736       3.05193286      -0.03935896       0.00259462       0.19418403
Si       4.45477186       9.29769634       3.05193286       0.03935896      -0.00259462       0.19418403
Si       0.51886474       4.00139949       2.88904181      -0.03935896      -0.00259462      -0.19418403
Si       3.00568303       4.00139949       3.05193286      -0.03935896      -0.00259462       0.19418403
Si       1.96795356       9.29769634       2.88904181       0.03935896      -0.00259462      -0.19418403
Si       0.51886474       1.29489736       2.88904181      -0.03935896       0.00259462      -0.19418403
Si       4.45477186       6.59119422       3.05193286       0.03935896       0.00259462       0.19418403
16
Lattice="4.803625504389299 -9.936991560004848e-32 -5.526245656792643e-16 -8.654302191881596e-33 10.656055554740878 -3.7769567561164144e-15 1.4861689820164973e-17 2.7821734060080534e-16 5.783700163526417" Properties=species:S:1:pos:R:3:forces:R:3 unique_starting_index=98 config_type=initial n_minim_iter=8 energy=-2602.5616503248443 stress="0.01839204601672711 -2.2052184531146717e-13 1.4452363789671094e-11 -2.2052184531146717e-13 0.06276534627678401 3.4349067985863626e-12 1.4452363789671094e-11 3.4349067985863626e-12 0.005893588687990417" free_energy=-2602.5616503248443 pbc="T T T"
Si       1.30864843       6.62808621       0.46624801       0.22622765       0.02555894      -0.38565691
Si       3.49497707       1.30005844       5.31745215      -0.22622765       0.02555894       0.38565691
Si       3.71046118       9.35599712       5.31745215       0.22622765      -0.02555895       0.38565691
Si       1.09316432       4.02796934       0.46624801      -0.22622765      -0.02555895      -0.38565691
Si       3.49497707       4.02796934       5.31745215      -0.22622765      -0.02555895       0.38565691
Si       1.30864843       9.35599712       0.46624801       0.22622765      -0.02555895      -0.38565691
Si       1.09316432       1.30005844       0.46624801      -0.22622765       0.02555895      -0.38565691
Si       3.71046118       6.62808621       5.31745215       0.22622765       0.02555895       0.38565691
Si       1.91157041       6.62067510       2.78703894      -0.04891065       0.03936700      -0.33316593
Si       2.89205509       1.29264733       2.99666122       0.04891065       0.03936700       0.33316593
Si       4.31338316       9.36340823       2.99666122      -0.04891065      -0.03936700       0.33316593
Si       0.49024234       4.03538045       2.78703894       0.04891065      -0.03936699      -0.33316593
Si       2.89205509       4.03538045       2.99666122       0.04891065      -0.03936699       0.33316593
Si       1.91157041       9.36340823       2.78703894      -0.04891065      -0.03936699      -0.33316593
Si       0.49024234       1.29264733       2.78703894       0.04891065       0.03936699      -0.33316593
Si       4.31338316       6.62067510       2.99666122      -0.04891065       0.03936699       0.33316593
16
Lattice="4.692604222682829 -1.6030123167344981e-31 -5.467745105590409e-16 -1.792173179120387e-33 9.983511244177855 -2.6426819296931917e-15 6.028741809282545e-18 9.767428808074836e-16 5.66031136239485" Properties=species:S:1:pos:R:3:forces:R:3 unique_starting_index=98 config_type=initial n_minim_iter=9 energy=-2603.281535431379 stress="-0.03210137176288606 -1.2996095779169895e-12 1.0935801680808542e-11 -1.2996095779169895e-12 -0.008715324515119542 -1.1976757627466436e-12 1.0935801680808542e-11 -1.1976757627466436e-12 -0.0062302661436339935" free_energy=-2603.281535431379 pbc="T T T"
Si       1.25928880       6.18740980       0.39935335       0.23534191       0.63953484      -0.22277763
Si       3.43331542       1.19565417       5.26095801      -0.23534191       0.63953484       0.22277763
Si       3.60559091       8.78785707       5.26095801       0.23534191      -0.63953484       0.22277762
Si       1.08701331       3.79610145       0.39935335      -0.23534191      -0.63953484      -0.22277762
Si       3.43331542       3.79610145       5.26095801      -0.23534191      -0.63953484       0.22277763
Si       1.25928880       8.78785707       0.39935335       0.23534191      -0.63953484      -0.22277763
Si       1.08701331       1.19565417       0.39935335      -0.23534191       0.63953484      -0.22277763
Si       3.60559091       6.18740980       5.26095801       0.23534191       0.63953484       0.22277763
Si       1.87041337       6.18596470       2.70652388      -0.10259570       0.28225012      -0.27827075
Si       2.82219085       1.19420907       2.95378748       0.10259570       0.28225012       0.27827075
Si       4.21671548       8.78930217       2.95378748      -0.10259570      -0.28225012       0.27827075
Si       0.47588874       3.79754655       2.70652388       0.10259570      -0.28225012      -0.27827075
Si       2.82219085       3.79754655       2.95378748       0.10259570      -0.28225012       0.27827075
Si       1.87041337       8.78930217       2.70652388      -0.10259570      -0.28225012      -0.27827075
Si       0.47588874       1.19420907       2.70652388       0.10259570       0.28225012      -0.27827075
Si       4.21671548       6.18596470       2.95378748      -0.10259570       0.28225012       0.27827075
16
Lattice="4.789834607154933 -8.234091684488336e-32 -5.468875745585486e-16 -2.8840407090673834e-33 10.012186152204814 -3.783354223896872e-15 3.378140796402573e-18 1.553200159634539e-16 5.641076696119282" Properties=species:S:1:pos:R:3:forces:R:3 unique_starting_index=98 config_type=initial n_minim_iter=10 energy=-2603.517736656942 stress="-0.007298290496727784 2.2041745590060243e-12 -7.263224143655119e-12 2.2041745590060243e-12 0.006997978819429472 5.818214267722197e-13 -7.263224143655119e-12 5.818214267722197e-13 0.0018982433066415778" free_energy=-2603.517736656942 pbc="T T T"
Si       1.28262698       6.22633012       0.38076738       0.26263485       0.36675972      -0.24483392
Si       3.50720763       1.22023705       5.26030932      -0.26263485       0.36675972       0.24483392
Si       3.67754428       8.79194911       5.26030932       0.26263485      -0.36675972       0.24483392
Si       1.11229032       3.78585603       0.38076738      -0.26263485      -0.36675972      -0.24483392
Si       3.50720763       3.78585603       5.26030932      -0.26263485      -0.36675972       0.24483392
Si       1.28262698       8.79194911       0.38076738       0.26263485      -0.36675972      -0.24483392
Si       1.11229032       1.22023705       0.38076738      -0.26263485       0.36675972      -0.24483392
Si       3.67754428       6.22633012       5.26030932       0.26263485       0.36675972       0.24483392
Si       1.91063540       6.21195829       2.69448333      -0.06794162       0.17935193      -0.21208413
Si       2.87919921       1.20586521       2.94659337       0.06794162       0.17935193       0.21208413
Si       4.30555270       8.80632094       2.94659337      -0.06794162      -0.17935193       0.21208413
Si       0.48428191       3.80022787       2.69448333       0.06794162      -0.17935193      -0.21208414
Si       2.87919921       3.80022787       2.94659337       0.06794162      -0.17935193       0.21208414
Si       1.91063540       8.80632094       2.69448333      -0.06794162      -0.17935193      -0.21208414
Si       0.48428191       1.20586521       2.69448333       0.06794162       0.17935193      -0.21208413
Si       4.30555270       6.21195829       2.94659337      -0.06794162       0.17935193       0.21208413
16
Lattice="4.896984357430172 -8.817771275643224e-32 -5.387406938597061e-16 -2.765517887027643e-33 9.877775175796549 -3.6279580318416394e-15 1.058097489752249e-18 2.1889775667067356e-16 5.539682524209199" Properties=species:S:1:pos:R:3:forces:R:3 unique_starting_index=98 config_type=initial n_minim_iter=11 energy=-2603.706769072643 stress="0.005771155793890927 7.218026874503805e-13 -6.825375505500432e-13 7.218026874503805e-13 -0.0056594190240699385 1.3482822983754014e-12 -6.825375505500432e-13 1.3482822983754014e-12 0.002324628623145001" free_energy=-2603.706769072643 pbc="T T T"
Si       1.30231268       6.18254330       0.31811718       0.27029657      -0.09648173      -0.27384269
Si       3.59467168       1.24365571       5.22156535      -0.27029657      -0.09648173       0.27384269
Si       3.75080485       8.63411947       5.22156535       0.27029657       0.09648173       0.27384269
Si       1.14617950       3.69523188       0.31811718      -0.27029657       0.09648173      -0.27384269
Si       3.59467168       3.69523188       5.22156535      -0.27029657       0.09648173       0.27384269
Si       1.30231268       8.63411947       0.31811718       0.27029657       0.09648173      -0.27384269
Si       1.14617950       1.24365571       0.31811718      -0.27029657      -0.09648173      -0.27384269
Si       3.75080485       6.18254330       5.22156535       0.27029657      -0.09648173       0.27384269
Si       1.95785732       6.14136448       2.63311095      -0.01330576       0.00655526      -0.03864967
Si       2.93912704       1.20247689       2.90657158       0.01330576       0.00655526       0.03864967
Si       4.40634950       8.67529829       2.90657158      -0.01330576      -0.00655526       0.03864967
Si       0.49063486       3.73641070       2.63311095       0.01330576      -0.00655526      -0.03864967
Si       2.93912704       3.73641070       2.90657158       0.01330576      -0.00655526       0.03864967
Si       1.95785732       8.67529829       2.63311095      -0.01330576      -0.00655526      -0.03864967
Si       0.49063486       1.20247689       2.63311095       0.01330576       0.00655526      -0.03864967
Si       4.40634950       6.14136448       2.90657158      -0.01330576       0.00655526       0.03864967
16
Lattice="4.908875760382293 -1.1047478952276325e-31 -5.29895102152562e-16 -2.5823152317415265e-33 9.922274114890236 -3.2784072980656808e-15 2.7027232185033105e-19 4.443004605441887e-16 5.4430290013512534" Properties=species:S:1:pos:R:3:forces:R:3 unique_starting_index=98 config_type=initial n_minim_iter=12 energy=-2603.7620808257548 stress="-0.0003971754177486935 -3.2175367697331785e-12 -4.28365159918518e-12 -3.2175367697331785e-12 0.0005506020720553877 -6.294642530735692e-13 -4.28365159918518e-12 -6.294642530735692e-13 0.0006637964627697019" free_energy=-2603.7620808257548 pbc="T T T"
Si       1.28534310       6.22239431       0.25206824       0.28897344      -0.25610933      -0.17162923
Si       3.62353266       1.26125725       5.19096076      -0.28897344      -0.25610933       0.17162923
Si       3.73978098       8.66101686       5.19096076       0.28897344       0.25610933       0.17162924
Si       1.16909478       3.69987981       0.25206824      -0.28897344       0.25610933      -0.17162923
Si       3.62353266       3.69987981       5.19096076      -0.28897344       0.25610933       0.17162924
Si       1.28534310       8.66101686       0.25206824       0.28897344       0.25610933      -0.17162923
Si       1.16909478       1.26125725       0.25206824      -0.28897344      -0.25610933      -0.17162924
Si       3.73978098       6.22239431       5.19096076       0.28897344      -0.25610933       0.17162924
Si       1.96864015       6.17181188       2.57140192       0.04040880      -0.02095931       0.05411341
Si       2.94023561       1.21067482       2.87162708      -0.04040880      -0.02095931      -0.05411341
Si       4.42307803       8.71159930       2.87162708       0.04040880       0.02095931      -0.05411341
Si       0.48579773       3.75046224       2.57140192      -0.04040880       0.02095931       0.05411341
Si       2.94023561       3.75046224       2.87162708      -0.04040880       0.02095931      -0.05411341
Si       1.96864015       8.71159930       2.57140192       0.04040880       0.02095931       0.05411341
Si       0.48579773       1.21067482       2.57140192      -0.04040880      -0.02095931       0.05411341
Si       4.42307803       6.17181188       2.87162708       0.04040880      -0.02095931      -0.05411341
16
Lattice="4.943619060439195 -7.603304808247462e-32 -5.214723790038808e-16 -2.4116499611759152e-33 9.90268279647725 -3.728757195071224e-15 5.739500317242822e-20 9.243179937660846e-17 5.354967982988338" Properties=species:S:1:pos:R:3:forces:R:3 unique_starting_index=98 config_type=initial n_minim_iter=13 energy=-2603.817537831248 stress="-0.0032154740335162296 -2.3230917555795143e-12 2.3587166875644417e-12 -2.3230917555795143e-12 0.0007049478456499291 -6.248425209090539e-13 2.3587166875644417e-12 -6.248425209090539e-13 -0.0015582049368286768" free_energy=-2603.817537831248 pbc="T T T"
Si       1.28460124       6.19440137       0.19799510       0.29187056      -0.06392342      -0.15221418
Si       3.65901782       1.24305997       5.15697288      -0.29187056      -0.06392342       0.15221418
Si       3.75641077       8.65962282       5.15697288       0.29187056       0.06392342       0.15221418
Si       1.18720829       3.70828142       0.19799510      -0.29187056       0.06392342      -0.15221418
Si       3.65901782       3.70828142       5.15697288      -0.29187056       0.06392342       0.15221418
Si       1.28460124       8.65962282       0.19799510       0.29187056       0.06392342      -0.15221418
Si       1.18720829       1.24305997       0.19799510      -0.29187056      -0.06392342      -0.15221418
Si       3.75641077       6.19440137       5.15697288       0.29187056      -0.06392342       0.15221418
Si       1.98859619       6.15513613       2.51735345       0.10969145       0.02981394       0.16644022
Si       2.95502287       1.20379473       2.83761453      -0.10969145       0.02981394      -0.16644022
Si       4.46040572       8.69888807       2.83761453       0.10969145      -0.02981394      -0.16644022
Si       0.48321334       3.74754667       2.51735345      -0.10969145      -0.02981394       0.16644022
Si       2.95502287       3.74754667       2.83761453      -0.10969145      -0.02981394      -0.16644022
Si       1.98859619       8.69888807       2.51735345       0.10969145      -0.02981394       0.16644022
Si       0.48321334       1.20379473       2.51735345      -0.10969145       0.02981394       0.16644022
Si       4.46040572       6.15513613       2.83761453       0.10969145       0.02981394      -0.16644022
16