8
Lattice="3.7663100000000007 -5.075567007069713e-15 -1.0211818053933091e-15 -1.2449481324353227 5.013716205415482 3.3755011709108627e-16 -0.14709506970533714 -1.4079259687583918 8.683288768281527" Properties=species:S:1:pos:R:3:forces:R:3 unique_starting_index=314 config_type=initial n_minim_iter=1 energy=-1268.5509194698554 stress="-0.40526283373319677 -0.39734981820845877 -0.554699880775048 0.10123788660752349 0.10752452620213218 0.1816655917450659" pbc="T T T"
Si       1.32172517       0.52272838       6.42694921       6.34517206      -0.47387519       1.15827182
Si       1.09886309       4.22029716       0.65055026       4.90487358      -7.02385190      -8.03367148
Si       0.70938497       1.89102641       4.61993597      32.16482207      -0.21627475     -15.12838953
Si      -0.21271885       1.49250347       5.86536966      -1.91140022     -21.83990817       9.37560434
Si       0.23681548       4.04993797       2.48759725       2.63281631     -17.86342976      13.01789384
Si      -0.70770545       2.09228617       7.26374212      -7.47717244       8.09917473      22.07759562
Si       1.31011561       0.33966664       1.57511472      -8.86325431      23.90464790      -6.58993882
Si      -0.84982955       2.34743037       4.67006721     -27.79585705      15.41351714     -15.87736579
8
Lattice="3.7914432803398412 -0.01128740236391712 -0.006683341389252995 -1.2682817036416363 5.05024898193718 -0.006165480053387487 -0.15926574549554526 -1.431200460274441 8.765264729604464" Properties=species:S:1:pos:R:3:forces:R:3 unique_starting_index=314 config_type=initial n_minim_iter=2 energy=-1270.9313158356374 stress="-0.3555941883493243 -0.35251084768753715 -0.4929229614464825 0.08785185605230751 0.099609991059887 0.16464339078163118" pbc="T T T"
Si       1.31821273       0.51140212       6.48258730       5.84914029      -0.32990510       0.96523801
Si       1.09289092       4.24282106       0.64668643       4.40975259      -6.53545382      -7.34059639
Si       0.70349412       1.89352650       4.65621128      29.30099501      -0.33374977     -13.64248720
Si      -0.22920697       1.49090905       5.91781235      -1.66510175     -19.90363081       8.01887782
Si       0.22211220       4.06976842       2.50446447       2.53467784     -16.02655482      11.66558492
Si      -0.73234716       2.09677649       7.33011991      -6.95795525       7.43429779      20.60794132
Si       1.31414701       0.33774141       1.58595129      -8.20306173      21.59103687      -5.83205915
Si      -0.87362273       2.35909687       4.70873764     -25.26844699      14.10395965     -14.44249932
8
Lattice="4.049406719055676 -0.13325846134071562 -0.0808570808723592 -1.5159191461913832 5.430653406321049 -0.06835311414860641 -0.29475404241853687 -1.672104424170257 9.623155339653664" Properties=species:S:1:pos:R:3:forces:R:3 unique_starting_index=314 config_type=initial n_minim_iter=3 energy=-1285.9724029474082 stress="-0.10008700639517974 -0.09034379486014689 -0.1758596500866043 0.03321064340757585 0.057570927707697575 0.0648730498066309" pbc="T T T"
Si       1.27218393       0.39222501       7.06335247       2.48366327      -0.68258116       0.61637546
Si       1.02441787       4.47446707       0.60531918       1.09537909      -3.04875111      -1.90964317
Si       0.63509678       1.91752440       5.03392435      11.54532295      -0.12491654      -6.31870798
Si      -0.40891490       1.47383219       6.46766125      -0.05903286      -9.95581939       1.68993468
Si       0.06161011       4.27434444       2.68237583       2.31849062      -6.48579765       3.96787786
Si      -1.00081712       2.14464485       8.02803019      -3.45596909       3.60632821      11.54440805
Si       1.35127588       0.31728905       1.69748472      -3.73872649       9.41475700      -2.55115505
Si      -1.13011881       2.48335892       5.11424261     -10.18912748       7.27678065      -7.03908984
8
Lattice="4.217536100653426 -0.24213365625395017 -0.1796352849778691 -1.716428846330742 5.666958082900809 -0.10987120982086064 -0.4883553283174822 -1.8525579317996153 10.33537091484646" Properties=species:S:1:pos:R:3:forces:R:3 unique_starting_index=314 config_type=initial n_minim_iter=4 energy=-1291.1952750648588 stress="-0.01956498680076704 -0.024069507752815817 -0.08032587854125342 0.030035786949380885 0.03287699414389766 0.02466518091228338" pbc="T T T"
Si       1.15343565       0.27750295       7.53096890       1.17364256      -0.94009681       1.17977124
Si       0.93844721       4.59453975       0.56037166      -0.65694091      -2.03801855      -0.05930872
Si       0.51977325       1.90150808       5.33392461       4.61011125      -0.19432875      -3.10516877
Si      -0.61341067       1.42942751       6.92193282      -0.43571558      -5.01401244       1.12194562
Si      -0.10386415       4.37608636       2.82456462       2.25883817      -2.96877651       0.83557339
Si      -1.29478141       2.14898763       8.62102948      -1.31280652       2.04069932       5.35062421
Si       1.34770235       0.29313759       1.77544523      -1.87262613       5.43371707      -1.30860434
Si      -1.38312251       2.55346935       5.45426675      -3.76450283       3.68081668      -4.01483264
8
Lattice="4.294841035584993 -0.32446329462210477 -0.2987393802634155 -1.8515791861709303 5.814237221031919 -0.21176929837119965 -0.7351943808077539 -2.1277211965870992 11.07643055041906" Properties=species:S:1:pos:R:3:forces:R:3 unique_starting_index=314 config_type=initial n_minim_iter=5 energy=-1293.6026151858428 stress="0.006454235975340456 0.0005434522397988466 -0.023667363475390293 0.024836806294946265 0.017052321445678493 0.014495396567172978" pbc="T T T"
Si       0.97100342       0.07468163       7.99557163       0.90006822      -0.64962535       1.04908681
Si       0.84741880       4.64497423       0.45876385      -1.54462369      -1.09844065       1.15898966
Si       0.37007407       1.79841240       5.60728034       1.85430435      -0.91132863      -1.42975779
Si      -0.83501995       1.28205039       7.36709326      -0.33158911      -2.40694469       0.22531135
Si      -0.25530041       4.38228779       2.90910837       1.98348504      -1.22630643      -0.58949195
Si      -1.59615201       2.01661570       9.19747931      -0.30640310       1.27678625       2.50395557
Si       1.30617029       0.25425981       1.84167366      -0.84042535       3.04334660      -0.64346135
Si      -1.61626636       2.51831132       5.76862661      -1.71481635       1.97251289      -2.27463229
8
Lattice="4.272974824847922 -0.3958071869252388 -0.39648759971601155 -1.939324414465225 5.856160279034958 -0.37509965218300173 -0.9330306411298721 -2.4689168508847477 11.525813674009246" Properties=species:S:1:pos:R:3:forces:R:3 unique_starting_index=314 config_type=initial n_minim_iter=6 energy=-1294.602253700853 stress="0.006451972018766489 0.0025330542995129412 0.0020860661917088564 0.007289196059635225 0.007844704798732099 0.011355015842694808" pbc="T T T"
Si       0.79188333      -0.20600840       8.23845387       0.75416341      -0.58279076       0.82968131
Si       0.73474207       4.60785270       0.30723420      -1.26281257      -0.89531650       1.09538525
Si       0.22553193       1.60528616       5.70610450       0.90301779      -0.71199443      -0.71126283
Si      -1.01345327       1.04614847       7.58602311       0.00539097      -1.22993618      -0.76624213
Si      -0.38303076       4.28453235       2.85339897       0.62008030      -0.60581427      -0.62795273
Si      -1.82833601       1.75833781       9.48369158       0.14992106       1.12581786       1.84040462
Si       1.24264467       0.19203660       1.85530559      -0.45159743       1.47401147      -0.37923419
Si      -1.78709428       2.38085051       5.88801125      -0.71816353       1.42602281      -1.28077930
8
Lattice="4.237371192340814 -0.4765691862412893 -0.4526374965370082 -2.035066153449802 5.875349244953242 -0.42702736271753994 -1.0309040858209921 -2.585733230092263 11.531097352069665" Properties=species:S:1:pos:R:3:forces:R:3 unique_starting_index=314 config_type=initial n_minim_iter=7 energy=-1295.0020580782148 stress="-0.0022667198835963796 -0.006509137327223642 0.0032655947986048994 0.00011757244391394977 0.007333915008944687 0.006143204091064777" pbc="T T T"
Si       0.67840808      -0.33413965       8.20833712       0.53549705      -0.83394342       0.74652260
Si       0.61314670       4.56113923       0.24750624      -1.05951828      -0.88993758       0.72823722
Si       0.12006941       1.51436846       5.65011996       0.32205129      -0.58978291      -0.73825642
Si      -1.12600967       0.95604744       7.55100260       0.09691754      -0.84223877      -0.50695167
Si      -0.50099147       4.23209234       2.78087240      -0.13061188      -0.28454098      -0.59322715
Si      -1.98036934       1.67435445       9.47030766       0.49590120       1.26934022       1.78907834
Si       1.19247116       0.15697450       1.82108734      -0.25595404       0.63354898      -0.52492564
Si      -1.90522174       2.34867265       5.84271751      -0.00428289       1.53755446      -0.90047727
8
Lattice="4.2704378053694105 -0.5314454707068672 -0.5172633964567662 -2.1190476459063357 5.977539621942488 -0.39984763926809047 -1.1606776681054083 -2.5971170442624176 11.474676961266159" Properties=species:S:1:pos:R:3:forces:R:3 unique_starting_index=314 config_type=initial n_minim_iter=8 energy=-1295.2698269302925 stress="0.005454525145515581 -0.003377563182009331 0.007597760547254501 -0.00193822304657765 0.005705120322132731 0.003756808111057613" pbc="T T T"
Si       0.57771290      -0.34910525       8.15353714       0.33621122      -0.72658686       0.47453542
Si       0.54011043       4.60797172       0.24317587      -1.05062543      -0.44541768       0.84660223
Si       0.02772512       1.53409973       5.59908662      -0.22066767      -0.59234764      -0.56882609
Si      -1.24531758       0.98172158       7.51227834       0.12212236      -0.66141329      -0.32844530
Si      -0.59907723       4.29655079       2.75736292      -0.18418514      -0.41695259      -0.59073609
Si      -2.14612877       1.73765349       9.45672373       0.68694084       1.15793741       1.39211761
Si       1.16799437       0.15565933       1.78189144      -0.02566680       0.23154262      -0.49366799
Si      -2.02889180       2.42580048       5.81619933       0.33587062       1.45323803      -0.73157979
8
Lattice="4.235554375116603 -0.5607214035162468 -0.5602328520098474 -2.1464891356957767 6.028021634773298 -0.3535845919707259 -1.2474380951856812 -2.551908115581992 11.312349044172658" Properties=species:S:1:pos:R:3:forces:R:3 unique_starting_index=314 config_type=initial n_minim_iter=9 energy=-1295.4759032287259 stress="0.003841870087538533 -0.007181890643975726 0.002231064779912775 -0.0021475445188917693 0.006757083341206708 0.0022004410206630434" pbc="T T T"
Si       0.49137111      -0.32319142       8.03239964       0.29473458      -0.83760568       0.46317481
Si       0.47902920       4.63429767       0.25943474      -0.69642001      -0.43542111       0.71482439
Si      -0.04567435       1.56779579       5.51513159      -0.38468975      -0.74544370      -0.58491625
Si      -1.31782417       1.02605094       7.41562907      -0.03805181      -0.60156441      -0.11272415
Si      -0.66050658       4.34023876       2.72912892      -0.27432362      -0.39907285      -0.58752845
Si      -2.23958840       1.81539718       9.36041096       0.69233921       1.24002920       1.25702767
Si       1.13559111       0.16250337       1.73623065      -0.05416070       0.14069664      -0.51029627
Si      -2.08986665       2.49725464       5.74809079       0.46057211       1.63838191      -0.63956176
8
Lattice="4.218189909628581 -0.5765061461599023 -0.6064150328829011 -2.1617620051915853 6.101022566510915 -0.31391610952473664 -1.3473330151816985 -2.5280624200226387 11.279366681882124" Properties=species:S:1:pos:R:3:forces:R:3 unique_starting_index=314 config_type=initial n_minim_iter=10 energy=-1295.6387810757865 stress="0.007669687020312536 -0.004255186468188124 0.005050788803561547 -0.002082745463016969 0.00635735461732569 0.0016091904804715906" pbc="T T T"
Si       0.40684601      -0.29920037       8.00263983       0.30772386      -0.75511049       0.48354308
Si       0.44211431       4.68622563       0.27388218      -0.52708082      -0.33649855       0.75887588
Si      -0.11331633       1.60705087       5.49561032      -0.52199295      -0.83249300      -0.49169448
Si      -1.39357897       1.06947919       7.40589117      -0.14394676      -0.43311884      -0.07673341
Si      -0.70914814       4.40315065       2.73238674      -0.26647881      -0.47877792      -0.61835258
Si      -2.33555760       1.89085011       9.36556537       0.68248198       1.14030201       0.96059233
Si       1.10940215       0.17269937       1.71257113      -0.04342231       0.05592881      -0.44407286
Si      -2.15019556       2.57048760       5.74683998       0.51271581       1.63976798      -0.57215796
8
Lattice="4.191110456312643 -0.5820242623313124 -0.631214476417337 -2.160156655031592 6.12773721541796 -0.2897215829259735 -1.401388145102698 -2.507131071559854 11.227431961929623" Properties=species:S:1:pos:R:3:forces:R:3 unique_starting_index=314 config_type=initial n_minim_iter=11 energy=-1295.7406178908611 stress="0.007352246349708115 -0.004452963707528734 0.004128644340703237 -0.0018916465006707987 0.007119669436821459 0.0013673826667164853" pbc="T T T"
Si       0.35557603      -0.28303253       7.96244053       0.33292152      -0.77929309       0.51491247
Si       0.42062872       4.70577741       0.28219919      -0.32881895      -0.37604380       0.73716813
Si      -0.15258092       1.62621554       5.46924760      -0.57402021      -0.92010070      -0.50342935
Si      -1.43282412       1.09334293       7.37905555      -0.23501146      -0.39872157      -0.04846232
Si      -0.73313165       4.42876879       2.72634719      -0.28398051      -0.46797282      -0.58855315
Si      -2.38168395       1.93068671       9.34008214       0.62420926       1.15132388       0.87760579
Si       1.08985327       0.17867261       1.69428445      -0.05698061       0.05879890      -0.42757844
Si      -2.17598552       2.60730731       5.72959181       0.52168095       1.73200920      -0.56166313
8
Lattice="4.126157761600819 -0.593981227971562 -0.704949647370385 -2.1546037654446977 6.200630309439117 -0.2264286092854143 -1.5643792526257831 -2.4586179927280947 11.125439325903828" Properties=species:S:1:pos:R:3:forces:R:3 unique_starting_index=314 config_type=initial n_minim_iter=12 energy=-1296.0178489951825 stress="0.00900584982000097 -0.0027113603320717762 0.0027604973001776082 -0.0012198299094885495 0.007859742348754147 0.0008820304315158738" pbc="T T T"
Si       0.20877601      -0.24407177       7.87833229       0.40384187      -0.79906175       0.53687415
Si       0.36973683       4.75922887       0.30065538       0.12404390      -0.42627741       0.78946506
Si      -0.26350779       1.67419581       5.41466816      -0.71607171      -1.13184359      -0.49910426
Si      -1.55003441       1.15382651       7.33139243      -0.39764288      -0.29573168      -0.03595263
Si      -0.79874589       4.49743061       2.71751846      -0.26884671      -0.46930959      -0.47600814
Si      -2.52046841       2.03285249       9.30051842       0.47287235       1.11565811       0.62976018
Si       1.03732324       0.19459883       1.64932328      -0.12729281       0.07750793      -0.40927037
Si      -2.25419489       2.70411078       5.70248516       0.50909600       1.92905799      -0.53576399
8
Lattice="4.048523239142327 -0.5971700112633549 -0.783234852257581 -2.1331867022498003 6.242999972633931 -0.1724684169208458 -1.7406429733555626 -2.4214581214432713 11.075525151164946" Properties=species:S:1:pos:R:3:forces:R:3 unique_starting_index=314 config_type=initial n_minim_iter=13 energy=-1296.2907342220033 stress="0.005253135985391027 -0.0031651697707099644 -0.0021661847941348866 -0.0011197883120560648 0.005371579043856251 0.0007792630616985397" pbc="T T T"
Si       0.05102923      -0.21931037       7.82745332       0.47725783      -0.90482500       0.49868482
Si       0.32939581       4.78834804       0.31156720       0.50487423      -0.45800343       0.93184805
Si      -0.37874615       1.70091558       5.38196158      -0.79139682      -1.29567772      -0.45613452
Si      -1.67267279       1.19539678       7.31481505      -0.50016477      -0.17027572      -0.01867607
Si      -0.85877435       4.53879979       2.71566982      -0.26475921      -0.40501024      -0.34575145
Si      -2.66226678       2.10650461       9.29529110       0.25004144       1.03284408       0.36942207
Si       0.97899048       0.20811742       1.61119400      -0.15586281       0.10456743      -0.44484304
Si      -2.32989352       2.77863913       5.69725203       0.48001012       2.09638059      -0.53454985
8
Lattice="3.9960180731933304 -0.6052038759842742 -0.8571908642748981 -2.126525888204217 6.308436519426147 -0.12102159676871853 -1.9060959155407864 -2.392011365440028 11.179239467371055" Properties=species:S:1:pos:R:3:forces:R:3 unique_starting_index=314 config_type=initial n_minim_iter=14 energy=-1296.5579790750253 stress="0.006622908621309634 0.0008971253374344068 -0.000774524302803579 0.0007829245131410583 0.0018166262838677889 0.0003616037391979993" pbc="T T T"
Si      -0.08787071      -0.20263567       7.89364560       0.55987691      -0.71619940       0.50313699
Si       0.29595760       4.82859605       0.33992504       0.54228207      -0.36687456       0.94735382
Si      -0.48664313       1.72587776       5.43101726      -0.85784576      -1.34229190      -0.20818248
Si      -1.79499147       1.24377590       7.40304498      -0.48786884       0.12028101       0.05149366
Si      -0.91971560       4.59538064       2.75789618      -0.28893135      -0.31679939      -0.44589009
Si      -2.80561008       2.19361166       9.41785266       0.15204694       0.73436740       0.03367137
Si       0.93036258       0.22298304       1.59880866      -0.11998612      -0.06231313      -0.50651846
Si      -2.41009410       2.87667001       5.76622972       0.50042616       1.94982997      -0.37506481
8
Lattice="3.9052600543800797 -0.6002271151737034 -0.8766214404982398 -2.089900891230645 6.2880993247112045 -0.1299003845692357 -1.9492092434302126 -2.413457538882988 11.23094435277256" Properties=species:S:1:pos:R:3:forces:R:3 unique_starting_index=314 config_type=initial n_minim_iter=15 energy=-1296.7868188398231 stress="-0.0034686436286644876 -0.003540833005529859 -0.004380639607861119 0.0006320507284667084 0.003124213799903934 0.0013322243548236808" pbc="T T T"
Si      -0.14428923      -0.24262441       7.93009559       0.52092986      -0.84347076       0.43914899
Si       0.27620492       4.79884630       0.34613126       0.59357322      -0.41920895       0.74675576
Si      -0.53327306       1.68090174       5.45058428      -0.90567467      -1.40508399      -0.21749401
Si      -1.82772504       1.22551538       7.43635520      -0.52777345       0.23078773       0.06205004
Si      -0.93359479       4.56883795       2.74953586      -0.38368012      -0.18746717      -0.35376188
Si      -2.82501005       2.17755111       9.45255380       0.10934855       0.73492796       0.12725215
Si       0.89467400       0.21884149       1.58738270      -0.01410837      -0.07474981      -0.54174541
Si      -2.40636304       2.89459488       5.76932792       0.60738497       1.96426498      -0.26220564
8
Lattice="3.9340425814510973 -0.6120609324341952 -0.9047443721010991 -2.115168103620141 6.330673685647822 -0.1265585077827656 -2.010747503773487 -2.43416440039399 11.327604542584918" Properties=species:S:1:pos:R:3:forces:R:3 unique_starting_index=314 config_type=initial n_minim_iter=16 energy=-1296.8839646024185 stress="0.006914006279443751 0.0031182403781744926 0.0011777454264758989 0.000781860376925321 0.0013961712905418214 -0.0006370818745322526" pbc="T T T"
Si      -0.17902200      -0.26191304       7.99370876       0.40584460      -0.52056713       0.38537541
Si       0.26883449       4.81990092       0.34826620       0.53592736      -0.35857260       0.75773809
Si      -0.56993492       1.67469677       5.49407839      -0.83942807      -1.26061816      -0.02918878
Si      -1.88271283       1.23350632       7.50237314      -0.38874278       0.24339977       0.04056087
Si      -0.96376758       4.59504226       2.76699316      -0.37734326      -0.13020670      -0.51440033
Si      -2.89419774       2.19528344       9.53577015       0.12024095       0.57139429       0.00104292
Si       0.89377984       0.21643491       1.58744352       0.00931881      -0.21901724      -0.50130220
Si      -2.45400488       2.93127955       5.81436027       0.53418238       1.67418776      -0.13982597
8
Lattice="3.9055776727359612 -0.6051634431463087 -0.9073086576570247 -2.096577124979456 6.307232367877232 -0.1299976395606735 -2.018126221542997 -2.435915615691159 11.318095764617636" Properties=species:S:1:pos:R:3:forces:R:3 unique_starting_index=314 config_type=initial n_minim_iter=17 energy=-1296.9419065866548 stress="0.001965658072219466 0.000267783784442352 -0.0014385858751828561 0.0007848361737634479 0.002014425716664953 0.00014571473840310293" pbc="T T T"
Si      -0.19123632      -0.27108047       7.98663408       0.41256321      -0.62712122       0.35230543
Si       0.26927055       4.79998886       0.34776275       0.56318172      -0.38347989       0.71713817
Si      -0.57791923       1.65759120       5.48912845      -0.81644690      -1.27803890      -0.09392607
Si      -1.88484896       1.22437577       7.49507599      -0.42616232       0.25245592       0.04909494
Si      -0.96065024       4.57677748       2.75749610      -0.39641569      -0.13493956      -0.43893798
Si      -2.89000971       2.18188907       9.52440524       0.10956203       0.60668025       0.06298778
Si       0.88555117       0.21449057       1.58070068       0.02476536      -0.15226390      -0.52108435
Si      -2.44494708       2.92526283       5.80352481       0.52895260       1.71670731      -0.12757791
8
Lattice="3.8992558695117774 -0.6043636519899329 -0.9165326367682821 -2.093422779479681 6.305611619868998 -0.13173545977257184 -2.0394443326035194 -2.4438562391946723 11.342950178205808" Properties=species:S:1:pos:R:3:forces:R:3 unique_starting_index=314 config_type=initial n_minim_iter=18 energy=-1296.9939928683716 stress="0.002304316721082479 0.0007841976287689723 -0.0008850081469131994 0.000747982933423175 0.0018835054381725605 2.8428255174691184e-05" pbc="T T T"
Si      -0.20716439      -0.28229609       8.00237053       0.38705426      -0.59236063       0.31294238
Si       0.26826651       4.79433393       0.34764569       0.55921190      -0.38179193       0.69333294
Si      -0.59200031       1.64555638       5.49992784      -0.78743095      -1.23751617      -0.07561089
Si      -1.90128152       1.22067354       7.51123520      -0.41007689       0.26128746       0.04700547
Si      -0.96703791       4.57345075       2.75731741      -0.39853058      -0.12454102      -0.44120047
Si      -2.90702576       2.17796837       9.54357087       0.10863771       0.58346113       0.06257708
Si       0.88149103       0.21254776       1.57717685       0.03620939      -0.15509491      -0.51771729
Si      -2.45350500       2.93105036       5.81164704       0.50492514       1.64655607      -0.08132923
8
Lattice="3.8487092464376604 -0.5940011525731242 -0.9688711074806241 -2.0629200977430022 6.270375584800049 -0.14286187796224042 -2.1620111228760215 -2.48456063004393 11.457009272448605" Properties=species:S:1:pos:R:3:forces:R:3 unique_starting_index=314 config_type=initial n_minim_iter=19 energy=-1297.2760727696982 stress="-0.00033770823559536905 0.0039011228665276347 0.0012551432750909201 0.0001505458628256618 0.0017344487570735718 0.0001581663828319019" pbc="T T T"
Si      -0.30167595      -0.34924316       8.07116853       0.27728853      -0.53823851       0.00076321
Si       0.26561046       4.74101941       0.34610273       0.53902543      -0.38597185       0.54508581
Si      -0.67336353       1.56474810       5.54919632      -0.58286175      -1.02559902      -0.07192351
Si      -1.99283367       1.19298603       7.58483790      -0.35226738       0.32340971       0.02826841
Si      -0.99849756       4.53588028       2.74562622      -0.36005045      -0.10574889      -0.36681752
Si      -2.99747130       2.14387191       9.62816053       0.08038938       0.52761117       0.12624214
Si       0.85604974       0.20038789       1.54896490       0.07322098      -0.05518466      -0.48758502
Si      -2.49478977       2.95377616       5.84237137       0.32525525       1.25972204       0.22596648
8
Lattice="3.8734501722717796 -0.5875000347104837 -1.0277938793046264 -2.062443878162207 6.074126121505399 -0.11373826518520969 -2.3012550522526 -2.413600902471204 11.374969735356407" Properties=species:S:1:pos:R:3:forces:R:3 unique_starting_index=314 config_type=initial n_minim_iter=20 energy=-1297.5355773252804 stress="-0.002542433782582287 0.0031254011402914307 -0.005659858573385134 0.0017403395496706552 0.0011257944817664714 -0.0023104614690404733" pbc="T T T"
Si      -0.37659044      -0.37966613       7.98647939      -0.10285729      -1.07081560      -0.48139504
Si       0.28210748       4.55613123       0.35423440       0.62559712      -0.52110851       0.82064516
Si      -0.74651956       1.46282798       5.51237555      -0.34222808      -0.71468194      -0.19412190
Si      -2.10237264       1.16970347       7.54310673      -0.17493143       0.18830556       0.06901690
Si      -1.03365140       4.38863718       2.71216705      -0.30939525      -0.16508727      -0.21528226
Si      -3.11986942       2.09501095       9.57656392       0.21065852       0.77080640       0.15240480
Si       0.85588636       0.18777725       1.48508726      -0.04963678       0.34872539      -0.49996274
Si      -2.57262563       2.91616449       5.81807282       0.14279319       1.16385598       0.34869508
8
Lattice="3.8893189090622045 -0.5695714855174587 -1.0428080790626149 -2.043822760039349 6.0365308580661905 -0.12924460149698938 -2.343192363588789 -2.4408588274775918 11.493202148185961" Properties=species:S:1:pos:R:3:forces:R:3 unique_starting_index=314 config_type=initial n_minim_iter=21 energy=-1297.6067880883284 stress="0.0012337202294182043 0.006529871324711132 0.00010833223141414484 0.0010408657071719726 0.0001375256566417506 -0.0019420419442667015" pbc="T T T"
Si      -0.39117410      -0.41157407       8.05910598      -0.04000919      -0.99866706      -0.52386686
Si       0.30574710       4.52467146       0.35153199       0.60186214      -0.58873360       0.69971370
Si      -0.75382757       1.43099855       5.56111616      -0.23162297      -0.64607752      -0.05218213
Si      -2.12238766       1.13761349       7.61564430      -0.15769287       0.27354395       0.08758969
Si      -1.02468960       4.35417005       2.72524203      -0.32613267      -0.06908461      -0.37573802
Si      -3.14238481       2.05394014       9.66585034       0.21072923       0.68836834       0.14496194
Si       0.85864793       0.18938468       1.49039687      -0.09754656       0.26782033      -0.43790800
Si      -2.58438827       2.88710607       5.87085249       0.04041290       1.07283017       0.45742968
8
Lattice="3.882758243456892 -0.5574154112585501 -1.0427798341559325 -2.025471961804742 5.9887432732365955 -0.13606241188320056 -2.347415210986322 -2.44083412975173 11.495114666859438" Properties=species:S:1:pos:R:3:forces:R:3 unique_starting_index=314 config_type=initial n_minim_iter=22 energy=-1297.652511377839 stress="-0.0018730477095960127 0.00466970168927669 -0.0009587372723309722 0.0011827989504212412 0.0008805815529069285 -0.0010216175038685377" pbc="T T T"
Si      -0.38963255      -0.42502533       8.05520083      -0.04278688      -1.13657293      -0.55083548
Si       0.31909945       4.48606964       0.35068862       0.60997135      -0.61417028       0.64199032
Si      -0.74981644       1.40855482       5.55967917      -0.19032628      -0.63099057      -0.06718288
Si      -2.11883832       1.11832963       7.61469077      -0.16130082       0.29548306       0.11607544
Si      -1.01288323       4.31742859       2.71770743      -0.32114958      -0.10609983      -0.32350627
Si      -3.13401240       2.02583434       9.66272878       0.22049137       0.73273447       0.17812805
Si       0.85825509       0.18998552       1.48610812      -0.13519342       0.31093063      -0.45082943
Si      -2.57671362       2.86091839       5.86993924       0.02029426       1.14868543       0.45616026
8
Lattice="3.8893175876392503 -0.5522969161612646 -1.0473669387813853 -2.020826396642347 5.963065359407628 -0.1404039733872639 -2.360160434675097 -2.444443610615913 11.509554381005852" Properties=species:S:1:pos:R:3:forces:R:3 unique_starting_index=314 config_type=initial n_minim_iter=23 energy=-1297.6878046684392 stress="-0.0008977736185879994 0.004818929369869748 -0.0003298752351862632 0.0010973261842595618 0.0007006020428381562 -0.0009871567832874537" pbc="T T T"
Si      -0.39218809      -0.43782487       8.05972265      -0.06944556      -1.16575913      -0.58254862
Si       0.32744369       4.46275437       0.34908169       0.60843187      -0.60742568       0.62836062
Si      -0.75174809       1.39316274       5.56388816      -0.16417679      -0.59773370      -0.03725498
Si      -2.12587620       1.10592033       7.62287257      -0.14007693       0.29917137       0.11964535
Si      -1.01056218       4.29601941       2.71497164      -0.31972350      -0.09790570      -0.34481121
Si      -3.14149966       2.00872636       9.67187136       0.22911396       0.73716736       0.17505881
Si       0.85948075       0.18999944       1.48315280      -0.15538484       0.28669182      -0.42960380