12
Lattice="3.9633499999999997 -9.818796664288852e-16 -6.970608995318229e-16 1.6499912776826458 5.5595396744668655 -2.6803568143234135e-15 1.2970000038821847 1.0425931354331905 11.265112441226538" Properties=species:S:1:pos:R:3:forces:R:3 unique_starting_index=192 config_type=initial n_minim_iter=1 energy=-1889.3613806343249 stress="-0.7305635278584297 -0.5663477453700707 -0.38389703562131494 -0.18324145677566867 -0.11636313425456957 -0.059557228832841494" pbc="T T T"
Si       5.07116003       1.18125502      10.33242872      21.31115945      12.01549049       9.12184361
Si       3.35599856       5.74055398       2.56983125       7.63479630      23.65208887      24.87034433
Si       4.63896083       1.42304682       4.24781818      -0.05011160       1.44856278       0.34286814
Si       5.65978520       3.73090191       8.43391144      10.03623718      17.16089101     -20.66156913
Si       5.10044944       3.70947449       9.99703140      -0.36332476      -1.65825481      22.76410149
Si       2.82325927       2.63478906       8.73385294      -2.02465985     -25.90003867       7.23916235
Si       5.35810409       6.08128287       9.81549074     -18.23764987      -8.18528777      -9.03115110
Si       2.35504458       5.09134081       1.50251929     -28.64659698       6.21498613     -14.12541040
Si       4.06546216       3.62060343       8.52144587      -2.70305740      -7.21362515     -18.40409832
Si       3.81355399       4.44676396       1.74700603      34.87256076      -7.86145323       0.92875180
Si       3.61818285       5.01819064       9.16073874      -8.14876530      14.42523282       5.81892519
Si       2.71737938       3.40985828       1.21453909     -13.68058793     -24.09859247      -8.86376795
12
Lattice="4.035898417369715 0.005980643198240048 0.011620650993868364 1.6885833472725544 5.640801228983522 0.03043711888673355 1.3553442367256985 1.1111935532743231 11.381740832318071" Properties=species:S:1:pos:R:3:forces:R:3 unique_starting_index=192 config_type=initial n_minim_iter=2 energy=-1896.51981496507 stress="-0.6210423198161842 -0.4731758280563927 -0.3253731824530572 -0.1569558900791108 -0.09254183750185346 -0.04845437231125548" pbc="T T T"
Si       5.19823879       1.25444664      10.45275043      18.22358268      10.56556495       7.94638425
Si       3.43441507       5.84119892       2.63327089       6.27262110      20.37993795      20.97824201
Si       4.73847348       1.46991619       4.30874125      -0.21611135       1.45886996       0.36643331
Si       5.79476343       3.83287163       8.54648571       8.44591946      15.32108062     -19.16962152
Si       5.22869081       3.81560393      10.12722878      -0.61022252      -1.36826744      20.89787268
Si       2.90431433       2.71397297       8.83873301      -1.69837661     -23.39007950       6.35908001
Si       5.49227807       6.21989146       9.95240562     -15.71986920      -7.14255108      -7.80990927
Si       2.40732115       5.17457042       1.54584432     -23.78456291       5.67686217     -11.40273911
Si       4.17004654       3.71653473       8.62989001      -1.73846768      -6.49801451     -16.50892367
Si       3.89874297       4.52277628       1.79551590      28.94887541      -7.15445187       0.57120220
Si       3.71801906       5.13839762       9.28289102      -7.10168893      12.94606274       5.33271673
Si       2.77442768       3.46541449       1.24894409     -11.02169944     -20.79501397      -7.56073762
12
Lattice="4.606386517287239 0.05516276759360414 0.10121425800992734 1.9950741595238723 6.262159224971355 0.27503125483009533 1.8096271211894328 1.6600087414916451 12.275550126079048" Properties=species:S:1:pos:R:3:forces:R:3 unique_starting_index=192 config_type=initial n_minim_iter=3 energy=-1927.5650075943663 stress="-0.12925912718420202 -0.10964554412024852 -0.055629311304075064 -0.06102399803983256 -0.006033819593645292 -0.0026860889243840954" pbc="T T T"
Si       6.19478778       1.84091640      11.37683122       6.96123703       4.38524365       3.50297859
Si       4.05386816       6.61940850       3.13158075       1.55654017       8.71793219       8.13436862
Si       5.51971254       1.84106410       4.77837685      -0.69523290       0.17182058      -3.67887826
Si       6.85445237       4.63461425       9.41518983       1.40275379       5.78112427     -11.62727767
Si       6.23480906       4.65217000      11.13236448      -2.22612453      -0.04862729      11.40545286
Si       3.53897694       3.33755174       9.64560249       1.48701347     -12.42921602       2.72045928
Si       6.54503275       7.30231111      11.01184823      -7.90430196      -2.88839547      -2.91452947
Si       2.81971405       5.81462332       1.88831041      -7.80787890       2.36145254      -4.47445543
Si       4.99053368       4.46915104       9.46604587       2.75166884      -4.19630258      -6.37592159
Si       4.57087607       5.10953168       2.17654919       9.00582549      -4.34887571       0.83473201
Si       4.50149204       6.07961723      10.22837698      -2.66397675       9.23262241       5.01722256
Si       3.22393146       3.89278616       1.51848003      -1.86752375      -6.73877858      -2.54415151
12
Lattice="4.85662738504192 0.06481090617507734 0.11741518948704927 2.1127863117040713 6.560251363340632 0.4482105617309047 1.940104319581311 2.055555807118834 12.60947166103483" Properties=species:S:1:pos:R:3:forces:R:3 unique_starting_index=192 config_type=initial n_minim_iter=4 energy=-1933.3845177033136 stress="-0.08832774672573189 -0.04030611941989708 -0.015297137529803202 -0.037509244968834385 0.0016389123697612199 0.00544886614063765" pbc="T T T"
Si       6.57327902       2.23346151      11.71238252       4.01659498       2.02775217       1.71980213
Si       4.29432704       7.02454300       3.39899618       0.61348853       6.38599249       6.01287706
Si       5.83200625       2.05456514       4.94693084      -0.45996648       0.11929371      -3.66871989
Si       7.25754363       5.10572987       9.75726876       1.20505945       3.20211172      -7.96019164
Si       6.60393056       5.16212635      11.54455319      -1.64269103       0.74885617       7.96015748
Si       3.76136358       3.72553736       9.96817937       1.54560277      -8.13572370       1.49659354
Si       6.92376807       7.92501433      11.46935797      -4.83114731      -1.82851651      -2.09575358
Si       2.97224240       6.13718580       2.08327183      -6.60620356       2.39321328      -3.27061672
Si       5.29460261       4.91755867       9.80602795       1.51899290      -1.86716664      -2.95940357
Si       4.84622873       5.39985948       2.37250856       7.14853668      -4.43037359       0.05824686
Si       4.77556313       6.64377991      10.64395692      -1.71368807       5.58675084       3.87334539
Si       3.40443211       4.10397153       1.65818216      -0.79457885      -4.20218995      -1.16633705
12
Lattice="5.3092225735043055 0.043125926854040306 0.11570353958144852 2.2707889131419394 6.842639537945524 0.7061226300469111 2.0776458998010847 2.6271519418656313 12.892110693390268" Properties=species:S:1:pos:R:3:forces:R:3 unique_starting_index=192 config_type=initial n_minim_iter=5 energy=-1938.3841361777415 stress="-0.033692323275475264 0.005594599353721346 -0.001823939331019583 -0.010452629559614533 0.0031508604512902236 -0.0004885941528375973" pbc="T T T"
Si       7.16184320       2.75843984      11.98884182       1.84097846       0.44031549       0.74827043
Si       4.65014357       7.45681022       3.74337712      -1.15434217       3.26462219       3.06529034
Si       6.34937944       2.29959530       5.08772663       0.90951924      -0.55506825      -2.67638179
Si       7.88469364       5.66976416      10.08071621       2.18017149       1.71262026      -4.32621579
Si       7.15603932       5.80237249      11.94971657      -1.41590957       0.83784792       4.51148218
Si       4.07182335       4.22366698      10.27042033      -0.07069752      -4.79209825       1.04043401
Si       7.47436633       8.66168023      11.94501562      -1.75452044      -0.70081011      -1.47000611
Si       3.18065982       6.46732327       2.34002025      -3.04746603       1.52397274      -1.12202126
Si       5.74129695       5.47131064      10.13884099       0.64791906       0.17779983      -1.44088683
Si       5.29089400       5.67682563       2.61255658       3.16565400      -2.14836506       0.10854397
Si       5.15008816       7.33782603      11.08344546      -1.03901998       2.05727682       2.01572075
Si       3.69024742       4.30606123       1.83308970      -0.26228655      -1.81811357      -0.45422990
12
Lattice="5.620618797701093 0.047948865490007014 0.09307579660360045 2.4071923023258917 6.793215322015264 0.8102016685056268 2.1165032295272 2.849064858433924 12.968965684170984" Properties=species:S:1:pos:R:3:forces:R:3 unique_starting_index=192 config_type=initial n_minim_iter=6 energy=-1939.6734400228152 stress="-0.0007070415140427225 0.018653874173798043 0.008892989915855944 0.00040400928255539124 0.002855348929505683 -0.0018862047771336658" pbc="T T T"
Si       7.51902018       2.96836685      12.04666664       0.89423675       0.10315207       0.39174144
Si       4.89984310       7.48240628       3.87525976      -1.25740024       1.53518300       1.60576255
Si       6.69685278       2.37248246       5.10066440       1.30177671      -0.99421122      -2.94181958
Si       8.30161496       5.81799880      10.15352724       0.98034146       1.40334160      -2.98005035
Si       7.49456261       5.98904971      12.07502219      -1.11775708       0.58811491       3.24380845
Si       4.24640839       4.35609819      10.35526147       0.25851133      -3.67719057       0.90292140
Si       7.83070330       8.80626450      12.08491042      -0.77281669      -0.23535586      -1.00190194
Si       3.33759844       6.45995524       2.43493131      -1.07004740       1.47322453      -0.05473331
Si       6.02134169       5.61571073      10.22999951       0.82013926       0.20011288      -1.14244114
Si       5.61290289       5.66478796       2.68933969       0.51047422      -0.87202263       0.51087377
Si       5.38035601       7.49657830      11.22933144      -0.59729579       1.38081153       1.51690985
Si       3.89754302       4.29192716       1.88881874       0.04983748      -0.90516025      -0.05107114
12
Lattice="5.626813634548756 0.06156605264605929 0.0702679418444915 2.4288726280639676 6.597852536240497 0.7795070393447341 2.057285355976715 2.7728653858867607 12.772682538884528" Properties=species:S:1:pos:R:3:forces:R:3 unique_starting_index=192 config_type=initial n_minim_iter=7 energy=-1940.3226010886885 stress="-0.001375889642727566 0.012115797342309529 0.009695711331776897 -0.005391596687487025 0.0042477717052134606 0.0028670479554823904" pbc="T T T"
Si       7.47772827       2.90390053      11.84467900       0.69280555       0.22279809       0.46444129
Si       4.90188398       7.28297160       3.79895727      -0.86388601       1.69759202       1.73522161
Si       6.69283004       2.31311499       4.98566843       0.91777164      -0.33067884      -2.97554765
Si       8.28158013       5.67327298       9.95799399       0.57569567       1.64046871      -2.81087801
Si       7.45043333       5.83987390      11.88080758      -1.00632441       0.68022551       3.01326757
Si       4.21069571       4.22316213      10.18573125       0.62863884      -3.77404509       1.01767146
Si       7.79802679       8.56569646      11.86586576      -0.63855264      -0.42556939      -0.88207573
Si       3.34319531       6.28437442       2.37928736      -1.47887252       1.84382892      -0.10419841
Si       5.99663843       5.46695855      10.04902015       0.88019942      -0.25178371      -1.40835408
Si       5.62752194       5.50829052       2.62280304       0.97513146      -1.31508129       0.23038847
Si       5.34691159       7.29885869      11.04639812      -0.69736078       1.75492630       1.69084144
Si       3.90662965       4.17066243       1.83964621       0.01475379      -1.74268123       0.02922205
12
Lattice="5.635992172730151 0.04153003432540396 0.042633305831994726 2.404588491959192 6.4958062010143465 0.8000068904622074 1.9764718691388756 2.8135855455220913 12.627325326204948" Properties=species:S:1:pos:R:3:forces:R:3 unique_starting_index=192 config_type=initial n_minim_iter=8 energy=-1940.8101737900456 stress="0.0016316621014306185 0.010203042513661966 0.01155625873773001 -0.006769594303236826 0.003611910431117011 0.0037434324465626806" pbc="T T T"
Si       7.41515900       2.91857364      11.68691810       0.66028300       0.27532395       0.51695253
Si       4.85746293       7.19102457       3.78298052      -0.49515667       1.49590152       1.57580375
Si       6.67176901       2.28630248       4.89787645       0.79781558      -0.03758687      -3.05955441
Si       8.22047615       5.63291383       9.82639549       0.49998715       1.66030544      -2.56472010
Si       7.36792933       5.81457153      11.75016885      -0.85090503       0.71138003       2.80848755
Si       4.14660361       4.20309444      10.07037566       0.50654791      -3.66490072       1.00632296
Si       7.70780703       8.49066831      11.73668128      -0.56810367      -0.58395060      -0.74747631
Si       3.30439611       6.20182183       2.37532313      -1.60780199       1.74981118      -0.11435014
Si       5.93340292       5.43234727       9.92926861       0.86425911      -0.12458793      -1.47909197
Si       5.60729283       5.41967773       2.59868071       0.95603539      -0.98803709       0.13199761
Si       5.26195167       7.25611007      10.94153532      -0.66902197       1.61271937       1.59758205
Si       3.88749040       4.10075092       1.82363418      -0.09393883      -2.10637829       0.32804648
12
Lattice="5.623123853588419 0.013846856703888997 0.016390211028274836 2.3603990212729298 6.401668486772754 0.8350121911261258 1.890387139124725 2.8821014021724327 12.44620488916084" Properties=species:S:1:pos:R:3:forces:R:3 unique_starting_index=192 config_type=initial n_minim_iter=9 energy=-1941.3368353780986 stress="0.003901297215253917 0.007388230518427846 0.012179558278563988 -0.009018549872616462 0.0024880823593711253 0.004586239875406346" pbc="T T T"
Si       7.32561413       2.95207694      11.49865548       0.67700267       0.34754933       0.58840614
Si       4.78553261       7.11072517       3.77370723      -0.03872764       1.37075210       1.40774075
Si       6.62371236       2.26437238       4.79974268       0.65616649       0.34445697      -3.12509706
Si       8.12340507       5.61038187       9.67780356       0.53623382       1.68884689      -2.38783025
Si       7.25355471       5.81286295      11.59619582      -0.68556430       0.74357317       2.75994659
Si       4.06479665       4.20389089       9.93190779       0.31055267      -3.55027925       0.91765261
Si       7.57991929       8.44125127      11.59087242      -0.58827845      -0.77522139      -0.61943201
Si       3.24165681       6.12903514       2.38013334      -1.79826999       1.52106356      -0.17463092
Si       5.84410539       5.41838367       9.79010079       0.82737298       0.09940905      -1.58380302
Si       5.55812602       5.33754216       2.58068025       1.03517909      -0.62620964       0.00291886
Si       5.14989802       7.23980019      10.81926995      -0.66147035       1.36990435       1.45773361
Si       3.84672084       4.03354434       1.81332994      -0.27019700      -2.53384514       0.75639471
12
Lattice="5.605802675126542 -0.005072723243929214 0.005487881624301511 2.32664879766779 6.362586033211409 0.8680865598327137 1.8487539350629474 2.9462721409224244 12.34431528241483" Properties=species:S:1:pos:R:3:forces:R:3 unique_starting_index=192 config_type=initial n_minim_iter=10 energy=-1941.6558775100305 stress="0.004977747295487037 0.006919905554024885 0.012935888858237005 -0.010583706862010966 0.0019743916924750424 0.00481057438553961" pbc="T T T"
Si       7.27140634       2.99209898      11.39733411       0.68356673       0.37760064       0.62324139
Si       4.73566259       7.08416999       3.78303605       0.23851421       1.29007841       1.26876323
Si       6.58746748       2.26149891       4.75068343       0.54446694       0.57144767      -3.15229459
Si       8.05949028       5.62103064       9.60557495       0.61092410       1.68886464      -2.30644033
Si       7.18332417       5.83958921      11.51943260      -0.59274811       0.74234150       2.80200520
Si       4.01746546       4.22740304       9.85904613       0.17151235      -3.52479142       0.89640362
Si       7.49879187       8.44586742      11.52392558      -0.64722458      -0.88982454      -0.56683977
Si       3.19665200       6.10296980       2.39535793      -1.88386487       1.38211473      -0.18607105
Si       5.78876198       5.43523739       9.72060695       0.80718877       0.29877928      -1.61310383
Si       5.51902315       5.30453740       2.58298221       1.10820706      -0.40316536      -0.09058517
Si       5.08218702       7.26065337      10.76168210      -0.64531020       1.18925860       1.34743664
Si       3.81468199       4.00427610       1.81741810      -0.39523240      -2.72270415       0.97748465
12
Lattice="5.489523440435471 -0.10949922041942069 -0.04345540550607282 2.131757360593441 6.179381458028907 1.0809660384398265 1.6441189293922078 3.358532030140052 11.807228203939166" Properties=species:S:1:pos:R:3:forces:R:3 unique_starting_index=192 config_type=initial n_minim_iter=11 energy=-1943.3951349620036 stress="-0.006938132468153127 0.0034079139595256675 0.004512759552819544 -0.014839786663612013 -0.0028641294790608626 0.007025003875746695" pbc="T T T"
Si       6.97419425       3.26824534      10.87378484       0.78624429       0.36499578       0.46107934
Si       4.45498438       6.98248284       3.87267324       1.63163574       1.20879564       0.52912177
Si       6.37296148       2.27400155       4.50863424      -0.32707683       0.70951812      -0.86297134
Si       7.70159618       5.73848280       9.25626531       0.85946283       1.73686926      -2.29137553
Si       6.79908212       6.05720449      11.14149747      -0.24422913       0.43338185       3.63508835
Si       3.76468404       4.41419215       9.48684546      -0.66860233      -3.35950374       0.42622017
Si       7.05082785       8.55084218      11.21229093      -0.75891410      -1.11435399      -0.28596817
Si       2.93944774       5.99431275       2.51239381      -2.29690229       0.12804413      -0.23833928
Si       5.48535436       5.58959853       9.37925497       0.70099971       1.51936536      -1.71715107
Si       5.28880372       5.15842845       2.62885518       1.84517951       0.42304250      -0.15685633
Si       4.71566937       7.44582929      10.48913083      -0.59390205       0.37372883       0.73968309
Si       3.62584895       3.86769078       1.86485913      -0.93389536      -2.42388374      -0.23853101
12
Lattice="5.57030432214315 -0.17930627162026097 -0.024321535278399666 2.067466465142009 6.146047357951137 1.261094281050834 1.7065756014126447 3.6837339089076817 11.81023384365413" Properties=species:S:1:pos:R:3:forces:R:3 unique_starting_index=192 config_type=initial n_minim_iter=12 energy=-1944.2266835568028 stress="0.0010907441225580328 0.013355671597393266 0.0121916223330378 -0.009459142064408507 0.0012729817130170376 0.0054248779630831625" pbc="T T T"
Si       7.11559210       3.50107331      10.90705046       0.51512168       0.16377910       0.41428758
Si       4.44961284       7.01048293       4.06739889       1.47501049       0.46657220      -0.24989202
Si       6.45952277       2.32234802       4.55848208      -0.71132476       0.41388580      -0.20070910
Si       7.79952930       5.89848908       9.36579275       0.78197737       1.50764170      -2.11785915
Si       6.88194880       6.29124880      11.27252476      -0.33804210       0.30724484       3.02651731
Si       3.81592853       4.61154386       9.54361826      -0.95809880      -2.91058819       0.09301856
Si       7.09204064       8.74759288      11.38976082      -0.43386628      -0.95847387      -0.14148428
Si       2.87745847       5.99807620       2.67720505      -1.61477232      -0.20178041       0.67928245
Si       5.55312395       5.78230073       9.47738199       0.89387042       1.97506154      -1.21398734
Si       5.31881753       5.14176950       2.77821729       1.13198687       0.61182590      -0.01901889
Si       4.73671778       7.66945030      10.64086140      -0.27385171       0.10086691       0.52027163
Si       3.61974875       3.83797887       1.96926405      -0.46801086      -1.47603552      -0.79042674
12
Lattice="5.561905666642452 -0.22408323448921613 -0.040488260456839224 2.0011596767199613 6.010867798739612 1.3219097621265077 1.6460971709759504 3.784092025323344 11.620596546524212" Properties=species:S:1:pos:R:3:forces:R:3 unique_starting_index=192 config_type=initial n_minim_iter=13 energy=-1944.7569395540013 stress="-0.008562752885318402 -0.0003775507550952641 0.007091831102992835 -0.008297747150093763 -0.0013147328622886449 0.005742316829131766" pbc="T T T"
Si       7.05301416       3.54495189      10.72180103       0.38841159      -0.08499589       0.35243921
Si       4.37820078       6.88348107       4.07764365       1.42151550       0.34840364      -0.24000442
Si       6.41024419       2.29274679       4.48419638      -0.38439148       0.22344387       0.54639372
Si       7.71690922       5.85851638       9.23653944       0.36233750       1.35901305      -2.20198714
Si       6.78380526       6.28761565      11.13524332      -0.14097882       0.36912599       3.12776682
Si       3.73978120       4.61870570       9.40271556      -0.98077459      -2.92363920      -0.00827681
Si       6.96955860       8.67452452      11.26790557      -0.22196423      -0.69268628       0.12260066
Si       2.79434699       5.88424175       2.70806128      -1.54973951      -0.31366365       0.47104785
Si       5.47614400       5.77097123       9.35521229       0.99882702       2.12480248      -1.42757003
Si       5.26330955       5.02920797       2.78613951       1.23099972       0.66617035      -0.02827129
Si       4.63117124       7.63602629      10.52965864      -0.32672952       0.13853943       0.61599485
Si       3.56878876       3.74318452       1.97025070      -0.79751318      -1.21451379      -1.33013341
12
Lattice="5.634809912611406 -0.2668182112681042 -0.03737759870720384 1.971564655100664 6.01571262880296 1.388213178704029 1.667554667348577 3.9060764420644203 11.549641589169607" Properties=species:S:1:pos:R:3:forces:R:3 unique_starting_index=192 config_type=initial n_minim_iter=14 energy=-1945.112185810803 stress="-0.0005245570206827374 0.004564304879487862 0.011470477837640635 -0.0045751561279835234 5.162212698431443e-05 0.003208187547658087" pbc="T T T"
Si       7.14588804       3.61572114      10.66389462       0.26854133      -0.09023705       0.27899656
Si       4.39054130       6.90257242       4.12827103       1.26784430       0.09944521      -0.59650533
Si       6.48049897       2.29936692       4.47635398      -0.32890627       0.15647047       0.46990299
Si       7.78982848       5.91150667       9.21688974       0.38956436       0.91208179      -1.92086878
Si       6.84248519       6.37592717      11.12147491      -0.12423975       0.36813744       2.88603783
Si       3.76634897       4.68604849       9.36194380      -0.98079586      -2.52340111      -0.01727104
Si       7.00796083       8.75318741      11.26869799      -0.13954352      -0.53017246       0.22122027
Si       2.76822102       5.89900924       2.76061104      -1.15974332      -0.22471468       0.57370350
Si       5.52631483       5.84735201       9.33579795       0.83514061       2.06642301      -1.25470282
Si       5.29925509       5.02765942       2.82870446       0.83350129       0.54755179      -0.00747568
Si       4.64619823       7.72856181      10.52623751      -0.18415005       0.08650449       0.59530055
Si       3.57821372       3.73303593       1.99365113      -0.67721312      -0.86808891      -1.22833804
12
Lattice="5.641399597732488 -0.2930604633294787 -0.041534602888697564 1.9374970308660948 5.970035833955922 1.412674245543584 1.6509923426099098 3.9440429555845418 11.358513731274277" Properties=species:S:1:pos:R:3:forces:R:3 unique_starting_index=192 config_type=initial n_minim_iter=15 energy=-1945.4169498954557 stress="-0.003781231471392879 -0.0014519062326934671 0.010014961436108262 -0.0029835164430582852 -9.01587680164327e-05 0.001888533062294631" pbc="T T T"
Si       7.13804674       3.62278980      10.48604192       0.12090867      -0.16769527       0.10146424
Si       4.36652153       6.85419432       4.10321379       1.15504718       0.09850214      -0.69443106
Si       6.47116829       2.28159681       4.40919812      -0.12370051       0.08347043       0.62710354
Si       7.76865729       5.88914519       9.07853756       0.32778560       0.61349601      -1.72775239
Si       6.81326938       6.37637035      10.97280463      -0.02199154       0.43826985       3.00756570
Si       3.73873512       4.67932677       9.21301636      -0.89671381      -2.42813861       0.05127727
Si       6.96567282       8.72410117      11.12255489      -0.06275070      -0.32900439       0.40909720
Si       2.72541928       5.86027732       2.75950410      -1.00536665      -0.20446439       0.39584175
Si       5.50667898       5.84559590       9.20162057       0.65774343       1.94911426      -1.29966474
Si       5.28220785       4.98476368       2.81623277       0.85133459       0.53074722      -0.15075465
Si       4.60666444       7.71862696      10.39003379      -0.20328932       0.13665176       0.66398251
Si       3.55431710       3.69277781       1.97776269      -0.79900694      -0.72094902      -1.38372936
12
Lattice="5.68932160610998 -0.3152358145106111 -0.04375053345132002 1.9263413547701533 5.9898120017137595 1.4361842186730647 1.6545429422754665 3.9917328063005124 11.144357989092757" Properties=species:S:1:pos:R:3:forces:R:3 unique_starting_index=192 config_type=initial n_minim_iter=16 energy=-1945.7461388132494 stress="-6.0987198591093776e-05 -0.00013979116481602647 0.010277566979771745 -0.0017420484562083703 0.0006830143493989277 0.0008572897351713449" pbc="T T T"
Si       7.18943518       3.64478460      10.28777799      -0.08236173      -0.15598728      -0.17873251
Si       4.38778049       6.87459789       4.07106086       1.03891137       0.06219904      -0.80406029
Si       6.51530364       2.28411071       4.33670472      -0.05529128       0.12945915       0.61460338
Si       7.81564820       5.91212660       8.92314523       0.35976472       0.27071536      -1.40624705
Si       6.84599767       6.42594664      10.80920713       0.04125793       0.54384475       2.98472217
Si       3.74611052       4.69687559       9.04533570      -0.67974457      -2.10393648       0.04232110
Si       6.98982024       8.76779023      10.95852957      -0.01681678      -0.19033930       0.54641991
Si       2.70986930       5.88229544       2.75434667      -0.67828927      -0.23548291       0.42419420
Si       5.53770141       5.88868113       9.05023247       0.33210138       1.65156091      -1.18541943
Si       5.31442375       4.99594050       2.80008357       0.66854524       0.42258057      -0.37655979
Si       4.61315298       7.76947052      10.23625006      -0.16647775       0.10284316       0.71685203
Si       3.55896396       3.69083751       1.95705764      -0.76159926      -0.49745698      -1.37809374
12
Lattice="5.691910494048427 -0.33365720865912324 -0.05829124495772749 1.9015787602200038 5.994564960114343 1.4413262429616522 1.6092148785129203 4.010719037964161 10.739918185349762" Properties=species:S:1:pos:R:3:forces:R:3 unique_starting_index=192 config_type=initial n_minim_iter=17 energy=-1946.1893485630785 stress="-0.0052657443834651105 -0.004586942043967446 -0.0004676643776956464 -0.005954880296227618 -0.0021802741759767204 0.0014184326086419605" pbc="T T T"
Si       7.14766798       3.64134225       9.89849179      -0.41514664      -0.17895808      -0.85147662
Si       4.37696215       6.87089135       3.96647464       0.87849016       0.11551868      -0.23711382
Si       6.49456945       2.27969530       4.18164083      -0.05133829      -0.15993824       1.48038034
Si       7.77967552       5.90530354       8.60145817       0.44111893       0.26399336      -1.34311408
Si       6.79222878       6.45695801      10.46865505       0.15243324       0.77815934       2.81176112
Si       3.69413247       4.67873555       8.71639785      -0.48830617      -1.89587019      -0.21718184
Si       6.92917336       8.77699928      10.60755397       0.08901000      -0.07312556       0.67367637
Si       2.66679702       5.88740486       2.70738764      -0.17452864      -0.41887504       0.55578225
Si       5.49695109       5.91019754       8.73881503       0.00383434       1.40798041      -1.40699389
Si       5.30455475       4.99309603       2.73012272       0.63059107       0.39985488      -0.66356635
Si       4.55333172       7.78908299       9.91195426      -0.20388378       0.15030389       0.59669390
Si       3.52583666       3.67454537       1.89489149      -0.86227424      -0.38904346      -1.39884737
12
Lattice="5.749765538734812 -0.3481313883968452 -0.04298135806267374 1.9053610511090977 6.060099098263566 1.5181246966941704 1.667855904433558 4.162101554948382 10.801405241441252" Properties=species:S:1:pos:R:3:forces:R:3 unique_starting_index=192 config_type=initial n_minim_iter=18 energy=-1946.3720624251528 stress="0.007590717596603705 0.005342544543787095 0.012268591278591664 -0.0021368729252086716 -0.00038215713850525457 0.0007811393596487236" pbc="T T T"
Si       7.25418236       3.76614644       9.96873606      -0.37920084      -0.13968577      -0.58090889