24
Lattice="6.891341304185348 0.6262095991799803 0.03435411302042539 2.2311236616939394 9.043403568165568 2.5553264674711276 3.4421641897746826 5.3258567577053935 9.49021893164138" Properties=species:S:1:pos:R:3:forces:R:3 unique_starting_index=216 config_type=initial n_minim_iter=1 energy=-3910.489590368635 stress="-7.63911932803856e-05 0.0015940364880834585 -0.00019706494525210326 0.0015940364880834585 0.0009883285686257816 -0.00039051106307941275 -0.00019706494525210326 -0.00039051106307941275 0.000501119855062365" free_energy=-3910.489590368635 pbc="T T T"
Si       8.50493907       7.27436797       4.44650084       0.02833173       0.07292900      -0.01301110
Si       5.27010920       8.07060437       6.33296685      -0.02357147      -0.05370294       0.00923321
Si       8.60557788      10.57294615       4.80679021       0.01747213       0.07736542      -0.03199988
Si       3.60203310       6.08381534       8.61923799      -0.01497312       0.01454418      -0.07236500
Si       2.93838749       8.40946716       3.50696462      -0.08546396      -0.04092730      -0.01790290
Si       8.24802234       6.28018000       8.22798051       0.02557712      -0.06078164       0.06429892
Si       6.66591550       6.89661357       3.03746021       0.05669041      -0.04072740      -0.02148152
Si       7.61134263       7.87607180       6.59990811      -0.00028257      -0.01606260       0.06477914
Si       6.22112991       4.12869236       6.21276602       0.02711114      -0.02497135      -0.01018358
Si       9.58212190       3.30301787       5.96528223      -0.02940070      -0.05707755      -0.02021256
Si       5.20504352       8.41707048       4.03544154       0.05461538       0.01622936       0.05140695
Si       3.92795983       9.64866727       7.60892279      -0.00931654      -0.01386989       0.02456010
Si       4.59183739       5.79644546       6.52871270      -0.04778328       0.00630252      -0.00377465
Si       8.46091955      10.01464761       7.04350834       0.02959798      -0.01028765      -0.01956050
Si       7.22211961      11.13809607       8.73114851      -0.01135072       0.08650944      -0.05775263
Si      10.32623936      13.02422611      10.24466009      -0.06669048       0.04649965       0.01799426
Si       0.79888237       2.91394222       2.10284076      -0.03675183      -0.05049652       0.06098396
Si       3.07428889       4.89451134       4.90158175       0.01121703      -0.03380909       0.07608080
Si       6.52285897       4.66373698       3.80832901       0.02204737       0.00531604      -0.00140634
Si       6.51322291      10.33578773       3.57428121       0.05662965      -0.09711340      -0.02519521
Si       4.36182986       4.55689287       2.99402243      -0.03711838       0.02295607       0.03266523
Si       7.90427449       9.40420767      10.16072955       0.04330818       0.05177111       0.03302442
Si       6.76497232       3.64047772       0.00563066      -0.02226838      -0.05334872      -0.03804904
Si       3.11080757       2.68563996       2.41683229       0.01237330       0.15275327      -0.10213207
24
Lattice="6.890729383764288 0.6105408770543069 0.03649395411577726 2.2125495202152377 9.027881780069404 2.5589588110235653 3.4335742040813195 5.316341284356653 9.487513702681797" Properties=species:S:1:pos:R:3:forces:R:3 unique_starting_index=216 config_type=initial n_minim_iter=2 energy=-3910.4920610350428 stress="-3.561310521854726e-05 6.148426616340154e-05 -0.00013539191508402378 6.148426616340154e-05 -0.0004771327637306949 4.3210049130527874e-05 -0.00013539191508402378 4.3210049130527874e-05 -0.00033978284394190655" free_energy=-3910.4920610350428 pbc="T T T"
Si       8.49142151       7.24888355       4.44955142       0.02137118       0.03033031       0.01068600
Si       5.25489264       8.05167517       6.33436019      -0.00979446      -0.02286480       0.02934102
Si       8.58502788      10.54304780       4.81131094       0.00877742       0.04720112      -0.05227968
Si       3.59155333       6.07252514       8.61736526      -0.01062358       0.01759536      -0.06946950
Si       2.92127130       8.39365607       3.50975630      -0.06628279      -0.00945620      -0.01497643
Si       8.23761915       6.25820081       8.22808966       0.02081058      -0.05018769       0.05968081
Si       6.65272199       6.87453898       3.04075356       0.03419692      -0.00897054      -0.01271161
Si       7.59692803       7.85260111       6.60179421      -0.01578874      -0.04731560       0.05339664
Si       6.21461718       4.11298661       6.21236084       0.03968339       0.03164403       0.00138672
Si       9.57752198       3.28095112       5.96547527      -0.02424631      -0.05827952      -0.00037067
Si       5.18867821       8.39680021       4.03867371       0.04065645      -0.01801843       0.03274219
Si       3.90957903       9.63130886       7.60996950      -0.00262362      -0.00991292      -0.01407495
Si       4.58143494       5.78228019       6.52855755      -0.02450278      -0.03274001      -0.00324667
Si       8.44218639       9.98674336       7.04621488       0.03215945       0.01908794       0.00550490
Si       7.20116932      11.11252093       8.73286931      -0.04381094       0.05189382      -0.06842636
Si      10.30180216      12.99013397      10.24738512      -0.07102034       0.02259145       0.00158283
Si       0.79314491       2.90930424       2.10333396      -0.01660343      -0.01343846       0.06503256
Si       3.06540051       4.88385020       4.90187035      -0.00706699      -0.01567905       0.06085309
Si       6.51457140       4.64548273       3.80993971       0.02661718      -0.01799511      -0.00430968
Si       6.49274436      10.30958277       3.57897401       0.07216644      -0.06002042      -0.01774649
Si       4.35316383       4.54305797       2.99564789      -0.00576522       0.05815196       0.05116813
Si       7.88766469       9.38013289      10.16099940       0.04500397       0.03732941       0.02198010
Si       6.75778200       3.62089875       0.00924111      -0.03202307      -0.05619728      -0.01583909
Si       3.10602455       2.67705038       2.41715678      -0.01129070       0.10525064      -0.11990387
24
Lattice="6.891142300762294 0.6069452502871234 0.03925340947246026 2.2083376036377054 9.034889220857272 2.561680530270651 3.4345024061054965 5.319188066868942 9.495667921965694" Properties=species:S:1:pos:R:3:forces:R:3 unique_starting_index=216 config_type=initial n_minim_iter=3 energy=-3910.4926116325114 stress="0.0005609290985357295 -0.00033759234762715715 -5.136372805627726e-06 -0.00033759234762715715 0.00043224805819771226 2.7795747626122724e-05 -5.136372805627726e-06 2.7795747626122724e-05 0.000614510195548937" free_energy=-3910.4926116325114 pbc="T T T"
Si       8.48986600       7.25065624       4.45615981       0.02304405       0.01524315       0.01693399
Si       5.25304888       8.05579885       6.34114278      -0.01126102      -0.02210638       0.01990806
Si       8.58155661      10.54789726       4.81788482       0.01089325       0.03506650      -0.04847730
Si       3.59163050       6.07607342       8.62456120      -0.00327717       0.01538501      -0.05243400
Si       2.91750966       8.39957989       3.51334993      -0.06316427       0.01074928      -0.01821612
Si       8.23813550       6.25872291       8.23759444       0.01375305      -0.04636350       0.04810927
Si       6.65071229       6.87680616       3.04549915       0.02844875      -0.00610342      -0.00191249
Si       7.59555573       7.85502328       6.60985234      -0.01057783      -0.04861519       0.06055616
Si       6.21550391       4.11318766       6.21927560       0.02973654       0.04017465       0.00138314
Si       9.57883014       3.27787312       5.97352996      -0.02611978      -0.05871381       0.00362870
Si       5.18601095       8.40134479       4.04383124       0.04043613      -0.02966553       0.03722145
Si       3.90717860       9.63779440       7.61691839      -0.00135471      -0.01719971      -0.01334705
Si       4.58087972       5.78469780       6.53503263      -0.01562701      -0.03887567      -0.00856571
Si       8.44005338       9.99097123       7.05463440       0.02857053       0.01709349      -0.00170086
Si       7.19846808      11.11876584       8.74160116      -0.03530947       0.03599595      -0.05971869
Si      10.29873858      12.99607027      10.25883684      -0.07281966       0.03044035       0.00350893
Si       0.79219842       2.91141761       2.10552752      -0.02273674      -0.01248902       0.05045196
Si       3.06469876       4.88641620       4.90695644      -0.01438708      -0.00406546       0.05578493
Si       6.51414493       4.64575483       3.81523176       0.02536579      -0.01211047      -0.01026258
Si       6.48904460      10.31482419       3.58401836       0.06855664      -0.05607026      -0.00407867
Si       4.35203186       4.54494320       2.99980643       0.00160587       0.05724989       0.04942094
Si       7.88714903       9.38426708      10.17154078       0.03395869       0.05525483       0.01397662
Si       6.75616674       3.61984520       0.01182911      -0.02505837      -0.06184913      -0.00743131
Si       3.10565312       2.67828050       2.41944448      -0.00267619       0.10157445      -0.13473934
24
Lattice="6.878843775275055 0.6056316866935738 0.04623524452006205 2.2046353851784146 9.04131993967542 2.561928655239815 3.4367509241519354 5.3215286146233405 9.494758826392433" Properties=species:S:1:pos:R:3:forces:R:3 unique_starting_index=216 config_type=initial n_minim_iter=4 energy=-3910.4940142824375 stress="-0.0011605727258478206 -0.0002839803441830477 0.0006143483177869027 -0.0002839803441830477 0.0004902928519967035 -0.0002834312266098662 0.0006143483177869027 -0.0002834312266098662 -0.0001941944586035889" free_energy=-3910.4940142824375 pbc="T T T"
Si       8.47798081       7.25441066       4.46252028       0.02565404      -0.00685745       0.01886677
Si       5.24786768       8.05968349       6.34363021      -0.02753681      -0.02507381       0.01956414
Si       8.56871721      10.55462560       4.82249132       0.00730910       0.03091311      -0.02908326
Si       3.59231334       6.07944772       8.62267596       0.02205181       0.01480355      -0.00707516
Si       2.91223690       8.40511203       3.51364538      -0.03874417       0.02306338      -0.03774769
Si       8.23077363       6.25961290       8.24325465      -0.01686779      -0.04636656       0.00831788
Si       6.64098150       6.88005607       3.05012642       0.02745758      -0.02785472      -0.00020820
Si       7.58652872       7.85763840       6.61535198       0.01604994      -0.03584067       0.07748989
Si       6.21057893       4.11487082       6.22269382       0.01450318       0.03380235      -0.00383736
Si       9.56660713       3.27606927       5.98056034      -0.03440006      -0.05363113      -0.00785687
Si       5.17965782       8.40588180       4.04738163       0.02830739      -0.02874789       0.03456902
Si       3.90544501       9.64342729       7.61653960       0.00363777      -0.01549922      -0.00563535
Si       4.57743533       5.78673355       6.53633649      -0.00188022      -0.02938336      -0.03208807
Si       8.43037216       9.99640817       7.05937647       0.01576094      -0.00359566      -0.01789187
Si       7.19086754      11.12596680       8.74280014      -0.01127995       0.02312067      -0.02643614
Si      10.28600194      13.00332926      10.26389465      -0.06316810       0.03096947       0.01794722
Si       0.79174114       2.91298809       2.10648895      -0.03375419      -0.01524327       0.00340990
Si       3.06282623       4.88873176       4.90890329      -0.03962079       0.00254842       0.06456308
Si       6.50587467       4.64705637       3.81972359       0.03073490       0.01705325       0.00806515
Si       6.48003246      10.31970111       3.58780305       0.04042990      -0.05885367       0.02449614
Si       4.34607879       4.54836957       3.00364898       0.00888167       0.05579428       0.02258872
Si       7.88203378       9.38962466      10.17492571      -0.00147396       0.08623348       0.00455660
Si       6.74263418       3.61972667       0.01803803      -0.00065454      -0.07070267       0.00393372
Si       3.10176011       2.68172252       2.41862761       0.02860235       0.09934810      -0.14050823
24
Lattice="6.88888028295442 0.6116297228385509 0.044519158049705056 2.2148788926991942 9.043263872800534 2.5747764327452116 3.4425817381393724 5.337275386539384 9.49950478946796" Properties=species:S:1:pos:R:3:forces:R:3 unique_starting_index=216 config_type=initial n_minim_iter=5 energy=-3910.499682322319 stress="-1.9632095986347877e-06 3.215015659320091e-05 0.0001978777959138847 3.215015659320091e-05 0.00017956456572382207 0.0006530889796463545 0.0001978777959138847 0.0006530889796463545 -0.00031025340911251397" free_energy=-3910.499682322319 pbc="T T T"
Si       8.49675598       7.26807611       4.47085219      -0.03010172      -0.02944383       0.03582258
Si       5.25861518       8.06840917       6.35515036       0.00040538      -0.02737541       0.03081694
Si       8.58915695      10.56940408       4.83014992       0.00147845      -0.02413168       0.02197715
Si       3.59898478       6.09519937       8.62333539      -0.00541766      -0.01320288       0.01990949
Si       2.91637588       8.40945487       3.52306115       0.10957967       0.03834931      -0.00826437
Si       8.24593271       6.27246032       8.25274429       0.00883128      -0.02118477      -0.01530975
Si       6.65842148       6.88649745       3.05690055       0.02133323      -0.00284462       0.03956797
Si       7.60070320       7.86708193       6.62905976       0.01021729       0.03285835       0.02839208
Si       6.22360553       4.13152437       6.22527662      -0.05004482       0.00333003      -0.02537808
Si       9.57785901       3.28705286       5.98040429      -0.06593714      -0.01035680       0.03168802
Si       5.19674627       8.41108186       4.06116561      -0.06445137      -0.02915688      -0.02037759
Si       3.91642453       9.65336949       7.62739578       0.00225881      -0.01107450      -0.00069087
Si       4.58448977       5.79548642       6.54121921       0.00913221      -0.00945255      -0.03751472
Si       8.45110656      10.01198291       7.07007967      -0.02858830      -0.03663372      -0.04166880
Si       7.20401071      11.14568026       8.74968886       0.05538419       0.00535064      -0.01221930
Si      10.30107623      13.02569920      10.27850615       0.01747647      -0.03107671      -0.00567366
Si       0.79250491       2.91422378       2.11532709      -0.00705994      -0.00433706      -0.07620265
Si       3.06830804       4.89603612       4.92019953      -0.02376025      -0.00579222       0.01852818
Si       6.52018732       4.65588943       3.82322641      -0.02069631       0.02389856       0.02822800
Si       6.50340148      10.32055711       3.59997503      -0.04307739      -0.00005481       0.10740723
Si       4.35469204       4.56044642       3.01290038       0.01807056       0.03058358       0.02701872
Si       7.90083944       9.41354527      10.18598841      -0.02867174       0.09083316      -0.00288066
Si       6.75281328       3.61833411       0.01999069       0.01292488      -0.04177447       0.03583335
Si       3.10729309       2.69749605       2.40873373       0.10071422       0.07268930      -0.17900926
24
Lattice="6.889553987814847 0.6102799593799415 0.040001204858569 2.2126884576627455 9.032530151925657 2.5622135206129375 3.4373102792454344 5.319234572772524 9.4959752024243" Properties=species:S:1:pos:R:3:forces:R:3 unique_starting_index=216 config_type=initial n_minim_iter=6 energy=-3910.5008499517503 stress="-0.00012707079340940096 -6.357070110805259e-05 -1.506047845699377e-05 -6.357070110805259e-05 -0.0005712160792155148 -0.0002804727415126795 -1.506047845699377e-05 -0.0002804727415126795 0.000412617923763233" free_energy=-3910.5008499517503 pbc="T T T"
Si       8.49484271       7.25558768       4.45917943      -0.02219308      -0.03063802       0.04065852
Si       5.25457213       8.05187344       6.34548438       0.01031792      -0.01926161       0.00953614
Si       8.58653948      10.55440718       4.81244810      -0.00918508      -0.03637627       0.06489525
Si       3.59396548       6.07813714       8.61687003       0.01006058      -0.04793278       0.03366156
Si       2.91298174       8.39794285       3.51113570       0.12899321       0.03246376      -0.02538545
Si       8.24213434       6.25365172       8.24561056      -0.00377809       0.01620373      -0.01829322
Si       6.65763316       6.87583322       3.04540627       0.01767708      -0.00485455       0.01916230
Si       7.59696575       7.84992164       6.61943328       0.01192938       0.00805602       0.02983032
Si       6.22099375       4.11948469       6.21979394      -0.05480170       0.00376118      -0.04048867
Si       9.57438340       3.27344995       5.97448546      -0.05806504       0.01105911       0.03986616
Si       5.19475234       8.39767936       4.04957965      -0.07781757      -0.02796878      -0.00693937
Si       3.91165137       9.63435411       7.61598764      -0.01468204      -0.03565097       0.03014466
Si       4.58042839       5.78041831       6.53414144       0.01081950       0.00426949      -0.01440495
Si       8.44763333       9.99342846       7.05536111      -0.02576437      -0.02048446      -0.06793562
Si       7.19835715      11.12501841       8.73386336       0.06171834      -0.01534414       0.00598500
Si      10.29369077      13.00043687      10.26085408       0.03475548      -0.06184064      -0.00282780
Si       0.79057123       2.90851436       2.11283746       0.01289414       0.00381802      -0.09484748
Si       3.06504604       4.88465175       4.91615831      -0.03469747      -0.02165827      -0.00293811
Si       6.51884560       4.64603283       3.81552930      -0.02329957       0.03331755       0.05227249
Si       6.50230560      10.30543758       3.58435039      -0.05204700      -0.00264264       0.09857819
Si       4.35305235       4.55365617       3.00714970       0.01209557       0.04259063       0.03352624
Si       7.89588087       9.39262478      10.17506758      -0.03817388       0.10214704      -0.02206176
Si       6.75261674       3.61314781       0.01112050       0.01930469       0.00334607       0.02291635
Si       3.10656048       2.69455859       2.40073853       0.08393902       0.06362054      -0.18491077
24
Lattice="6.894640160281442 0.6095820810115152 0.03383113688701244 2.209781842952539 9.04819777765322 2.547350741232667 3.4307966741877345 5.32089209246196 9.469336920805317" Properties=species:S:1:pos:R:3:forces:R:3 unique_starting_index=216 config_type=initial n_minim_iter=7 energy=-3910.5032797042027 stress="0.0005995554407049158 -0.00011987005699521592 -0.0004865585916944688 -0.00011987005699521592 0.0007660584239598076 -0.0005783431722552368 -0.0004865585916944688 -0.0005783431722552368 -0.001056673160322722" free_energy=-3910.5032797042027 pbc="T T T"
Si       8.49617556       7.26462245       4.43852112       0.02549644      -0.03033839       0.03804069
Si       5.25073197       8.05955867       6.32300148       0.01812487      -0.03491974       0.03512193
Si       8.58664661      10.57078691       4.78548932       0.01059527      -0.04939211       0.05501078
Si       3.58791866       6.08202791       8.58918505      -0.00179663      -0.04632622       0.05928952
Si       2.91005999       8.41210401       3.49296987       0.12030920       0.01986522      -0.00408599
Si       8.24081562       6.25457039       8.21879943      -0.00325474       0.02348486      -0.04878572
Si       6.66048174       6.88468002       3.02818281      -0.02857026      -0.00979305       0.02570023
Si       7.59511593       7.85650467       6.59667748       0.01279044       0.02880214       0.03986986
Si       6.21979953       4.12230829       6.19770853      -0.09239870      -0.00381660      -0.03921892
Si       9.57313177       3.26953840       5.95266363      -0.02642594       0.02616097       0.03630918
Si       5.19321082       8.40820547       4.03125192      -0.05316439      -0.01789298      -0.04884118
Si       3.90552952       9.64509574       7.58895565      -0.02379538      -0.05942912       0.05020025
Si       4.57630454       5.78374242       6.51112431       0.05734869       0.02092603      -0.00932733
Si       8.44631658      10.00533042       7.02400765      -0.03888902      -0.04127158      -0.05167661
Si       7.19355330      11.14028903       8.69772000       0.06948555      -0.00304977       0.02085820
Si      10.28696135      13.01539343      10.22058534       0.06021267      -0.04519048       0.00624802
Si       0.78768482       2.91162567       2.10569245       0.04735042      -0.00916527      -0.07246707
Si       3.06072468       4.88860091       4.90258653      -0.07930328      -0.02050332      -0.03578004
Si       6.52017136       4.65068234       3.79935214      -0.01619397       0.06181937       0.04563026
Si       6.50347611      10.31859605       3.56506145      -0.09231402      -0.04522483       0.12845547
Si       4.35284877       4.56277113       2.99657044       0.01034105       0.03272800       0.03354733
Si       7.89193036       9.40573534      10.14043866      -0.04374247       0.10971220      -0.05236387
Si       6.75599557       3.61535637       0.00262380      -0.00983645       0.02137894      -0.01488449
Si       3.10849247       2.70405917       2.38025373       0.07763065       0.07143571      -0.19685052
24
Lattice="6.882346815868038 0.6158760083778887 0.04018010100474054 2.213029224581612 9.08424520689085 2.5695363900167063 3.4347827926815673 5.357643500316526 9.497692120879318" Properties=species:S:1:pos:R:3:forces:R:3 unique_starting_index=216 config_type=initial n_minim_iter=8 energy=-3910.5207487119987 stress="-8.854484169758874e-05 0.0005549478303030179 -0.0015548925824788423 0.0005549478303030179 0.0013907253530936886 0.000624741170523669 -0.0015548925824788423 0.000624741170523669 0.0004143667866738168" free_energy=-3910.5207487119987 pbc="T T T"
Si       8.49137109       7.30348418       4.47544989       0.02719164       0.02297313       0.04831618
Si       5.24825980       8.08960906       6.36244516       0.01252358      -0.00622432      -0.04343810
Si       8.58307357      10.62613841       4.81430002       0.06895160      -0.16695110       0.07834858
Si       3.59054657       6.11837967       8.60734506       0.06288786      -0.07439867       0.13255989
Si       2.91564211       8.45339654       3.50817451       0.04794672      -0.01711532       0.08870960
Si       8.23979406       6.28187660       8.26042982      -0.07319571       0.04221741      -0.01253359
Si       6.66606524       6.91260822       3.05318164      -0.09863256       0.04086717       0.06815263
Si       7.59034905       7.89053998       6.64956147       0.04709025       0.09680659      -0.06442101
Si       6.21432842       4.15971723       6.21438452      -0.11007958      -0.07917826      -0.01512241
Si       9.54485101       3.28178692       5.98172101       0.07462141       0.07248576       0.03197064
Si       5.19085985       8.43626867       4.06386267       0.03044941      -0.02332345      -0.02156502
Si       3.90766113       9.68438520       7.62308210      -0.04375670      -0.08531732       0.09938200
Si       4.57340098       5.80900743       6.52977422       0.02214203       0.09733385       0.03710468
Si       8.44501792      10.05487358       7.05021603      -0.09301512      -0.07750808      -0.00016730
Si       7.19433566      11.20917124       8.72164939       0.05129772      -0.00316929       0.01531530
Si      10.26953774      13.08281314      10.27017876       0.12657320      -0.06549540       0.04961502
Si       0.78516208       2.92085000       2.11496382       0.08359892       0.06506203      -0.07853235
Si       3.05205471       4.90977413       4.93904391      -0.08123007      -0.04552700      -0.11922086
Si       6.51742239       4.68005048       3.82521824       0.06114693       0.04228435      -0.02533883
Si       6.50927718      10.34484361       3.61045151      -0.15814822      -0.15879011       0.05809888
Si       4.35105745       4.60765931       3.03120950      -0.05343143      -0.03191681      -0.05382480
Si       7.89427548       9.49118889      10.18243735      -0.06818423       0.13115779      -0.01058476
Si       6.74104332       3.61297197       0.01458110      -0.02495912       0.08086862      -0.03939250
Si       3.12094871       2.76072854       2.32482558       0.08821148       0.14285843      -0.22343188
24
Lattice="6.891643850454828 0.6190860242731737 0.05956371108087807 2.226732809040187 9.09183839077085 2.572818462382755 3.4682920406477895 5.360690443122201 9.50412565233704" Properties=species:S:1:pos:R:3:forces:R:3 unique_starting_index=216 config_type=initial n_minim_iter=9 energy=-3910.5282635414114 stress="0.001861837049671318 0.0011446863070062104 0.00012149738411798878 0.0011446863070062104 0.0008916198657954894 0.00028621952674274495 0.00012149738411798878 0.00028621952674274495 -0.0001597878479995413" free_energy=-3910.5282635414114 pbc="T T T"
Si       8.51943952       7.31213071       4.50183833       0.01115661       0.01850759      -0.00529046
Si       5.27524978       8.09107923       6.37860149       0.05943078      -0.00033767      -0.07302121
Si       8.61336249      10.63892535       4.83320385       0.05298180      -0.18353169       0.06416480
Si       3.62199465       6.12115169       8.61018962       0.02995968      -0.11282573       0.18670871
Si       2.93508707       8.46313533       3.50990174       0.05536346      -0.05495336       0.11480408
Si       8.27799995       6.28190372       8.28510119      -0.04865702       0.07086440      -0.01569761
Si       6.69115550       6.91809151       3.07123413      -0.06930874       0.05528731       0.10823808
Si       7.62226619       7.89449496       6.67784575       0.00511933       0.11801691      -0.08003555
Si       6.24039470       4.16773459       6.22659924      -0.07893597      -0.11506872       0.02301249
Si       9.56744494       3.27973077       6.00981561       0.16971655       0.06168471       0.00176349
Si       5.21176379       8.43889227       4.07856399       0.02273419      -0.00615894      -0.00575307
Si       3.93691167       9.68703134       7.63096509      -0.08294204      -0.08102707       0.10796793
Si       4.59896475       5.81010929       6.53694275       0.00149852       0.12066697       0.00879892
Si       8.48077872      10.06331113       7.06499905      -0.07200607      -0.09933304       0.03383080
Si       7.23367137      11.22415934       8.72970937      -0.00345842       0.01586723       0.04195125
Si      10.31121173      13.09384486      10.29443809       0.08985678      -0.06637543       0.05390132
Si       0.79162755       2.92107689       2.11503977       0.15981944       0.07695426      -0.12058381
Si       3.06684348       4.91063085       4.95292203      -0.08364388      -0.03270256      -0.11555894
Si       6.54047234       4.68718105       3.84474795       0.02234226       0.04476813      -0.06947791
Si       6.53533681      10.34548793       3.63370587      -0.13111484      -0.24041610       0.04689858
Si       4.36761339       4.62266059       3.05014462       0.00225348      -0.06161861      -0.09544671
Si       7.93831668       9.51504619      10.20099001      -0.07012644       0.15392619      -0.00466160
Si       6.74905784       3.61011023       0.03295423      -0.04531599       0.12359942      -0.00593628
Si       3.14039418       2.78407851       2.29908921       0.00327652       0.19420583      -0.20057727
24
Lattice="6.87237431060003 0.6090660428853788 0.06954868120479102 2.208784507529372 9.116642971025085 2.5746348958641625 3.463931660840923 5.368233634804397 9.515504007474819" Properties=species:S:1:pos:R:3:forces:R:3 unique_starting_index=216 config_type=initial n_minim_iter=10 energy=-3910.542377126803 stress="0.0006138367782001991 0.00048162633179792505 -0.00020373419140327546 0.00048162633179792505 0.0010468527085476013 0.0006774231509256513 -0.00020373419140327546 0.0006774231509256513 0.00023144420544178763" free_energy=-3910.542377126803 pbc="T T T"
Si       8.49318919       7.31961870       4.52561460       0.04951028       0.04563536      -0.00769019
Si       5.25564904       8.09554110       6.39671330       0.04384520       0.04554756      -0.12257323
Si       8.58200912      10.65732357       4.84485254       0.10101493      -0.23641161       0.04009951
Si       3.61527423       6.12682895       8.61667278       0.09584362      -0.10726768       0.23805405
Si       2.92546502       8.48932604       3.50823927      -0.07646060      -0.10141564       0.16616041
Si       8.25949813       6.27473709       8.30964789      -0.11980933       0.07963268       0.01200040
Si       6.67454673       6.92481893       3.08575012      -0.12584785       0.07495255       0.10429444
Si       7.59885860       7.89921860       6.71003821       0.01332196       0.10390985      -0.13477168
Si       6.22152330       4.17398446       6.23356943      -0.02543056      -0.12099598       0.07035708
Si       9.53163110       3.25979251       6.03426415       0.27497765       0.06528498      -0.04977904
Si       5.18679242       8.44544706       4.09169696       0.12039890      -0.03263414       0.05140134
Si       3.91755526       9.69856737       7.64294987      -0.09377658      -0.10279632       0.12369227
Si       4.58466986       5.81319458       6.54137609      -0.01977429       0.14832667       0.05062814
Si       8.45138355      10.07479497       7.06957835      -0.06688851      -0.08154832       0.12597667
Si       7.21058393      11.25422392       8.73048814      -0.08235264      -0.01738020       0.04924747