22
Lattice="3.80024 -2.326975875995874e-16 -2.326975875995869e-16 5.561629343349764e-16 9.082829999999996 2.834381416372375e-30 7.584739732307209e-16 3.818979030256095e-30 12.386819999999998" Properties=species:S:1:pos:R:3:forces:R:3 unique_starting_index=486 config_type=initial n_minim_iter=1 energy=-3519.9723798090176 stress="-0.1514378590676984 -0.46933345670251897 -0.36255004273284597 4.1280806346147935e-12 3.696036385085253e-12 1.8708626857125026e-12" pbc="T T T"
Si       2.07283939       2.93848897      10.83150858      -6.87866253      15.28138998     -12.76120984
Si       2.07283939       6.14434103       1.55531142      -6.87866253     -15.28138998      12.76120984
Si       0.17271939       7.47990397       7.74872142      -6.87866253      15.28138998      12.76120984
Si       0.17271939       1.60292603       4.63809858      -6.87866253     -15.28138998     -12.76120984
Si       1.93800725       2.41163306       1.87391405      -9.27446306     -21.49251375     -13.73936911
Si       1.93800725       6.67119694      10.51290595      -9.27446306      21.49251375      13.73936911
Si       0.03788725       6.95304806       4.31949595      -9.27446306     -21.49251375      13.73936911
Si       0.03788725       2.12978194       8.06732405      -9.27446306      21.49251375     -13.73936911
Si       0.75019816       2.78565855       5.67468590       5.89384866      10.13867474      13.63685157
Si       0.75019816       6.29717145       6.71213410       5.89384866     -10.13867474     -13.63685157
Si       2.65031816       7.32707355       0.51872410       5.89384866      10.13867474     -13.63685157
Si       2.65031816       1.75575645      11.86809590       5.89384866     -10.13867474      13.63685157
Si       2.14406007       5.07743004       7.72672986      -1.22139755      -2.08128089       0.97235144
Si       2.14406007       4.00539996       4.66009014      -1.22139755       2.08128089      -0.97235144
Si       0.24394007       0.53601504      10.85350014      -1.22139755      -2.08128089      -0.97235144
Si       0.24394007       8.54681496       1.53331986      -1.22139755       2.08128089       0.97235144
Si       0.57176815       8.21751605       3.49724893       9.90351074      21.89126025      -9.21967161
Si       0.57176815       0.86531395       8.88957107       9.90351074     -21.89126025       9.21967161
Si       2.47188815       3.67610105       2.69616107       9.90351074      21.89126025       9.21967161
Si       2.47188815       5.40672895       9.69065893       9.90351074     -21.89126025      -9.21967161
Si       1.50238650      -0.00000000      -0.00000000       3.15432748      -0.00000000       0.00000000
Si       3.40250650       4.54141500       6.19341000       3.15432748       0.00000000      -0.00000000
22
Lattice="3.8249256329616204 -2.1198247956307387e-16 -1.9922362325403151e-16 6.205591885125786e-16 9.266932390689458 1.779587933424482e-17 8.843574223551155e-16 2.4269347114832067e-17 12.580324101250262" Properties=species:S:1:pos:R:3:forces:R:3 unique_starting_index=486 config_type=initial n_minim_iter=2 energy=-3527.212068617642 stress="-0.1265856350174926 -0.3979835032455298 -0.30188500394495565 9.289441942360606e-12 -5.235883098310715e-12 -5.918807760575523e-12" pbc="T T T"
Si       2.08561182       2.99960913      10.99941990      -6.07579915      13.28859018     -11.35907596
Si       2.08561182       6.26732326       1.58090420      -6.07579915     -13.28859018      11.35907596
Si       0.17314901       7.63307532       7.87106625      -6.07579915      13.28859018      11.35907596
Si       0.17314901       1.63385707       4.70925785      -6.07579915     -13.28859018     -11.35907596
Si       1.94966270       2.45832230       1.90179251      -7.97663971     -18.33260704     -11.68189045
Si       1.94966270       6.80861009      10.67853159      -7.97663971      18.33260704      11.68189045
Si       0.03719989       7.09178850       4.38836954      -7.97663971     -18.33260704      11.68189045
Si       0.03719989       2.17514389       8.19195456      -7.97663971      18.33260704     -11.68189045
Si       0.75566452       2.84315625       5.76471955       5.24038392       9.13424887      12.14678054
Si       0.75566452       6.42377614       6.81560455       5.24038392      -9.13424887     -12.14678054
Si       2.66812733       7.47662245       0.52544250       5.24038392       9.13424887     -12.14678054
Si       2.66812733       1.79030994      12.05488160       5.24038392      -9.13424887      12.14678054
Si       2.15786454       5.18013353       7.84753384      -1.09791399      -1.70620928       0.88972079
Si       2.15786454       4.08679887       4.73279026      -1.09791400       1.70620928      -0.88972079
Si       0.24540172       0.54666733      11.02295231      -1.09791400      -1.70620928      -0.88972079
Si       0.24540172       8.72026506       1.55737179      -1.09791400       1.70620928       0.88972079
Si       0.57647903       8.38631265       3.55094579       8.52252543      18.90963391      -7.77792852
Si       0.57647903       0.88061974       9.02937831       8.52252543     -18.90963391       7.77792852
Si       2.48894185       3.75284646       2.73921626       8.52252543      18.90963391       7.77792852
Si       2.48894185       5.51408593       9.84110784       8.52252543     -18.90963391      -7.77792852
Si       1.51246320      -0.00000000      -0.00000000       2.77488701       0.00000000      -0.00000000
Si       3.42492601       4.63346620       6.29016205       2.77488701      -0.00000000      -0.00000000
22
Lattice="4.005659951804525 -5.539346527135049e-17 3.819870144526486e-17 1.110786534917541e-15 10.714608920806496 1.0036822967312513e-15 1.7854464186190853e-15 1.3725986380486564e-15 14.044627310015349" Properties=species:S:1:pos:R:3:forces:R:3 unique_starting_index=486 config_type=initial n_minim_iter=3 energy=-3555.5029781318444 stress="0.002565733423154698 -0.08013883467307886 -0.024516288324118528 -8.799658221957149e-12 1.4733996780096365e-12 1.9685653607806075e-12" pbc="T T T"
Si       2.17888831       3.48128867      12.26901270      -1.99246974       2.81981447      -4.07658496
Si       2.17888831       7.23332025       1.77561461      -1.99246974      -2.81981447       4.07658496
Si       0.17605834       8.83859313       8.79792827      -1.99246974       2.81981447       4.07658496
Si       0.17605834       1.87601579       5.24669904      -1.99246974      -2.81981447      -4.07658496
Si       2.03486591       2.82431314       2.11215106      -2.15597606      -4.77600670      -2.77006809
Si       2.03486591       7.89029579      11.93247625      -2.15597606       4.77600670       2.77006809
Si       0.03203594       8.18161760       4.91016260      -2.15597606      -4.77600670       2.77006809
Si       0.03203594       2.53299133       9.13446471      -2.15597606       4.77600670      -2.77006809
Si       0.79591830       3.29630510       6.44715253       1.61543987       3.29754994       4.24628343
Si       0.79591830       7.41830382       7.59747478       1.61543987      -3.29754994      -4.24628343
Si       2.79874827       8.65360956       0.57516112       1.61543987       3.29754994      -4.24628343
Si       2.79874827       2.06099936      13.46946619       1.61543987      -3.29754994       4.24628343
Si       2.25887464       5.98769229       8.76179578      -0.33312940       0.31247650       0.15205710
Si       2.25887464       4.72691663       5.28283153      -0.33312940      -0.31247650      -0.15205710
Si       0.25604467       0.63038783      12.30514518      -0.33312940       0.31247650      -0.15205710
Si       0.25604467      10.08422109       1.73948213      -0.33312940      -0.31247650       0.15205710
Si       0.61111406       9.71503447       3.95693679       2.46423572       5.26921461      -2.56127528
Si       0.61111406       0.99957445      10.08769052       2.46423573      -5.26921461       2.56127528
Si       2.61394403       4.35773001       3.06537686       2.46423573       5.26921461       2.56127528
Si       2.61394403       6.35687891      10.97925045       2.46423573      -5.26921461      -2.56127529
Si       1.58633759      -0.00000000       0.00000000       0.80379923       0.00000000       0.00000000
Si       3.58916756       5.35730446       7.02231366       0.80379923      -0.00000000       0.00000000
22
Lattice="3.999332739804726 -6.474061885394333e-16 -1.1654503706986582e-15 -2.3576130308110657e-16 11.256928463052764 9.415208654414452e-19 -2.09828714826451e-15 5.680638728636176e-17 14.25838370098973" Properties=species:S:1:pos:R:3:forces:R:3 unique_starting_index=486 config_type=initial n_minim_iter=4 energy=-3558.127983231183 stress="0.01596832595080579 -0.047824509891911254 0.002812205603551323 -4.797523047485222e-12 -2.7858668805309094e-13 3.865637858592652e-13" pbc="T T T"
Si       2.17318748       3.66170787      12.45030625      -1.31228117       1.27356873      -2.68283534
Si       2.17318748       7.59522059       1.80807746      -1.31228117      -1.27356873       2.68283534
Si       0.17352111       9.29017210       8.93726931      -1.31228117       1.27356873       2.68283534
Si       0.17352111       1.96675636       5.32111440      -1.31228117      -1.27356873      -2.68283534
Si       2.02920719       2.96012844       2.14060218      -1.22367103      -2.72351413      -1.40483023
Si       2.02920719       8.29680003      12.11778152      -1.22367103       2.72351413       1.40483023
Si       0.02954082       8.58859267       4.98858967      -1.22367103      -2.72351413       1.40483023
Si       0.02954082       2.66833579       9.26979403      -1.22367103       2.72351413      -1.40483023
Si       0.79649273       3.46807528       6.55094162       0.84429100       2.31973855       2.95698765
Si       0.79649273       7.78885318       7.70744208       0.84429100      -2.31973855      -2.95698765
Si       2.79615910       9.09653951       0.57825023       0.84429100       2.31973855      -2.95698765
Si       2.79615910       2.16038895      13.68013347       0.84429100      -2.31973855       2.95698765
Si       2.25492888       6.29122608       8.89535140      -0.16932559       0.43711335      -0.12250847
Si       2.25492888       4.96570238       5.36303230      -0.16932559      -0.43711335       0.12250847
Si       0.25526251       0.66276185      12.49222416      -0.16932559       0.43711335       0.12250847
Si       0.25526251      10.59416662       1.76615955      -0.16932559      -0.43711335      -0.12250847
Si       0.61294279      10.21463483       4.01374372       1.45210140       2.89280312      -1.47176137
Si       0.61294279       1.04229363      10.24463999       1.45210140      -2.89280312       1.47176137
Si       2.61260916       4.58617060       3.11544814       1.45210140       2.89280312       1.47176137
Si       2.61260916       6.67075786      11.14293557       1.45210140      -2.89280312      -1.47176137
Si       1.58474323      -0.00000000      -0.00000000       0.81777078       0.00000000      -0.00000000
Si       3.58440960       5.62846423       7.12919185       0.81777078      -0.00000000      -0.00000000
22
Lattice="3.9262512909866394 -4.3098054235406256e-16 5.907206196319802e-16 3.461203816339448e-16 11.896189768964595 7.418235785820067e-16 3.598224428712564e-15 1.1940370257073658e-15 14.212148678889479" Properties=species:S:1:pos:R:3:forces:R:3 unique_starting_index=486 config_type=initial n_minim_iter=5 energy=-3559.912162978647 stress="0.01857861743516857 -0.01662290094417397 0.011161883390388294 2.0067575164511344e-12 2.0597803349854501e-13 4.1381628645926525e-12" pbc="T T T"
Si       2.13090879       3.87336940      12.40355912      -0.76421628       0.89530561      -1.64430892
Si       2.13090879       8.02282037       1.80858956      -0.76421628      -0.89530561       1.64430892
Si       0.16778314       9.82146429       8.91466390      -0.76421628       0.89530561       1.64430892
Si       0.16778314       2.07472548       5.29748478      -0.76421628      -0.89530561      -1.64430892
Si       1.98973285       3.12027477       2.13032272      -0.61282026      -1.07931876      -0.57690333
Si       1.98973285       8.77591500      12.08182596      -0.61282026       1.07931877       0.57690333
Si       0.02660720       9.06836965       4.97575162      -0.61282026      -1.07931877       0.57690333
Si       0.02660720       2.82782012       9.23639706      -0.61282026       1.07931877      -0.57690333
Si       0.78358973       3.67179616       6.53672571       0.28285402       1.58272535       2.07551556
Si       0.78358973       8.22439361       7.67542297       0.28285402      -1.58272535      -2.07551556
Si       2.74671538       9.61989104       0.56934863       0.28285402       1.58272535      -2.07551556
Si       2.74671538       2.27629873      13.64280005       0.28285402      -1.58272535       2.07551556
Si       2.21339240       6.64977044       8.86621573      -0.14460217       0.38490858      -0.39657441
Si       2.21339240       5.24641933       5.34593295      -0.14460217      -0.38490858       0.39657440
Si       0.25026675       0.70167555      12.45200729      -0.14460217       0.38490858       0.39657441
Si       0.25026675      11.19451422       1.76014139      -0.14460217      -0.38490858      -0.39657441
Si       0.60458291      10.80315472       3.99723126       0.68541090       1.19363856      -0.41375089
Si       0.60458291       1.09303505      10.21491742       0.68541090      -1.19363856       0.41375089
Si       2.56770856       4.85505983       3.10884308       0.68541090       1.19363856       0.41375089
Si       2.56770856       7.04112994      11.10330560       0.68541090      -1.19363856      -0.41375089
Si       1.55738433      -0.00000000       0.00000000       1.10674759       0.00000000      -0.00000000
Si       3.52050998       5.94809488       7.10607434       1.10674760       0.00000000       0.00000000
22
Lattice="3.803155836838773 -1.1093533376871923e-15 -2.272924331443672e-15 -1.2102129583867213e-15 12.240117669995303 1.1376707259303386e-15 -5.736019791811106e-15 1.8403820222741225e-15 13.942748836718264" Properties=species:S:1:pos:R:3:forces:R:3 unique_starting_index=486 config_type=initial n_minim_iter=6 energy=-3560.8651630366803 stress="0.021341418971431214 -0.008654387797887388 0.006125283803474527 -3.361672473287301e-12 1.565960033874397e-12 -2.3344670272119994e-12" pbc="T T T"
Si       2.06205985       3.98943302      12.16295720      -0.49482044       0.69079891      -1.37353971
Si       2.06205985       8.25068465       1.77979164      -0.49482044      -0.69079891       1.37353971
Si       0.16048193      10.10949185       8.75116606      -0.49482044       0.69079891       1.37353971
Si       0.16048193       2.13062582       5.19158278      -0.49482044      -0.69079891      -1.37353971
Si       1.92571435       3.20556384       2.08801677      -0.48200668      -0.81796835      -0.28917393
Si       1.92571435       9.03455383      11.85473206      -0.48200668       0.81796835       0.28917393
Si       0.02413644       9.32562268       4.88335765      -0.48200668      -0.81796835       0.28917393
Si       0.02413644       2.91449499       9.05939119      -0.48200668       0.81796835      -0.28917393
Si       0.75977808       3.78516598       6.41974151       0.12578783       1.17316973       1.83566499
Si       0.75977808       8.45495169       7.52300733       0.12578783      -1.17316973      -1.83566499
Si       2.66135600       9.90522481       0.55163291       0.12578783       1.17316973      -1.83566500
Si       2.66135600       2.33489286      13.39111593       0.12578783      -1.17316973       1.83566500
Si       2.14361216       6.84377510       8.69682840      -0.36850516       0.32310160      -0.37135255
Si       2.14361216       5.39634257       5.24592044      -0.36850516      -0.32310160       0.37135255
Si       0.24203424       0.72371626      12.21729486      -0.36850516       0.32310160       0.37135256
Si       0.24203424      11.51640141       1.72545398      -0.36850516      -0.32310160      -0.37135255
Si       0.58745852      11.12092375       3.92008117       0.41540395       0.69367956       0.27191204
Si       0.58745852       1.11919392      10.02266767       0.41540395      -0.69367956      -0.27191204
Si       2.48903644       5.00086492       3.05129325       0.41540395       0.69367956      -0.27191204
Si       2.48903644       7.23925275      10.89145559       0.41540395      -0.69367956       0.27191204
Si       1.51151301      -0.00000000      -0.00000000       1.60828100       0.00000000      -0.00000000
Si       3.41309093       6.12005883       6.97137442       1.60828100      -0.00000000       0.00000000
22
Lattice="3.582603216641027 2.1394384227756653e-15 1.4063995618067408e-15 6.422882019416119e-15 12.540273095022993 1.137146774489212e-15 6.1106214817854064e-15 1.9666759816179716e-15 13.705715448402906" Properties=species:S:1:pos:R:3:forces:R:3 unique_starting_index=486 config_type=initial n_minim_iter=7 energy=-3562.2040609525866 stress="0.02774905409324273 -0.007655130880182213 -4.889328659761004e-05 -1.0793016721530721e-12 1.1154768187556994e-12 5.294113866304906e-12" pbc="T T T"
Si       1.94046341       4.09280636      11.94880298      -0.25303675       0.50292072      -1.21900118
Si       1.94046341       8.44746674       1.75691247      -0.25303674      -0.50292072       1.21900118
Si       0.14916180      10.36294291       8.60977019      -0.25303675       0.50292072       1.21900118
Si       0.14916180       2.17733019       5.09594526      -0.25303674      -0.50292072      -1.21900118
Si       1.81207700       3.27760764       2.05096616      -0.42008794      -0.98230437       0.01324336
Si       1.81207700       9.26266546      11.65474929      -0.42008794       0.98230437      -0.01324336
Si       0.02077539       9.54774419       4.80189157      -0.42008794      -0.98230437      -0.01324335
Si       0.02077539       2.99252891       8.90382388      -0.42008794       0.98230437       0.01324336
Si       0.71622887       3.88740108       6.32046333      -0.06998055       0.81226083       1.50209572
Si       0.71622887       8.65287202       7.38525212      -0.06998055      -0.81226083      -1.50209572
Si       2.50753048      10.15753762       0.53239439      -0.06998055       0.81226083      -1.50209572
Si       2.50753048       2.38273547      13.17332106      -0.06998055      -0.81226083       1.50209572
Si       2.01780033       7.01419274       8.54698340      -0.80833367       0.42685574      -0.18047711
Si       2.01780033       5.52608035       5.15873205      -0.80833367      -0.42685574       0.18047711
Si       0.22649872       0.74405620      12.01158977      -0.80833367       0.42685574       0.18047711
Si       0.22649872      11.79621690       1.69412567      -0.80833367      -0.42685573      -0.18047711
Si       0.55508094      11.39920053       3.85489853       0.35753713       0.73842471       0.81925784
Si       0.55508094       1.14107257       9.85081692       0.35753713      -0.73842471      -0.81925784
Si       2.34638254       5.12906398       2.99795920       0.35753713       0.73842471      -0.81925784
Si       2.34638254       7.41120911      10.70775625       0.35753713      -0.73842471       0.81925784
Si       1.43040156       0.00000000       0.00000000       2.38780354      -0.00000000       0.00000000
Si       3.22170317       6.27013655       6.85285772       2.38780354       0.00000000      -0.00000000
22
Lattice="3.0198999817275336 -2.453066948513815e-14 -2.216340770331746e-15 -5.430068506758348e-14 13.145534332849566 4.3782742132115854e-16 -5.326985290860505e-15 1.1238379860202974e-15 13.709842346410216" Properties=species:S:1:pos:R:3:forces:R:3 unique_starting_index=486 config_type=initial n_minim_iter=8 energy=-3565.878920797893 stress="0.018419939477476922 -0.012370725335424411 -0.020546742718714418 1.9413245112234815e-11 -1.0602472340447749e-11 -2.432017988002314e-12" pbc="T T T"
Si       1.63378800       4.30039673      11.93747228      -0.27881737       0.55155004      -1.16079984
Si       1.63378800       8.84513760       1.77237007      -0.27881737      -0.55155005       1.16079984
Si       0.12383800      10.87316390       8.62729124      -0.27881737       0.55155005       1.16079984
Si       0.12383800       2.27237044       5.08255110      -0.27881737      -0.55155005      -1.16079984
Si       1.52431520       3.41617409       2.05174591      -0.06164460      -1.53380342       0.13629235
Si       1.52431520       9.72936025      11.65809644      -0.06164460       1.53380342      -0.13629235
Si       0.01436521       9.98894125       4.80317527      -0.06164460      -1.53380342      -0.13629235
Si       0.01436521       3.15659308       8.90666708      -0.06164460       1.53380342       0.13629235
Si       0.60320979       4.09125877       6.34076200      -0.39600026      -0.25200116       1.48941298
Si       0.60320979       9.05427556       7.36908035      -0.39600026       0.25200116      -1.48941298
Si       2.11315978      10.66402593       0.51415918      -0.39600026      -0.25200116      -1.48941298
Si       2.11315978       2.48150840      13.19568317      -0.39600027       0.25200116       1.48941298
Si       1.69481795       7.36126504       8.54734674      -1.04224189       0.31239537       1.54958585
Si       1.69481795       5.78426930       5.16249561      -1.04224189      -0.31239537      -1.54958585
Si       0.18486796       0.78849787      12.01741678      -1.04224189       0.31239537      -1.54958585
Si       0.18486796      12.35703646       1.69242556      -1.04224189      -0.31239537       1.54958585
Si       0.47057538      11.96414278       3.86609237       0.37455655       1.07673778       1.19887624
Si       0.47057538       1.18139155       9.84374998       0.37455655      -1.07673778      -1.19887624
Si       1.98052537       5.39137562       2.98882881       0.37455655       1.07673778      -1.19887624
Si       1.98052537       7.75415872      10.72101354       0.37455655      -1.07673778       1.19887624
Si       1.22362313      -0.00000000      -0.00000000       2.80829515      -0.00000000      -0.00000000
Si       2.73357312       6.57276717       6.85492117       2.80829515       0.00000000      -0.00000000
22
Lattice="2.861634043072866 -3.032895709786862e-14 -2.3903639319177545e-15 -6.180981057099632e-14 13.629473727995139 3.195878031322741e-16 -5.204795552093562e-15 9.538321423243561e-16 14.558286142547194" Properties=species:S:1:pos:R:3:forces:R:3 unique_starting_index=486 config_type=initial n_minim_iter=9 energy=-3567.155690429239 stress="0.027026174491282872 0.008093387966625077 0.0039047389129961397 -6.769958712418844e-13 1.845131375882999e-12 -6.033840231483157e-12" pbc="T T T"
Si       1.54726910       4.46514335      12.66812350      -0.23065712       0.08872674      -1.04340996
Si       1.54726910       9.16433038       1.89016264      -0.23065712      -0.08872674       1.04340996
Si       0.11645207      11.27988021       9.16930571      -0.23065712       0.08872674       1.04340996
Si       0.11645207       2.34959352       5.38898043      -0.23065712      -0.08872674      -1.04340996
Si       1.44423131       3.52405056       2.17967172      -0.06609917      -0.83029120       0.32515811
Si       1.44423131      10.10542317      12.37861442      -0.06609917       0.83029120      -0.32515811
Si       0.01341429      10.33878742       5.09947135      -0.06609917      -0.83029120      -0.32515811
Si       0.01341429       3.29068631       9.45881479      -0.06609917       0.83029120       0.32515811
Si       0.57032458       4.23893556       6.74356825      -0.20736891      -0.44364120       1.19442802
Si       0.57032458       9.39053817       7.81471790      -0.20736891       0.44364120      -1.19442802
Si       2.00114160      11.05367242       0.53557483      -0.20736891      -0.44364120      -1.19442802
Si       2.00114160       2.57580131      14.02271132      -0.20736891       0.44364120       1.19442802
Si       1.60264765       7.63590548       9.08712943      -0.44403800       0.34911351       1.41030631
Si       1.60264765       5.99356825       5.47115671      -0.44403800      -0.34911351      -1.41030631
Si       0.17183062       0.82116862      12.75029979      -0.44403800       0.34911351      -1.41030631
Si       0.17183062      12.80830511       1.80798636      -0.44403800      -0.34911351       1.41030631
Si       0.44711711      12.41714686       4.11372246       0.23219696       0.69418452       0.40436186
Si       0.44711711       1.21232687      10.44456368       0.23219696      -0.69418452      -0.40436186
Si       1.87793413       5.60240999       3.16542061       0.23219696       0.69418452      -0.40436186
Si       1.87793413       8.02706373      11.39286553       0.23219696      -0.69418452       0.40436186
Si       1.16851923      -0.00000000      -0.00000000       1.43193246      -0.00000000      -0.00000000
Si       2.59933625       6.81473686       7.27914307       1.43193246      -0.00000000      -0.00000000
22
Lattice="2.7301198938903535 -3.903202174414118e-14 -2.661153128853657e-15 -8.01122643106979e-14 13.438794408455658 2.9351419253641633e-16 -5.897860940896949e-15 9.024658729774449e-16 14.459663417634172" Properties=species:S:1:pos:R:3:forces:R:3 unique_starting_index=486 config_type=initial n_minim_iter=10 energy=-3568.064446871148 stress="0.023865541055926476 0.004191603190575518 -0.00698190110708469 3.851774180317094e-12 -3.707062909085369e-12 -1.376941472558055e-11" pbc="T T T"
Si       1.47577760       4.40327896      12.57791653      -0.23150077       0.25998867      -1.22397902
Si       1.47577760       9.03551545       1.88174689      -0.23150077      -0.25998867       1.22397902
Si       0.11071765      11.12267616       9.11157860      -0.23150077       0.25998867       1.22397902
Si       0.11071765       2.31611824       5.34808482      -0.23150077      -0.25998867      -1.22397902
Si       1.37774812       3.46909669       2.16627359      -0.10573842      -1.02054579       0.12976574
Si       1.37774812       9.96969772      12.29338983      -0.10573842       1.02054579      -0.12976574
Si       0.01268817      10.18849389       5.06355812      -0.10573842      -1.02054579      -0.12976574
Si       0.01268817       3.25030052       9.39610530      -0.10573842       1.02054579       0.12976574
Si       0.54376984       4.17661214       6.70290911      -0.08238156      -0.66643536       1.46610049
Si       0.54376984       9.26218227       7.75675431      -0.08238156       0.66643536      -1.46610049
Si       1.90882979      10.89600934       0.52692260      -0.08238156      -0.66643536      -1.46610049
Si       1.90882979       2.54278506      13.93274082      -0.08238156       0.66643536       1.46610049
Si       1.52825718       7.53145384       9.03150226      -0.50611460       0.16283377       1.90675391
Si       1.52825718       5.90734057       5.42816116      -0.50611460      -0.16283377      -1.90675391
Si       0.16319724       0.81205664      12.65799286      -0.50611460       0.16283377      -1.90675391
Si       0.16319724      12.62673777       1.80167055      -0.50611460      -0.16283377       1.90675391
Si       0.42695373      12.24815344       4.08755557       0.28098160       0.76446680       0.53109780
Si       0.42695373       1.19064097      10.37210785       0.28098160      -0.76446680      -0.53109780
Si       1.79201368       5.52875623       3.14227614       0.28098160       0.76446680      -0.53109780
Si       1.79201368       7.91003818      11.31738728       0.28098160      -0.76446680       0.53109780
Si       1.11719165      -0.00000000      -0.00000000       1.28950750      -0.00000000      -0.00000000
Si       2.48225159       6.71939720       7.22983171       1.28950750      -0.00000000       0.00000000
22
Lattice="2.6149967227506012 -5.1233436520345357e-14 -2.982341729453238e-15 -1.0583143411151197e-13 13.337489651474076 3.077979433896755e-16 -6.5975307152743465e-15 8.994100709947104e-16 14.643065006101432" Properties=species:S:1:pos:R:3:forces:R:3 unique_starting_index=486 config_type=initial n_minim_iter=11 energy=-3568.7009590183347 stress="0.004410873843049054 -0.0029432992944067628 -0.013192630446368718 -8.539515408141396e-12 -6.034278944350123e-12 1.0665327176517616e-11" pbc="T T T"
Si       1.41315788       4.37200813      12.73170321      -0.22949201       0.25028409      -1.26957238
Si       1.41315788       8.96548152       1.91136180      -0.22949201      -0.25028409       1.26957238
Si       0.10565952      11.04075295       9.23289430      -0.22949201       0.25028409       1.26957238
Si       0.10565952       2.29673670       5.41017070      -0.22949201      -0.25028409      -1.26957238
Si       1.31947363       3.43540089       2.19435923      -0.11182809      -1.09833403      -0.06210337
Si       1.31947363       9.90208876      12.44870577      -0.11182809       1.09833403       0.06210337
Si       0.01197527      10.10414572       5.12717327      -0.11182809      -1.09833403       0.06210337
Si       0.01197527       3.23334394       9.51589173      -0.11182809       1.09833403      -0.06210337
Si       0.52070168       4.14020088       6.79481098       0.04166871      -0.77793215       1.61664704
Si       0.52070168       9.19728877       7.84825402       0.04166871       0.77793214      -1.61664704
Si       1.82820004      10.80894571       0.52672152       0.04166871      -0.77793215      -1.61664704
Si       1.82820004       2.52854394      14.11634349       0.04166871       0.77793215       1.61664704
Si       1.46296257       7.47588383       9.15500842      -0.47827625      -0.01222057       2.08219359
Si       1.46296257       5.86160582       5.48805658      -0.47827625       0.01222057      -2.08219359