12
Lattice="5.754561076093872 4.5383633652957277e-07 -8.701534397309155e-07 -4.53897813876794e-07 5.624245462395327 -0.06837384436626603 -2.8772793322456467 -2.8433540822013215 6.491315193656568" Properties=species:S:1:pos:R:3:forces:R:3 unique_starting_index=484 config_type=initial n_minim_iter=1 energy=-1952.954134621552 stress="-0.0011521726246087123 -2.6371937360655424e-10 2.125876239990257e-10 -2.6371937360655424e-10 0.000326244687827471 -0.0009246127414613148 2.125876239990257e-10 -0.0009246127414613148 -0.00022789129068584966" free_energy=-1952.954134621552 pbc="T T T"
Si       0.41990620       1.15887025       5.52597636       0.03812387      -0.04054894      -0.02131052
Si       3.29718600       1.62202165       0.89696397       0.03812387       0.04054895       0.02131051
Si      -0.42493748       2.99593201       1.13494606       0.08230633       0.01534229       0.05694823
Si       2.45234394      -0.21504024       5.28799452       0.08230632      -0.01534228      -0.05694825
Si       0.64202449       0.61243171       1.96293294      -0.00323981      -0.11332191      -0.02580417
Si      -2.23525579       2.16845977       4.46000820      -0.00323982       0.11332191       0.02580417
Si       4.23672423      -0.47127569       1.65910078       0.00164462      -0.00848212       0.01439822
Si       1.35944386       3.25216774       4.76383927       0.00164461       0.00848212      -0.01439822
Si      -1.05889909       0.19012278       3.88055932      -0.11516126      -0.00682431       0.02653129
Si       1.81838106       2.59076889       2.54238146      -0.11516127       0.00682429      -0.02653125
Si       1.93974461       4.41483682       1.01868117      -0.00367373      -0.04807166       0.01281893
Si      -0.93753479      -1.63394514       5.40425957      -0.00367374       0.04807166      -0.01281893
12
Lattice="5.766842859516609 4.548049455472794e-07 -8.720105815448221e-07 -4.5217101030503103e-07 5.620742459399549 -0.058781046084094415 -2.8834202252879235 -2.8305371792262592 6.489198317636857" Properties=species:S:1:pos:R:3:forces:R:3 unique_starting_index=484 config_type=initial n_minim_iter=2 energy=-1952.955141973254 stress="0.001012399323344102 7.832397532800588e-11 -3.846349039897164e-11 7.832397532800588e-11 0.000677660815067367 0.0003104447012414914 -3.846349039897164e-11 0.0003104447012414914 0.0010000327430769432" free_energy=-1952.955141973254 pbc="T T T"
Si       0.42114069       1.16726702       5.53010836       0.02164677      -0.05649276      -0.01540448
Si       3.30456138       1.62293878       0.90030789       0.02164677       0.05649276       0.01540447
Si      -0.42511405       2.99620658       1.14105646       0.06957650       0.00284470       0.03549140
Si       2.45830826      -0.20600092       5.28936005       0.06957649      -0.00284469      -0.03549142
Si       0.64336600       0.61441788       1.96458116      -0.00981570      -0.10972603      -0.02740956
Si      -2.24005518       2.17578750       4.46583590      -0.00981571       0.10972602       0.02740957
Si       4.24578113      -0.46822848       1.65912417       0.01316614      -0.01606334       0.02390249
Si       1.36235988       3.25843443       4.77129180       0.01316613       0.01606334      -0.02390249
Si      -1.06218097       0.19658704       3.88276193      -0.10784383       0.02589594       0.00608138
Si       1.82124007       2.59361853       2.54765477      -0.10784383      -0.02589595      -0.00608135
Si       1.94385195       4.41349641       1.02677788       0.01327013      -0.02094355      -0.00741913
Si      -0.93956835      -1.62329083       5.40363878       0.01327013       0.02094355       0.00741913
12
Lattice="5.7664026596209546 4.5477022897196075e-07 -8.719440184397777e-07 -4.5081404164210984e-07 5.611913426202529 -0.05441190526312435 -2.883200127710545 -2.8211620545029423 6.47841157169674" Properties=species:S:1:pos:R:3:forces:R:3 unique_starting_index=484 config_type=initial n_minim_iter=3 energy=-1952.9558975122363 stress="-0.00023826110065337244 2.3160865361981595e-10 -1.2446737094170964e-10 2.3160865361981595e-10 -0.0016724995690878066 0.0008063912580940065 -1.2446737094170964e-10 0.0008063912580940065 -0.0006995248796213627" free_energy=-1952.9558975122363 pbc="T T T"
Si       0.42153135       1.16895217       5.52338458       0.01565386      -0.06346672      -0.01525055
Si       3.30473194       1.62179973       0.90061407       0.01565385       0.06346672       0.01525054
Si      -0.42398862       2.99252013       1.14248147       0.06784456      -0.00615023       0.04466650
Si       2.45921359      -0.20176837       5.28151744       0.06784454       0.00615024      -0.04466652
Si       0.64321804       0.61334981       1.96204803      -0.01085278      -0.09715052      -0.02178012
Si      -2.23998303       2.17740167       4.46195142      -0.01085279       0.09715052       0.02178012
Si       4.24557176      -0.46641139       1.65684320       0.00700329      -0.02752020       0.01900703
Si       1.36237061       3.25716343       4.76715516       0.00700328       0.02752020      -0.01900704
Si      -1.06371194       0.19940105       3.87797418      -0.09814795       0.04320326      -0.00189849
Si       1.81948900       2.59135061       2.54602492      -0.09814794      -0.04320328       0.00189852
Si       1.94378395       4.40690182       1.02880718       0.01849903      -0.00652546      -0.03012167
Si      -0.93941625      -1.61615014       5.39519188       0.01849904       0.00652546       0.03012167
12
Lattice="5.780038303160893 4.5584561082826027e-07 -8.740058789957682e-07 -4.5404418915155416e-07 5.634758606246598 -0.06385863959530842 -2.8900179527142873 -2.844019522465174 6.445104235359742" Properties=species:S:1:pos:R:3:forces:R:3 unique_starting_index=484 config_type=initial n_minim_iter=4 energy=-1952.9642736468231 stress="0.0018818584519063374 8.86346141663378e-12 -7.39952357103692e-10 8.86346141663378e-12 0.0007696067478886828 -0.00048520485886360283 -7.39952357103692e-10 -0.00048520485886360283 -0.0032808728944379597" free_energy=-1952.9642736468231 pbc="T T T"
Si       0.42832444       1.15190990       5.48484498       0.05571358       0.00649022      -0.07359595
Si       3.31834286       1.63882971       0.89639960       0.05571360      -0.00649021       0.07359594
Si      -0.40829722       3.00368133       1.14068146      -0.00762188       0.00071804      -0.01014173
Si       2.48172281      -0.21294186       5.24056336      -0.00762188      -0.00071804       0.01014173
Si       0.64293539       0.58801441       1.94366324       0.03979866       0.04501561      -0.02295121
Si      -2.24708351       2.20272477       4.43758214       0.03979867      -0.04501560       0.02295120
Si       4.25735239      -0.47499683       1.65223268      -0.04473610       0.00850046      -0.09912585
Si       1.36733341       3.26573659       4.72901161      -0.04473607      -0.00850047       0.09912587
Si      -1.09072588       0.19785861       3.85716349      -0.11125621       0.09297520       0.14495909
Si       1.79929288       2.59288075       2.52408155      -0.11125624      -0.09297522      -0.14495905
Si       1.95045104       4.41705609       1.01349700       0.06810193      -0.04639716      -0.05104156
Si      -0.93956697      -1.62631670       5.36774799       0.06810194       0.04639717       0.05104154
12
Lattice="5.753804665172537 4.5377668186799586e-07 -8.700390620296709e-07 -4.5387025899670987e-07 5.633899266593097 -0.0631565886445867 -2.87690112863178 -2.8423551546007126 6.479622801084987" Properties=species:S:1:pos:R:3:forces:R:3 unique_starting_index=484 config_type=initial n_minim_iter=5 energy=-1952.9681852239876 stress="-0.0010143512642756852 -2.7849872373526976e-11 3.886641975306054e-10 -2.7849872373526976e-11 -0.0011500516708582119 -0.0002643951531711416 3.886641975306054e-10 -0.0002643951531711416 0.0014488622162749638" free_energy=-1952.9681852239876 pbc="T T T"
Si       0.43065710       1.14553829       5.51147982       0.01211363       0.03817308      -0.04416193
Si       3.30755869       1.64600635       0.90498537       0.01211365      -0.03817308       0.04416192
Si      -0.39644290       3.00409092       1.15349234      -0.04277548      -0.00051479      -0.17114338
Si       2.48046030      -0.21254641       5.26297310      -0.04277542       0.00051479       0.17114339
Si       0.63947232       0.57408854       1.95050565       0.07184365       0.10429429       0.00887082
Si      -2.23742976       2.21745568       4.46596035       0.07184366      -0.10429428      -0.00887084
Si       4.23847726      -0.47678767       1.66244385      -0.05278155       0.04507141      -0.03429596
Si       1.36157510       3.26833245       4.75402106      -0.05278153      -0.04507142       0.03429597
Si      -1.10216714       0.20260920       3.88163188      -0.09561431       0.07192748       0.10033872
Si       1.77473480       2.58893519       2.53483378      -0.09561433      -0.07192750      -0.10033869
Si       1.94380990       4.41236531       1.01816604       0.10721401      -0.08871031      -0.09848329
Si      -0.93309129      -1.62082089       5.39829957       0.10721402       0.08871033       0.09848326
12
Lattice="5.757588873181974 4.5407512529290876e-07 -8.706112762058336e-07 -4.5395351115470415e-07 5.658769983414302 -0.050735611987385715 -2.8787932378155987 -2.8410005430262806 6.446078516786022" Properties=species:S:1:pos:R:3:forces:R:3 unique_starting_index=484 config_type=initial n_minim_iter=6 energy=-1952.9736782015777 stress="0.0004314804347916211 1.4868520898347902e-11 -3.2656952968661623e-10 1.4868520898347902e-11 0.0022522389834279525 0.0010669552670173178 -3.2656952968661623e-10 0.0010669552670173178 -0.001154232650997991" free_energy=-1952.9736782015777 pbc="T T T"
Si       0.43166732       1.16404096       5.48869689       0.04592200       0.02821783      -0.08002826
Si       3.31046102       1.65372901       0.90664500       0.04592203      -0.02821782       0.08002824
Si      -0.39858249       3.01983352       1.14936396      -0.05015123       0.05361389      -0.04201845
Si       2.48021282      -0.20206369       5.24597817      -0.05015121      -0.05361390       0.04201846
Si       0.64253970       0.58517483       1.94369572       0.06977058      -0.00623173      -0.03507352
Si      -2.23625449       2.23259471       4.45164697       0.06977059       0.00623174       0.03507350
Si       4.23919588      -0.47373213       1.65230898      -0.00454134       0.03081317      -0.03474591
Si       1.36040161       3.29150224       4.74303262      -0.00454133      -0.03081317       0.03474591
Si      -1.10629712       0.21499901       3.87002807      -0.10002068       0.05619821       0.07166363
Si       1.77249693       2.60277071       2.52531428      -0.10002069      -0.05619823      -0.07166360
Si       1.94906745       4.43111443       1.01987108       0.03902063      -0.00785696      -0.06159981
Si      -0.92972585      -1.61334468       5.37547121       0.03902065       0.00785696       0.06159980
12
Lattice="5.780643882716081 4.558933700633587e-07 -8.740974492906944e-07 -4.570037784385052e-07 5.653423624279621 -0.07369629919876815 -2.89032074042655 -2.864775530708357 6.4479373496192816" Properties=species:S:1:pos:R:3:forces:R:3 unique_starting_index=484 config_type=initial n_minim_iter=7 energy=-1952.9827393672113 stress="0.0031350198085508796 1.4762700764570768e-10 -4.886192619544325e-10 1.4762700764570768e-10 -0.0004280407046630141 -0.000887668662758554 -4.886192619544325e-10 -0.000887668662758554 -0.000566602336395067" free_energy=-1952.9827393672113 pbc="T T T"
Si       0.44262410       1.13254257       5.46460337       0.05732413       0.03441869      -0.11112865
Si       3.33294531       1.65610605       0.90963666       0.05732417      -0.03441868       0.11112863
Si      -0.38921166       3.01506174       1.13200704      -0.11798856       0.07095597      -0.01037216
Si       2.50111116      -0.22641325       5.24223323      -0.11798854      -0.07095599       0.01037220
Si       0.65162237       0.56114723       1.93179378      -0.03492474      -0.12148406      -0.06961028
Si      -2.23869933       2.22750096       4.44244705      -0.03492474       0.12148406       0.06961029
Si       4.25315291      -0.47935575       1.65020569       0.09420276       0.09701111       0.06481453
Si       1.36283114       3.26800451       4.72403406       0.09420275      -0.09701109      -0.06481456
Si      -1.14646417       0.21207827       3.87793579      -0.01455918      -0.09559428       0.00846591
Si       1.74385737       2.57657010       2.49630471      -0.01455920       0.09559427      -0.00846590
Si       1.96892220       4.40974422       0.98900616       0.01594556       0.01055588      -0.03421793
Si      -0.92139861      -1.62109581       5.38523428       0.01594557      -0.01055587       0.03421792
12
Lattice="5.75498203081454 4.5386953522606625e-07 -8.702170927546378e-07 -4.581572563280605e-07 5.677599411116068 -0.06871546285477036 -2.877489814584552 -2.8712990644796665 6.443815586340873" Properties=species:S:1:pos:R:3:forces:R:3 unique_starting_index=484 config_type=initial n_minim_iter=8 energy=-1952.9883433171642 stress="-0.00019195090908710215 -2.6564093854806723e-11 -3.959970118133066e-11 -2.6564093854806723e-11 6.366483590644106e-05 -4.028619722638791e-05 -3.959970118133066e-11 -4.028619722638791e-05 -0.00048621959281030304" free_energy=-1952.9883433171642 pbc="T T T"
Si       0.44830965       1.13477854       5.45539725       0.04110153       0.06684532      -0.12742122
Si       3.32579994       1.67152234       0.91970184       0.04110158      -0.06684531       0.12742120
Si      -0.37794679       3.03185864       1.13538291      -0.19140652       0.12697866      -0.05828639
Si       2.49954510      -0.22555790       5.23971644      -0.19140648      -0.12697869       0.05828645
Si       0.65127507       0.54765577       1.92552127       0.02540230      -0.11140604      -0.07846736
Si      -2.22621570       2.25864468       4.44957864       0.02540231       0.11140604       0.07846735
Si       4.23433044      -0.47931463       1.65067530       0.10256489       0.12227879       0.10541246
Si       1.35683959       3.28561565       4.72442352       0.10256487      -0.12227877      -0.10541249
Si      -1.16875665       0.22384052       3.88623437       0.01859792      -0.11537599      -0.01431204
Si       1.70873396       2.58246010       2.48886522       0.01859791       0.11537600       0.01431203
Si       1.96777217       4.42054408       0.98537954       0.00373984       0.02494202      -0.04851876
Si      -0.90971770      -1.61424343       5.38971997       0.00373986      -0.02494202       0.04851876
12
Lattice="5.698789128532273 4.494378531762652e-07 -8.617201026690688e-07 -4.60880596969514e-07 5.713361211445122 -0.06807376176250476 -2.849393356384591 -2.888177423083423 6.481694464533474" Properties=species:S:1:pos:R:3:forces:R:3 unique_starting_index=484 config_type=initial n_minim_iter=9 energy=-1953.008332759694 stress="-0.007129846123493015 -2.3576592088798927e-10 1.3437859779241469e-09 -2.3576592088798927e-10 -0.001060911345081059 0.001605866371611436 1.3437859779241469e-09 0.001605866371611436 0.0025135372260265618" free_energy=-1953.008332759694 pbc="T T T"
Si       0.46126087       1.14089233       5.45874779      -0.07885570       0.06567868      -0.07599764
Si       3.31065471       1.68429198       0.95487189      -0.07885566      -0.06567869       0.07599766
Si      -0.38042901       3.06732762       1.12820332      -0.18783705       0.24160167      -0.02052918
Si       2.46896645      -0.24214344       5.28541661      -0.18783701      -0.24160170       0.02052923
Si       0.65652789       0.52269160       1.92064599       0.16151652      -0.12004901      -0.08036990
Si      -2.19286643       2.30249230       4.49297449       0.16151653       0.12004904       0.08036985
Si       4.19815556      -0.46683646       1.66659063       0.07789940       0.10861841       0.25631252
Si       1.34876117       3.29202091       4.74702879       0.07789933      -0.10861840      -0.25631255
Si      -1.20488621       0.23399676       3.93116729       0.04065769      -0.17835049      -0.03046774
Si       1.64450795       2.59118729       2.48245290       0.04065767       0.17835050       0.03046772
Si       1.96816188       4.43176687       0.96909085      -0.01338088       0.03300804      -0.05306562
Si      -0.88123153      -1.60658277       5.44452924      -0.01338086      -0.03300805       0.05306563
12
Lattice="5.6575405797841665 4.461847648627745e-07 -8.55482864574881e-07 -4.7014700550497457e-07 5.784277851164804 -0.09236782314638602 -2.828769071239246 -2.9516051097229625 6.519846656272079" Properties=species:S:1:pos:R:3:forces:R:3 unique_starting_index=484 config_type=initial n_minim_iter=10 energy=-1953.046677884187 stress="-0.012966937160190262 -5.854244281747198e-10 2.3929147991046763e-09 -5.854244281747198e-10 0.001649021246468825 0.0037370656240807115 2.3929147991046763e-09 0.0037370656240807115 0.004763535779353527" free_energy=-1953.046677884187 pbc="T T T"
Si       0.49553388       1.12752461       5.40733035      -0.33320425       0.01613352      -0.03842977
Si       3.32430346       1.70514865       1.02014746      -0.33320423      -0.01613358       0.03842987
Si      -0.39399698       3.14318805       1.08939720      -0.26149207       0.39606022       0.19322386
Si       2.43477423      -0.31051492       5.33808088      -0.26149207      -0.39606027      -0.19322378
Si       0.68023901       0.44987163       1.88656285       0.47147476      -0.00110034      -0.11642522
Si      -2.14853103       2.38280122       4.54091575       0.47147480       0.00110042       0.11642508
Si       4.18163325      -0.44310269       1.69496647      -0.10299391       0.01670699       0.45962411
Si       1.35286313       3.27577609       4.73251108      -0.10299404      -0.01670701      -0.45962408
Si      -1.30304655       0.23358693       3.99504845       0.19964724      -0.18283431       0.03115252
Si       1.52572331       2.59908605       2.43242990       0.19964720       0.18283434      -0.03115258
Si       1.99717980       4.44517843       0.90217845       0.02656828       0.06790271       0.00972852
Si      -0.83158931      -1.61250538       5.52529976       0.02656829      -0.06790271      -0.00972853
12
Lattice="5.673358231945295 4.474322312743427e-07 -8.578746689968331e-07 -4.735819755318878e-07 5.782480177475257 -0.11602180177315384 -2.8366778915944497 -2.977702082848448 6.544098898701757" Properties=species:S:1:pos:R:3:forces:R:3 unique_starting_index=484 config_type=initial n_minim_iter=11 energy=-1953.091460738676 stress="-0.009200894180191495 -2.8150198735045347e-10 2.0872899163947356e-09 -2.8150198735045347e-10 -0.0002830115296200485 0.002794746394680462 2.0872899163947356e-09 0.002794746394680462 0.0060892724596882065" free_energy=-1953.091460738676 pbc="T T T"
Si       0.50460300       1.11528270       5.38650252      -0.42945449      -0.10811767       0.02459565
Si       3.34128141       1.68949592       1.04157354      -0.42945452       0.10811760      -0.02459552
Si      -0.42344063       3.16074229       1.06210207      -0.07857966       0.33871424       0.45956306
Si       2.41323941      -0.35596382       5.36597428      -0.07857975      -0.33871425      -0.45956304
Si       0.69616295       0.42887619       1.87414367       0.51486495       0.05538500      -0.08550091
Si      -2.14051591       2.37590202       4.55393320       0.51486498      -0.05538492       0.08550075
Si       4.20198749      -0.42884827       1.71303443      -0.15910622      -0.11764632       0.48058563
Si       1.36530854       3.23362703       4.71504138      -0.15910639       0.11764630      -0.48058558
Si      -1.32128657       0.20884228       4.01483492       0.08261542      -0.18952622       0.19392969
Si       1.51539211       2.59593605       2.41324169       0.08261533       0.18952623      -0.19392971
Si       2.01533383       4.43478964       0.86824119       0.06966019       0.04345766       0.06993877
Si      -0.82134410      -1.63001123       5.55983528       0.06966017      -0.04345765      -0.06993880
12
Lattice="5.737229111330375 4.524694394451193e-07 -8.675326541731025e-07 -4.798855410505896e-07 5.785237473033583 -0.15627089618302836 -2.86861333234324 -3.0259409764200997 6.511954205226765" Properties=species:S:1:pos:R:3:forces:R:3 unique_starting_index=484 config_type=initial n_minim_iter=12 energy=-1953.1598880790932 stress="-0.0007663980114885309 -5.7606944484732823e-11 2.391750395203279e-10 -5.7606944484732823e-11 -0.0007730653875268798 -0.00044205203035697937 2.391750395203279e-10 -0.00044205203035697937 0.0007005664957798623" free_energy=-1953.1598880790932 pbc="T T T"
Si       0.51702124       1.07831069       5.30435697      -0.43000901      -0.20679960      -0.00864275
Si       3.38563510       1.68098635       1.05132529      -0.43000905       0.20679953       0.00864288
Si      -0.44844657       3.18341572       1.02863073      -0.08043275       0.20325447       0.59263209
Si       2.42016892      -0.42411884       5.32705183      -0.08043289      -0.20325449      -0.59263207
Si       0.72383124       0.38670881       1.83622209       0.44338596       0.20868034      -0.06100714
Si      -2.14478306       2.37258780       4.51946098       0.44338601      -0.20868028       0.06100700
Si       4.25772277      -0.42399498       1.72403359      -0.14548755      -0.16852155       0.34588373
Si       1.38910837       3.18329215       4.63164841      -0.14548768       0.16852153      -0.34588368
Si      -1.36654266       0.17121525       4.00029561       0.03038161      -0.10263184       0.44025019
Si       1.50207146       2.58808149       2.35538722       0.03038146       0.10263185      -0.44025020
Si       2.05364489       4.42179724       0.81209495       0.18216197      -0.00093886       0.14278045
Si      -0.81496847      -1.66250041       5.54358772       0.18216192       0.00093889      -0.14278051
12
Lattice="5.820105498271528 4.5900552718777106e-07 -8.800644835021467e-07 -4.890615047656344e-07 5.8090594769472546 -0.20452945711921877 -2.910051526689302 -3.0941857686863092 6.470570706119266" Properties=species:S:1:pos:R:3:forces:R:3 unique_starting_index=484 config_type=initial n_minim_iter=13 energy=-1953.2373294638721 stress="0.009704633810369333 2.441574421952512e-10 -1.7925333588996443e-09 2.441574421952512e-10 -0.00036761075856041363 -0.0036374992489373024 -1.7925333588996443e-09 -0.0036374992489373024 -0.00406445178339108" free_energy=-1953.2373294638721 pbc="T T T"
Si       0.52469093       1.03807385       5.18037462      -0.33305184      -0.33976372      -0.01288049
Si       3.43474301       1.67680040       1.08566557      -0.33305189       0.33976367       0.01288059
Si      -0.50626903       3.25006905       0.99624821      -0.07197343      -0.18625874       0.50165573
Si       2.40378466      -0.53519496       5.26979229      -0.07197361       0.18625872      -0.50165570
Si       0.78622923       0.32983050       1.77525975       0.16519944       0.43545527      -0.02753694
Si      -2.12382328       2.38504333       4.49078124       0.16519952      -0.43545524       0.02753689
Si       4.33353884      -0.40893785       1.76050639      -0.04655366      -0.21094971       0.02796845
Si       1.42348623       3.12381224       4.50553352      -0.04655371       0.21094970      -0.02796843
Si      -1.43838522       0.11470824       4.00821980      -0.06164492       0.03576036       0.73211722
Si       1.47166707       2.60016570       2.25782098      -0.06164513      -0.03576037      -0.73211721
Si       2.12030254       4.41766126       0.73542553       0.34802466      -0.02158480       0.27584829
Si      -0.78974900      -1.70278722       5.53061506       0.34802457       0.02158485      -0.27584840
12
Lattice="5.822929387180799 4.5922823466836275e-07 -8.804914871837113e-07 -4.852731748782324e-07 5.799483708896134 -0.18447053068481872 -2.9114634764788665 -3.066446404174308 6.449757095372343" Properties=species:S:1:pos:R:3:forces:R:3 unique_starting_index=484 config_type=initial n_minim_iter=14 energy=-1953.2824802393548 stress="0.011042784622094067 5.464054674196051e-10 -2.189521992256073e-09 5.464054674196051e-10 -0.001281841356715942 -0.0027656366381795337 -2.189521992256073e-09 -0.0027656366381795337 -0.004821841948119211" free_energy=-1953.2824802393548 pbc="T T T"
Si       0.50119516       1.05387280       5.19249636      -0.09112977      -0.20198993      -0.02484948
Si       3.41265918       1.67916505       1.07278915      -0.09112980       0.20198992       0.02484951
Si      -0.51471618       3.24202871       1.02376457       0.00959435      -0.26622692       0.21430716
Si       2.39674944      -0.50899102       5.24152125       0.00959424       0.26622693      -0.21430717
Si       0.79077609       0.36853439       1.78167294       0.05257240       0.26671843      -0.07312573
Si      -2.12068835       2.36450304       4.48361337       0.05257247      -0.26671842       0.07312572
Si       4.33060857      -0.41324374       1.76039667       0.04957633      -0.04324464      -0.03505016
Si       1.41914401       3.14628173       4.50488856       0.04957634       0.04324465       0.03505015
Si      -1.40057816       0.11836646       4.00250835      -0.32614003       0.00227261       0.63100785
Si       1.51088607       2.61467108       2.26277774      -0.32614022      -0.00227266      -0.63100775
Si       2.11564570       4.42610494       0.76727732       0.30552687       0.05847735       0.22162524
Si      -0.79581780      -1.69306730       5.49800859       0.30552681      -0.05847730      -0.22162533
12
Lattice="5.781082916359294 4.559279917804519e-07 -8.741638373135424e-07 -4.886653310776244e-07 5.8548202842825185 -0.17804249365848485 -2.8905402393493373 -3.0869950521708924 6.450406519048687" Properties=species:S:1:pos:R:3:forces:R:3 unique_starting_index=484 config_type=initial n_minim_iter=15 energy=-1953.365310728232 stress="0.002938747358164234 1.3164564853149113e-10 -4.1423539347582286e-10 1.3164564853149113e-10 0.0025567283754272907 0.0007121716436268422 -4.1423539347582286e-10 0.0007121716436268422 0.0006246857506680499" free_energy=-1953.365310728232 pbc="T T T"
Si       0.48994695       1.05939467       5.15978832       0.03936278      -0.11150581       0.02112468
Si       3.38048775       1.70843110       1.11257466       0.03936276       0.11150582      -0.02112470
Si      -0.53745823       3.30402535       1.03558335      -0.11810676      -0.38549639      -0.05451781
Si       2.35308417      -0.53619975       5.23677995      -0.11810680       0.38549637       0.05451785
Si       0.82851637       0.36620111       1.75817736      -0.06365634       0.10776550      -0.14562540
Si      -2.06202483       2.40162425       4.51418640      -0.06365628      -0.10776551       0.14562542
Si       4.29998688      -0.40232136       1.78855982       0.12246850       0.08139053       0.11180992
Si       1.40944555       3.17014727       4.48380289       0.12246848      -0.08139051      -0.11180996
Si      -1.44194862       0.12364416       4.06574804      -0.19254714      -0.14294633       0.06634568
Si       1.44859236       2.64418130       2.20661553      -0.19254718       0.14294630      -0.06634562
Si       2.14204133       4.45260349       0.75575746       0.21247902       0.24279701       0.31576622
Si      -0.74849892      -1.68477792       5.51660590       0.21247897      -0.24279698      -0.31576628
12
Lattice="5.733839839823183 4.5220214315452764e-07 -8.670201607609538e-07 -4.896522284332923e-07 5.84381377653413 -0.1903096584675096 -2.8669186976444454 -3.095365789087441 6.46876941645717" Properties=species:S:1:pos:R:3:forces:R:3 unique_starting_index=484 config_type=initial n_minim_iter=16 energy=-1953.3995107901255 stress="-0.01081965366953785 -3.229751230572457e-10 1.3943491411410954e-09 -3.229751230572457e-10 -0.00480129763030162 0.0009766035728496765 1.3943491411410954e-09 0.0009766035728496765 -0.0010465407371671733" free_energy=-1953.3995107901255 pbc="T T T"
Si       0.46958110       1.03512172       5.16110790       0.15480734       0.13475301       0.09801909
Si       3.33650035       1.71332679       1.11735083       0.15480734      -0.13475299      -0.09801914
Si      -0.55682171       3.28739840       1.04429760      -0.09587891      -0.34996658      -0.25170482
Si       2.31009915      -0.53895004       5.23416144      -0.09587889       0.34996657       0.25170485
Si       0.84190807       0.38237399       1.74685131      -0.20778015      -0.00539644      -0.14920595
Si      -2.02501159       2.36607413       4.53160817      -0.20778011       0.00539641       0.14920601
Si       4.26861824      -0.40170583       1.81515877       0.15692333       0.20030192       0.09548764
Si       1.40169844       3.15015449       4.46329968       0.15692333      -0.20030189      -0.09548769
Si      -1.43871504       0.09686196       4.10416072      -0.23025070      -0.24543913      -0.23705499
Si       1.42820439       2.65158626       2.17429859      -0.23025067       0.24543910       0.23705506
Si       2.14927098       4.45436732       0.76499071       0.22217905       0.23247800       0.16451439
Si      -0.71764774      -1.70591899       5.51346838       0.22217904      -0.23247797      -0.16451446
12