18
Lattice="5.811840000000001 6.637848710786014e-32 6.780333561091006e-31 2.9059200000000005 7.926947010070804 1.982663870715898e-13 2.90592 2.231084481312557 7.606493997744079" Properties=species:S:1:pos:R:3:forces:R:3 unique_starting_index=360 config_type=initial n_minim_iter=1 energy=-2816.8835790655876 stress="-0.560112060997253 -0.7215639162859643 -0.8940380341342377 0.2940102343001486 -2.0965864750409204e-12 2.9023150159276717e-12" pbc="T T T"
Si       5.19741809       6.81929671       5.74645064     -10.42159849     -16.25722919      -9.37152490
Si       6.42626191       7.43347587       4.92625000      10.42159849     -13.56836365     -12.96234885
Si       5.19741809       8.41775052       5.66329036     -10.42159849      16.25722919       9.37152490
Si       6.42626191       7.80357136       6.48349100      10.42159849      13.56836365      12.96234885
Si       6.42626191       3.33873477       1.86004336      10.42159849      16.25722919       9.37152490
Si       5.19741809       2.72455561       2.68024400     -10.42159849      13.56836365      12.96234885
Si       6.42626191       1.74028096       1.94320364      10.42159849     -16.25722918      -9.37152490
Si       5.19741809       2.35446012       1.12300300     -10.42159849     -13.56836365     -12.96234885
Si       6.79457448       4.23557262       0.58724187      -7.45763784      19.30996298       1.18077191
Si       4.82910551       1.75562824       3.89906373       7.45763784       6.56793759      18.19700768
Si       6.79457448       0.84344311       3.21600513      -7.45763784     -19.30996298      -1.18077191
Si       4.82910551       3.32338749      -0.09581672       7.45763784      -6.56793759     -18.19700768
Si       4.82910551       5.92245886       7.01925213       7.45763784     -19.30996298      -1.18077191
Si       6.79457448       8.40240324       3.70743027      -7.45763784      -6.56793759     -18.19700768
Si       4.82910551       9.31458837       4.39048887       7.45763784      19.30996298       1.18077191
Si       6.79457448       6.83464399       7.70231073      -7.45763784       6.56793759      18.19700768
Si       5.81184000       7.92694700       0.00000000      -0.00000000       0.00000000       0.00000000
Si       2.90592000       5.07901574       3.80324700       0.00000000       0.00000000       0.00000000
18
Lattice="5.9270424918055795 -7.488325144684311e-17 5.319807784109396e-17 2.9635212459027898 8.130375279038267 -0.08401848928493111 2.9635212459027893 2.207718552379513 7.825346003725174" Properties=species:S:1:pos:R:3:forces:R:3 unique_starting_index=360 config_type=initial n_minim_iter=2 energy=-2837.5566896269233 stress="-0.4144646438961724 -0.5431836005296572 -0.6781123036611286 0.2300079578088408 4.5002900120936536e-12 -7.27411716077517e-12" pbc="T T T"
Si       5.29937867       6.93173478       5.85642266      -8.76411572     -12.98600834      -7.31992872
Si       6.55470631       7.57064852       5.00319042       8.76411572     -10.67900106     -10.40080311
Si       5.29937867       8.57540596       5.75556861      -8.76411572      12.98600834       7.31992872
Si       6.55470631       7.93649221       6.60880085       8.76411572      10.67900106      10.40080311
Si       6.55470631       3.40635904       1.88490486       8.76411572      12.98600834       7.31992872
Si       5.29937867       2.76744530       2.73813710      -8.76411572      10.67900106      10.40080311
Si       6.55470631       1.76268786       1.98575891       8.76411572     -12.98600834      -7.31992872
Si       5.29937867       2.40160161       1.13252666      -8.76411572     -10.67900106     -10.40080311
Si       6.92849623       4.34002467       0.56117161      -6.70060696      15.69276911       2.56471359
Si       4.92558876       1.76001052       4.00663084       6.70060696       6.87785248      14.33652341
Si       6.92849623       0.82902224       3.30949215      -6.70060696     -15.69276911      -2.56471359
Si       4.92558876       3.40903639      -0.13596708       6.70060696      -6.87785248     -14.33652341
Si       4.92558876       5.99806915       7.18015591       6.70060696     -15.69276911      -2.56471359
Si       6.92849623       8.57808330       3.73469668      -6.70060696      -6.87785248     -14.33652341
Si       4.92558876       9.50907158       4.43183537       6.70060696      15.69276911       2.56471359
Si       6.92849623       6.92905743       7.87729460      -6.70060696       6.87785248      14.33652341
Si       5.92704249       8.13037527      -0.08401849       0.00000000       0.00000000      -0.00000000
Si       2.96352124       5.16904691       3.87066376       0.00000000      -0.00000000       0.00000000
18
Lattice="6.451157621660456 -3.419467951078463e-16 4.509820207210184e-16 3.2255788108302275 9.099910651021968 -0.529946541079966 3.225578810830228 2.052698754047665 8.8811961479362" Properties=species:S:1:pos:R:3:forces:R:3 unique_starting_index=360 config_type=initial n_minim_iter=3 energy=-2894.377730559625 stress="-0.08811553412308913 -0.13641292358006193 -0.1683269351819457 0.05440263237373217 -4.809357776161055e-13 4.594945791853047e-13" pbc="T T T"
Si       5.76262785       7.43443447       6.36094764      -3.83929010      -4.83692069      -2.99937849
Si       7.13968739       8.19626539       5.34356665       3.83929010      -4.23950521      -3.79719220
Si       5.76262785       9.29447962       6.16592677      -3.83929010       4.83692069       2.99937849
Si       7.13968739       8.53264871       7.18330776       3.83929010       4.23950521       3.79719220
Si       7.13968739       3.71817492       1.99030197       3.83929010       4.83692069       2.99937849
Si       5.76262785       2.95634401       3.00768296      -3.83929010       4.23950521       3.79719220
Si       7.13968739       1.85812977       2.18532284       3.83929010      -4.83692069      -2.99937849
Si       5.76262785       2.61996068       1.16794185      -3.83929010      -4.23950522      -3.79719220
Si       7.53706735       4.83514866       0.41502553      -5.11344116       3.84793757       5.20542557
Si       5.36524789       1.75912798       4.52287271       5.11344116       6.07801618       2.22728495
Si       7.53706735       0.74115603       3.76059928      -5.11344116      -3.84793757      -5.20542557
Si       5.36524789       3.81717671      -0.34724790       5.11344116      -6.07801618      -2.22728495
Si       5.36524789       6.31746073       7.93622409       5.11344116      -3.84793756      -5.20542557
Si       7.53706735       9.39348142       3.82837690      -5.11344116      -6.07801618      -2.22728495
Si       5.36524789      10.41145336       4.59065033       5.11344116       3.84793757       5.20542557
Si       7.53706735       7.33543268       8.69849751      -5.11344116       6.07801618       2.22728495
Si       6.45115762       9.09991064      -0.52994654       0.00000000       0.00000000       0.00000000
Si       3.22557881       5.57630470       4.17562481      -0.00000000       0.00000000      -0.00000000
18
Lattice="6.7005123987429425 -1.0827462306961001e-15 7.415312065086829e-16 3.350256199371471 9.666082123083182 -0.7974543900059435 3.3502561993714717 1.955357310848027 9.499771307838998" Properties=species:S:1:pos:R:3:forces:R:3 unique_starting_index=360 config_type=initial n_minim_iter=4 energy=-2901.4573623683987 stress="-0.02052794535318669 -0.014637011976638798 -0.01702398406444404 0.0040689828192825754 -4.318329064611125e-12 -4.4536894118523526e-14" pbc="T T T"
Si       5.98136702       7.72205893       6.65192490      -4.08824082      -3.24997552      -1.75702064
Si       7.41965777       8.55643321       5.53766646       4.08824082      -2.60071587      -2.62406924
Si       5.98136702       9.71010021       6.40155048      -4.08824082       3.24997552       1.75702064
Si       7.41965777       8.87572593       7.51580893       4.08824082       2.60071587       2.62406924
Si       7.41965777       3.89938049       2.05039202       4.08824082       3.24997552       1.75702064
Si       5.98136702       3.06500621       3.16465047      -4.08824082       2.60071587       2.62406924
Si       7.41965777       1.91133921       2.30076645       4.08824082      -3.24997552      -1.75702064
Si       5.98136702       2.74571349       1.18650800      -4.08824082      -2.60071587      -2.62406924
Si       7.82306528       5.12211688       0.33126617      -3.92603260       2.66367086       4.64955722
Si       5.57795952       1.75952351       4.82181457       3.92603260       5.21130061       1.24734547
Si       7.82306528       0.68860282       4.01989229      -3.92603260      -2.66367086      -4.64955722
Si       5.57795952       4.05119620      -0.47065610       3.92603260      -5.21130061      -1.24734547
Si       5.57795952       6.49932254       8.37105075       3.92603260      -2.66367086      -4.64955722
Si       7.82306528       9.86191591       3.88050236      -3.92603260      -5.21130061      -1.24734547
Si       5.57795952      10.93283660       4.68242463       3.92603260       2.66367086       4.64955722
Si       7.82306528       7.57024322       9.17297302      -3.92603260       5.21130061       1.24734547
Si       6.70051240       9.66608212      -0.79745439       0.00000000       0.00000000      -0.00000000
Si       3.35025620       5.81071971       4.35115846      -0.00000000      -0.00000000       0.00000000
18
Lattice="6.782799350703828 -9.57570630405258e-16 -3.6442590139530235e-16 3.3913996753519133 9.752550851513156 -0.8291773769996151 3.3913996753519133 1.9492538674949333 9.591673086273008" Properties=species:S:1:pos:R:3:forces:R:3 unique_starting_index=360 config_type=initial n_minim_iter=5 energy=-2902.51436971145 stress="-0.01204301053301086 -0.013337703151936353 -0.017189972670682906 0.00656682103186722 -6.212332877652883e-13 2.7398556734712966e-12" pbc="T T T"
Si       6.04959521       7.76909961       6.69878135      -3.91794873      -3.00754932      -1.84805516
Si       7.51600349       8.61463531       5.56961746       3.91794873      -2.61983801      -2.36582113
Si       6.04959521       9.78360746       6.44496222      -3.91794873       3.00754932       1.84805516
Si       7.51600349       8.93807176       7.57412611       3.91794873       2.61983801       2.36582113
Si       7.51600349       3.93270510       2.06371437       3.91794873       3.00754932       1.84805516
Si       6.04959521       3.08716940       3.19287825      -3.91794873       2.61983801       2.36582113
Si       7.51600349       1.91819725       2.31753349       3.91794873      -3.00754932      -1.84805516
Si       6.04959521       2.76373295       1.18836961      -3.91794873      -2.61983801      -2.36582113
Si       7.91411819       5.16878237       0.32881819      -3.64534673       2.27582388       3.74674443
Si       5.65148051       1.77030875       4.86728256       3.64534673       4.23582298       1.12927932
Si       7.91411819       0.68211998       4.05242967      -3.64534673      -2.27582388      -3.74674443
Si       5.65148051       4.08059360      -0.48603470       3.64534673      -4.23582298      -1.12927932
Si       5.65148051       6.53302234       8.43367753       3.64534673      -2.27582388      -3.74674443
Si       7.91411819       9.93149596       3.89521315      -3.64534673      -4.23582299      -1.12927932
Si       5.65148051      11.01968473       4.71006604       3.64534673       2.27582388       3.74674443
Si       7.91411819       7.62121111       9.24853042      -3.64534673       4.23582298       1.12927932
Si       6.78279935       9.75255084      -0.82917737      -0.00000000       0.00000000       0.00000000
Si       3.39139967       5.85090235       4.38124786      -0.00000000       0.00000000      -0.00000000
18
Lattice="6.9390017412034934 -1.244679729056662e-15 3.966400731871209e-16 3.469500870601746 10.012963672314639 -0.9812589304567682 3.469500870601747 1.87661500418691 9.884362737058687" Properties=species:S:1:pos:R:3:forces:R:3 unique_starting_index=360 config_type=initial n_minim_iter=6 energy=-2905.141921362667 stress="0.00436233601135149 -0.013403127162070391 -0.02080136908593518 0.012611508716948433 3.5441526600130514e-13 -6.084413598669358e-14" pbc="T T T"
Si       6.17292184       7.87028340       6.81447399      -3.56878146      -2.65383739      -1.97982747
Si       7.70508164       8.75412974       5.63414847       3.56878146      -2.64672908      -1.98932020
Si       6.17292184       9.96408460       6.54018173      -3.56878146       2.65383739       1.97982747
Si       7.70508164       9.08023826       7.72050724       3.56878146       2.64672908       1.98932020
Si       7.70508164       4.01929526       2.08862982       3.56878146       2.65383739       1.97982747
Si       6.17292184       3.13544892       3.26895534      -3.56878146       2.64672908       1.98932020
Si       7.70508164       1.92549406       2.36292209       3.56878146      -2.65383739      -1.97982747
Si       6.17292184       2.80934041       1.18259657      -3.56878146      -2.64672908      -1.98932020
Si       8.08149588       5.30422264       0.29078565      -3.32208829       1.36333485       1.95153879
Si       5.79650760       1.77193414       5.00795203       3.32208829       2.25636469       0.75894924
Si       8.08149588       0.64056668       4.16076626      -3.32208829      -1.36333485      -1.95153879
Si       5.79650760       4.17285518      -0.55640013       3.32208829      -2.25636469      -0.75894924
Si       5.79650760       6.58535602       8.61231816       3.32208829      -1.36333485      -1.95153879
Si       8.08149588      10.11764452       3.89515178      -3.32208829      -2.25636469      -0.75894924
Si       5.79650760      11.24901198       4.74233755       3.32208829       1.36333485       1.95153879
Si       8.08149588       7.71672348       9.45950394      -3.32208829       2.25636469       0.75894924
Si       6.93900174      10.01296366      -0.98125893      -0.00000000       0.00000000       0.00000000
Si       3.46950087       5.94478933       4.45155191       0.00000000       0.00000000       0.00000000
18
Lattice="6.903388099375945 -1.7128031988970208e-15 6.22574213460893e-16 3.451694049687971 10.18854752612205 -1.1577377293942561 3.451694049687973 1.7566895761197585 10.102519441964112" Properties=species:S:1:pos:R:3:forces:R:3 unique_starting_index=360 config_type=initial n_minim_iter=7 energy=-2906.726099897069 stress="0.0030842668589726348 -0.018134899391203677 -0.025538010541187213 0.01261980910565053 -2.1819810394828175e-12 -1.7747571430559395e-13" pbc="T T T"
Si       6.13270598       7.88698111       6.86045727      -3.32548071      -2.71937964      -1.50729913
Si       7.67407021       8.80295378       5.63722891       3.32548071      -2.21175031      -2.18520865
Si       6.13270598      10.03087453       6.55671530      -3.32548071       2.71937964       1.50729913
Si       7.67407021       9.11490186       7.77994367       3.32548071       2.21175031       2.18520865
Si       7.67407021       4.05825598       2.08432445       3.32548071       2.71937964       1.50729913
Si       6.13270598       3.14228331       3.30755281      -3.32548071       2.21175031       2.18520865
Si       7.67407021       1.91436256       2.38806642       3.32548071      -2.71937964      -1.50729913
Si       6.13270598       2.83033523       1.16483805      -3.32548071      -2.21175031      -2.18520865
Si       8.03207439       5.38753936       0.22279665      -3.29113908       1.35165346       1.49241165
Si       5.77470180       1.73014362       5.10703650       3.29113908       1.81251032       0.87696404
Si       8.03207439       0.58507918       4.24959421      -3.29113908      -1.35165346      -1.49241165
Si       5.77470180       4.24247492      -0.63464564       3.29113908      -1.81251032      -0.87696404
Si       5.77470180       6.55769773       8.72198507       3.29113908      -1.35165346      -1.49241165
Si       8.03207439      10.21509347       3.83774522      -3.29113908      -1.81251032      -0.87696404
Si       5.77470180      11.36015791       4.69518751       3.29113908       1.35165346       1.49241165
Si       8.03207439       7.70276217       9.57942736      -3.29113908       1.81251032       0.87696404
Si       6.90338810      10.18854752      -1.15773773       0.00000000      -0.00000000      -0.00000000
Si       3.45169405       5.97261854       4.47239086       0.00000000      -0.00000000      -0.00000000
18
Lattice="6.750817070890444 -1.6175907963127046e-15 6.722349058315308e-16 3.375408535445221 11.79303899445876 -2.491860520987703 3.3754085354452217 0.9280930202502096 12.017644566496587" Properties=species:S:1:pos:R:3:forces:R:3 unique_starting_index=360 config_type=initial n_minim_iter=8 energy=-2906.764333859443 stress="0.034939879804044144 0.034729818331306936 0.03164806503260197 0.005253350598186772 1.1544323698570723e-12 -4.612594729984802e-13" pbc="T T T"
Si       5.95128535       8.25339037       7.42521584      -1.12605713       0.66071317      -2.01713501
Si       7.55034879       9.44800952       5.82987127       1.12605713      -1.74962926       1.20173749
Si       5.95128535      10.82830763       6.86346024      -1.12605713      -0.66071317       2.01713501
Si       7.55034879       9.63368849       8.45880481       1.12605713       1.74962926      -1.20173749
Si       7.55034879       4.46774163       2.10056822       1.12605713      -0.66071317       2.01713501
Si       5.95128535       3.27312248       3.69591279      -1.12605713       1.74962926      -1.20173749
Si       7.55034879       1.89282436       2.66232381       1.12605713       0.66071317      -2.01713501
Si       5.95128535       3.08744351       1.06697924      -1.12605713      -1.74962926       1.20173749
Si       7.80914985       6.16318048      -0.28266517      -0.69833264       0.39220751      -0.33175807
Si       5.69248429       1.46342410       5.99358685       0.69833264      -0.20795745       0.46972742
Si       7.80914985       0.19738551       5.04555720      -0.69833264      -0.39220751       0.33175807
Si       5.69248429       4.89714189      -1.23069481       0.69833264       0.20795745      -0.46972742
Si       5.69248429       6.55795151       9.80844922       0.69833264      -0.39220751       0.33175807
Si       7.80914985      11.25770789       3.53219721      -0.69833264       0.20795745      -0.46972742
Si       5.69248429      12.52374649       4.48022685       0.69833264       0.39220751      -0.33175807
Si       7.80914985       7.82399011      10.75647887      -0.69833264      -0.20795745       0.46972742
Si       6.75081707      11.79303899      -2.49186052      -0.00000000       0.00000000       0.00000000
Si       3.37540853       6.36056600       4.76289203      -0.00000000       0.00000000       0.00000000
18
Lattice="6.083700821633982 -3.3271816260538944e-15 3.2108410804025626e-15 3.0418504108169873 10.670922162961569 -2.4351529465053012 3.0418504108169935 0.6666819597986673 10.924929512144994" Properties=species:S:1:pos:R:3:forces:R:3 unique_starting_index=360 config_type=initial n_minim_iter=9 energy=-2908.0073335484926 stress="-0.006715613511850007 -0.006626735190432552 0.014548254897736408 -0.03609622055626921 2.169929008083178e-12 -1.7184527890821938e-12" pbc="T T T"
Si       5.35898566       7.34815728       6.62296595      -2.05642603      -2.14529424      -0.79631695
Si       6.80841598       8.42340819       5.18703074       2.05642603      -1.36793053      -1.83444110
Si       5.35898566       9.65824889       6.11169890      -2.05642603       2.14529424       0.79631695
Si       6.80841598       8.58299798       7.54763412       2.05642603       1.36793053       1.83444110
Si       6.80841598       3.98944683       1.86681062       2.05642603       2.14529424       0.79631695
Si       5.35898566       2.91419592       3.30274584      -2.05642603       1.36793053       1.83444110
Si       6.80841598       1.67935522       2.37807767       2.05642603      -2.14529424      -0.79631695
Si       5.35898566       2.75460613       0.94214245      -2.05642603      -1.36793053      -1.83444110
Si       7.03484862       5.56577186      -0.34843878      -0.31668650       0.70008152       1.85044135
Si       5.13255302       1.23216538       5.43884129       0.31668650       1.97267776       0.15096290
Si       7.03484862       0.10303018       4.59332707      -0.31668650      -0.70008152      -1.85044135
Si       5.13255302       4.43663666      -1.19395300       0.31668650      -1.97267776      -0.15096290
Si       5.13255302       5.77183224       8.83821535       0.31668650      -0.70008152      -1.85044135
Si       7.03484862      10.10543873       3.05093528      -0.31668650      -1.97267776      -0.15096290
Si       5.13255302      11.23457392       3.89644951       0.31668650       0.70008152       1.85044135
Si       7.03484862       6.90096744       9.68372957      -0.31668650       1.97267776       0.15096290
Si       6.08370082      10.67092215      -2.43515294       0.00000000       0.00000000      -0.00000000
Si       3.04185041       5.66880205       4.24488829       0.00000000       0.00000000      -0.00000000
18
Lattice="6.14323232224938 -6.937802667910794e-15 7.827614392742511e-15 3.071616161124682 10.661773858747878 -1.832021430270077 3.071616161124698 1.2428565718819182 10.746396227469832" Properties=species:S:1:pos:R:3:forces:R:3 unique_starting_index=360 config_type=initial n_minim_iter=10 energy=-2911.069527267615 stress="-0.012776932461899803 -0.016613365061817962 -0.004084785156779889 -0.021357005678470247 1.1424031917263623e-12 -3.446028756148165e-12" pbc="T T T"
Si       5.40683743       7.76709363       6.87585607      -1.54406075      -1.52395656      -0.09608565
Si       6.87962721       8.78398705       5.51785389       1.54406075      -0.52112758      -1.43530558
Si       5.40683743      10.08985200       6.49570613      -1.54406075       1.52395656       0.09608565
Si       6.87962721       9.07295858       7.85370831       1.54406075       0.52112758       1.43530558
Si       6.87962721       4.13753678       2.03851873       1.54406075       1.52395656       0.09608565
Si       5.40683743       3.12064336       3.39652091      -1.54406075       0.52112758       1.43530558
Si       6.87962721       1.81477842       2.41866867       1.54406075      -1.52395656      -0.09608565
Si       5.40683743       2.83167184       1.06066649      -1.54406075      -0.52112758      -1.43530558
Si       7.10298093       5.60878809      -0.04423030      -1.23441636       0.77603593       2.18305618
Si       5.18348372       1.53618315       5.39449734       1.23441636       2.31322417       0.13023045
Si       7.10298093       0.34352711       4.50141771      -1.23441636      -0.77603593      -2.18305618
Si       5.18348372       4.41613205      -0.93730994       1.23441636      -2.31322417      -0.13023045
Si       5.18348372       6.29584233       8.95860511       1.23441636      -0.77603593      -2.18305618
Si       7.10298093      10.36844726       3.51987746      -1.23441636      -2.31322417      -0.13023045
Si       5.18348372      11.56110330       4.41295709       1.23441636       0.77603593       2.18305618
Si       7.10298093       7.48849837       9.85168474      -1.23441636       2.31322417       0.13023045
Si       6.14323232      10.66177385      -1.83202143       0.00000000      -0.00000000      -0.00000000
Si       3.07161616       5.95231521       4.45718740      -0.00000000       0.00000000       0.00000000
18
Lattice="6.294304883733389 -7.295995325656405e-15 7.955482161165846e-15 3.1471524418666856 10.937048735879555 -1.4061466820794934 3.147152441866703 1.728992686765788 10.890678024422424" Properties=species:S:1:pos:R:3:forces:R:3 unique_starting_index=360 config_type=initial n_minim_iter=11 energy=-2912.6676313939374 stress="-0.003213420969320865 -0.007590586554659944 -0.006632232889172244 -0.001633669959381714 -3.099793286142462e-12 7.494138824293851e-13" pbc="T T T"
Si       5.53511888       8.30026507       7.25877911      -1.10864251      -0.01276133      -0.07382354
Si       7.05349089       9.30149428       5.92169559       1.10864251      -0.07443091       0.00853261
Si       5.53511888      10.69879704       6.96801791      -1.10864251       0.01276133       0.07382354
Si       7.05349089       9.69756784       8.30510143       1.10864251       0.07443091      -0.00853261
Si       7.05349089       4.36577633       2.22575224       1.10864251       0.01276133       0.07382354
Si       5.53511888       3.36454713       3.56283576      -1.10864251       0.07443091      -0.00853261
Si       7.05349089       1.96724436       2.51651344       1.10864251      -0.01276133      -0.07382354
Si       5.53511888       2.96847357       1.17942992      -1.10864251      -0.07443091       0.00853261
Si       7.27391234       5.79223111       0.19949242      -1.27822880       0.66936937       0.77764162
Si       5.31469742       1.82168428       5.50192738       1.27822880       0.93460268       0.42343792
Si       7.27391234       0.54078959       4.54277326      -1.27822880      -0.66936937      -0.77764162
Si       5.31469742       4.51133641      -0.75966170       1.27822880      -0.93460268      -0.42343792
Si       5.31469742       6.87381030       9.28503893       1.27822880      -0.66936937      -0.77764162
Si       7.27391234      10.84435712       3.98260397      -1.27822880      -0.93460268      -0.42343792
Si       5.31469742      12.12525182       4.94175809       1.27822880       0.66936937       0.77764162
Si       7.27391234       8.15470499      10.24419305      -1.27822880       0.93460268       0.42343792
Si       6.29430488      10.93704873      -1.40614668      -0.00000000      -0.00000000       0.00000000
Si       3.14715244       6.33302070       4.74226567       0.00000000       0.00000000       0.00000000
18
Lattice="6.342500274410742 -5.4854846119429606e-15 6.041575290920721e-15 3.171250137205365 11.130437129277944 -1.3853348538394854 3.171250137205378 1.8033934477671552 11.070390933414295" Properties=species:S:1:pos:R:3:forces:R:3 unique_starting_index=360 config_type=initial n_minim_iter=12 energy=-2912.6442382159576 stress="0.015798001984166008 0.015140692605120841 0.016207898093378744 -0.0018192256200455657 -1.4416714608593574e-12 -7.495707907891242e-13" pbc="T T T"
Si       5.57343557       8.47990536       7.40625177      -0.89726804       0.39211164      -0.39015341
Si       7.11156498       9.49356602       6.05256675       0.89726804      -0.26401910       0.48607112
Si       5.57343557      10.92084049       7.12133236      -0.89726804      -0.39211164       0.39015341
Si       7.11156498       9.90717983       8.47501737       0.89726804       0.26401910      -0.48607112
Si       7.11156498       4.45392520       2.27880432       0.89726804      -0.39211164       0.39015341
Si       5.57343557       3.44026454       3.63248933      -0.89726804       0.26401910      -0.48607112
Si       7.11156498       2.01299007       2.56372373       0.89726804       0.39211164      -0.39015341
Si       5.57343557       3.02665074       1.21003871      -0.89726804      -0.26401910       0.48607112
Si       7.32492104       5.90123424       0.22991662      -0.93841112       0.40314634       0.48179634
Si       5.36007950       1.88155811       5.59796091       0.93841112       0.57578719       0.25124451
Si       7.32492104       0.56568103       4.61261143      -0.93841112      -0.40314634      -0.48179634
Si       5.36007950       4.58535716      -0.75543287       0.93841112      -0.57578719      -0.25124451
Si       5.36007950       7.03259632       9.45513947       0.93841112      -0.40314634      -0.48179634
Si       7.32492104      11.05227245       4.08709517      -0.93841112      -0.57578719      -0.25124451
Si       5.36007950      12.36814953       5.07244466       0.93841112       0.40314634       0.48179634
Si       7.32492104       8.34847340      10.44048895      -0.93841112       0.57578719       0.25124451
Si       6.34250027      11.13043712      -1.38533485       0.00000000      -0.00000000      -0.00000000
Si       3.17125014       6.46691528       4.84252804       0.00000000      -0.00000000      -0.00000000
18
Lattice="6.274525212531018 -5.04189599748553e-15 5.193791613695012e-15 3.1372626062655034 11.014393364564643 -1.3564415454181993 3.137262606265515 1.7984575417400668 10.950906141779315" Properties=species:S:1:pos:R:3:forces:R:3 unique_starting_index=360 config_type=initial n_minim_iter=13 energy=-2912.858566889234 stress="0.0006142154444917413 -0.0020725927334903443 -0.002163800104836826 0.00015547782758385174 -3.4747433011135266e-12 -2.22745350790356e-12" pbc="T T T"
Si       5.51279859       8.40271488       7.33431674      -1.04587090       0.15122586      -0.13084415
Si       7.03625184       9.40281332       5.99874329       1.04587090      -0.08299129       0.18193927
Si       5.51279859      10.81656146       7.05738016      -1.04587090      -0.15122586       0.13084415
Si       7.03625184       9.81646302       8.39295362       1.04587090       0.08299129      -0.18193927
Si       7.03625184       4.41013601       2.26014787       1.04587090      -0.15122586       0.13084415
Si       5.51279859       3.41003757       3.59572132      -1.04587090       0.08299129      -0.18193927
Si       7.03625184       1.99628943       2.53708444       1.04587090       0.15122586      -0.13084415
Si       5.51279859       2.99638787       1.20151099      -1.04587090      -0.08299129       0.18193927
Si       7.24547124       5.84136986       0.23539844      -1.09520386       0.60912157       0.56073430
Si       5.30357919       1.86996915       5.53897370       1.09520386       0.70950692       0.42667548
Si       7.24547124       0.56505558       4.56183386      -1.09520386      -0.60912157      -0.56073430