16
Lattice="3.8685353101367146 0.5262476788308218 0.11027167818496326 2.100683351218844 13.024338624805214 2.517814880822493 -0.014685908727304051 -1.2603798022756936 6.5277435469163825" Properties=species:S:1:pos:R:3:forces:R:3 unique_starting_index=420 config_type=initial n_minim_iter=16 energy=-2606.6163078303593 stress="1.4256329585712514e-05 -6.703142359419333e-06 2.674792221707827e-05 -6.703142359419333e-06 -5.031729408394898e-05 -2.0173651599449536e-05 2.674792221707827e-05 -2.0173651599449536e-05 1.773109559755097e-05" free_energy=-2606.6163078303593 pbc="T T T"
Si       3.77662496       0.04006783       5.76818041       0.00245356       0.00223352      -0.00258954
Si       3.05208319       5.74746113       3.48292712       0.00389091       0.00551704      -0.00013679
Si       3.05508976       8.93429168       5.69638452      -0.00186096      -0.00038432      -0.00123149
Si       2.03041796      10.02201505       2.51861788      -0.00689438      -0.00509781      -0.00260162
Si       2.17790779      12.25013867       3.38764969      -0.00245356      -0.00223352       0.00258954
Si       2.90244956       6.54274538       5.67290299      -0.00389091      -0.00551704       0.00013679
Si       2.89944299       3.35591482       3.45944559       0.00186096       0.00038432       0.00123149
Si       3.92411479       2.26819145       6.63721222       0.00689439       0.00509781       0.00260162
Si       4.05009233       9.90942987       1.35033310       0.00371007       0.00423991      -0.00244314
Si       4.90847987      10.00047313       4.75542374       0.00201606      -0.00007410      -0.00690119
Si       4.12218644      12.26417098       4.74256583      -0.00098960      -0.00158820      -0.00532803
Si       4.82095210       6.55122679       7.02687679      -0.00277042       0.00188423      -0.00006040
Si       1.90444042       2.38077664       7.80549701      -0.00371008      -0.00423991       0.00244314
Si       1.04605289       2.28973337       4.40040636      -0.00201606       0.00007410       0.00690119
Si       1.83234632       0.02603552       4.41326428       0.00098960       0.00158820       0.00532803
Si       1.13358065       5.73897971       2.12895332       0.00277042      -0.00188423       0.00006040
