14
Lattice="6.01541 -3.683376301029491e-16 -3.68337630102949e-16 4.260723788019519e-16 6.958290000000001 2.9950019214504977e-31 4.260723788019519e-16 2.7667195949295994e-31 6.958289999999999" Properties=species:S:1:pos:R:3:forces:R:3 unique_starting_index=416 config_type=initial n_minim_iter=1 energy=-2233.5998727274887 stress="-0.37263422821953274 -0.3085963438768333 -0.3085963438726298 5.864491127628916e-12 -4.987005699681871e-12 2.1165573467713785e-12" pbc="T T T"
Si       2.04231772       0.40922399       5.71234068      15.15012621     -12.77139710     -13.82456471
Si       2.04231772       6.54906601       1.24594932      15.15012621      12.77139710      13.82456471
Si       5.05002272       1.24594932       0.40922399      15.15012621      13.82456471     -12.77139710
Si       5.05002272       5.71234068       6.54906601      15.15012621     -13.82456471      12.77139710
Si       3.97309228       6.54906601       5.71234068     -15.15012621      12.77139710     -13.82456471
Si       3.97309228       0.40922399       1.24594932     -15.15012621     -12.77139710      13.82456471
Si       0.96538728       5.71234068       0.40922399     -15.15012621     -13.82456471     -12.77139710
Si       0.96538728       1.24594932       6.54906601     -15.15012621      13.82456471      12.77139710
Si       4.51155750       4.04483032       2.91345968       0.00000000      18.46438225     -18.46438225
Si       1.50385250       2.91345968       2.91345968      -0.00000000     -18.46438225     -18.46438225
Si       1.50385250       4.04483032       4.04483032      -0.00000000      18.46438225      18.46438225
Si       4.51155750       2.91345968       4.04483032       0.00000000     -18.46438225      18.46438225
Si       0.00000000       3.47914500       0.00000000      -0.00000000       0.00000000      -0.00000000
Si       3.00770500      -0.00000000       3.47914500      -0.00000000      -0.00000000       0.00000000
14
Lattice="6.081051290243715 -3.712327829513684e-16 -3.712327829513683e-16 4.3121959245384277e-16 7.021112722997682 3.025193970321332e-31 4.3121959245384277e-16 2.7948506033200443e-31 7.02111272299768" Properties=species:S:1:pos:R:3:forces:R:3 unique_starting_index=416 config_type=initial n_minim_iter=2 energy=-2236.9744269226626 stress="-0.33026967983750644 -0.27384234762700443 -0.2738423476467375 2.162834551077292e-12 -2.0386711476009534e-12 -4.8839264139836895e-12" pbc="T T T"
Si       2.06613542       0.41162999       5.76251945      13.71149409     -11.63069786     -12.71330158
Si       2.06613542       6.60948274       1.25859328      13.71149409      11.63069786      12.71330158
Si       5.10666107       1.25859328       0.41162999      13.71149409      12.71330158     -11.63069786
Si       5.10666107       5.76251945       6.60948274      13.71149409     -12.71330158      11.63069786
Si       4.01491587       6.60948274       5.76251945     -13.71149409      11.63069786     -12.71330158
Si       4.01491587       0.41162999       1.25859328     -13.71149409     -11.63069786      12.71330158
Si       0.97439022       5.76251945       0.41162999     -13.71149409     -12.71330158     -11.63069786
Si       0.97439022       1.25859328       6.60948274     -13.71149409      12.71330158      11.63069786
Si       4.56078847       4.08321206       2.93790066      -0.00000000      16.47860164     -16.47860164
Si       1.52026282       2.93790066       2.93790066      -0.00000000     -16.47860164     -16.47860164
Si       1.52026282       4.08321206       4.08321206       0.00000000      16.47860164      16.47860164
Si       4.56078847       2.93790066       4.08321206       0.00000000     -16.47860164      16.47860164
Si       0.00000000       3.51055636       0.00000000      -0.00000000       0.00000000       0.00000000
Si       3.04052565      -0.00000000       3.51055636       0.00000000      -0.00000000      -0.00000000
14
Lattice="6.810688684212167 -4.035294228595891e-16 -4.03529422859589e-16 4.878927146144725e-16 7.712767917294204 -1.1178826941874712e-16 4.878927146144725e-16 -1.117882694187471e-16 7.712767917294203" Properties=species:S:1:pos:R:3:forces:R:3 unique_starting_index=416 config_type=initial n_minim_iter=3 energy=-2257.1512992708413 stress="-0.028391780538138164 -0.03164301581568615 -0.03164301580726173 2.831887992708799e-12 -6.58233741727757e-13 -2.8999618600149214e-13" pbc="T T T"
Si       2.33200351       0.43729159       6.31391543       5.66557426      -5.05788981      -5.36755364
Si       2.33200351       7.27547633       1.39885248       5.66557426       5.05788981       5.36755364
Si       5.73734785       1.39885248       0.43729159       5.66557426       5.36755364      -5.05788981
Si       5.73734785       6.31391543       7.27547633       5.66557426      -5.36755364       5.05788981
Si       4.47868517       7.27547633       6.31391543      -5.66557426       5.05788981      -5.36755364
Si       4.47868517       0.43729159       1.39885248      -5.66557426      -5.05788981       5.36755364
Si       1.07334083       6.31391543       0.43729159      -5.66557426      -5.36755364      -5.05788981
Si       1.07334083       1.39885248       7.27547633      -5.66557426       5.36755364       5.05788981
Si       5.10801651       4.50654657       3.20622135       0.00000000       4.15784706      -4.15784706
Si       1.70267217       3.20622135       3.20622135      -0.00000000      -4.15784707      -4.15784707
Si       1.70267217       4.50654657       4.50654657      -0.00000000       4.15784706       4.15784707
Si       5.10801651       3.20622135       4.50654657      -0.00000000      -4.15784706       4.15784706
Si       0.00000000       3.85638396      -0.00000000       0.00000000      -0.00000000      -0.00000000
Si       3.40534434      -0.00000000       3.85638396       0.00000000      -0.00000000      -0.00000000
14
Lattice="6.920559042889226 -4.071541414923684e-16 -4.071541414923683e-16 4.999796263619042e-16 7.851566195777012 -4.637030375859883e-16 4.999796263619042e-16 -4.637030375859883e-16 7.851566195777012" Properties=species:S:1:pos:R:3:forces:R:3 unique_starting_index=416 config_type=initial n_minim_iter=4 energy=-2258.640850652784 stress="0.011774437752506004 0.001988745302992542 0.001988745278604828 -3.3812439812790614e-13 -2.4903713292070624e-12 2.6094990407501643e-12" pbc="T T T"
Si       2.37989069       0.43635996       6.41820016       4.13912327      -3.98102845      -3.78969813
Si       2.37989069       7.41520624       1.43336603       4.13912327       3.98102845       3.78969813
Si       5.84017021       1.43336603       0.43635996       4.13912327       3.78969813      -3.98102845
Si       5.84017021       6.41820016       7.41520624       4.13912327      -3.78969813       3.98102845
Si       4.54066835       7.41520624       6.41820016      -4.13912327       3.98102845      -3.78969813
Si       4.54066835       0.43635996       1.43336603      -4.13912327      -3.98102845       3.78969813
Si       1.08038883       6.41820016       0.43635996      -4.13912327      -3.78969813      -3.98102846
Si       1.08038883       1.43336603       7.41520624      -4.13912327       3.78969813       3.98102845
Si       5.19041928       4.59488093       3.25668527      -0.00000000       2.51669260      -2.51669260
Si       1.73013976       3.25668527       3.25668527       0.00000000      -2.51669260      -2.51669260
Si       1.73013976       4.59488093       4.59488093       0.00000000       2.51669260       2.51669260
Si       5.19041928       3.25668527       4.59488093      -0.00000000      -2.51669260       2.51669260
Si       0.00000000       3.92578310      -0.00000000      -0.00000000       0.00000000      -0.00000000
Si       3.46027952      -0.00000000       3.92578310       0.00000000      -0.00000000       0.00000000
14
Lattice="6.866131099560655 -4.0392775513793686e-16 -4.039277551379368e-16 4.992106667185754e-16 7.841102143918429 -3.53402659282028e-16 4.992106667185754e-16 -3.534026592820278e-16 7.841102143918429" Properties=species:S:1:pos:R:3:forces:R:3 unique_starting_index=416 config_type=initial n_minim_iter=5 energy=-2259.5036989795285 stress="0.007299565751558397 0.005009614024500018 0.005009614000496512 -2.184799756422768e-12 1.300657953563173e-12 -3.4348734052238074e-12" pbc="T T T"
Si       2.36971704       0.42782187       6.40207227       3.49107646      -3.63914882      -3.53634197
Si       2.36971704       7.41328027       1.43902988       3.49107646       3.63914882       3.53634197
Si       5.80278259       1.43902988       0.42782187       3.49107646       3.53634197      -3.63914882
Si       5.80278259       6.40207227       7.41328027       3.49107646      -3.53634197       3.63914882
Si       4.49641406       7.41328027       6.40207227      -3.49107646       3.63914882      -3.53634197
Si       4.49641406       0.42782187       1.43902988      -3.49107646      -3.63914882       3.53634197
Si       1.06334851       6.40207227       0.42782187      -3.49107646      -3.53634197      -3.63914882
Si       1.06334851       1.43902988       7.41328027      -3.49107646       3.53634197       3.63914882
Si       5.14959832       4.59378707       3.24731508      -0.00000000       2.42674624      -2.42674624
Si       1.71653277       3.24731508       3.24731508       0.00000000      -2.42674624      -2.42674624
Si       1.71653277       4.59378707       4.59378707       0.00000000       2.42674624       2.42674624
Si       5.14959832       3.24731508       4.59378707      -0.00000000      -2.42674624       2.42674624
Si       0.00000000       3.92055107      -0.00000000      -0.00000000       0.00000000      -0.00000000
Si       3.43306555      -0.00000000       3.92055107      -0.00000000       0.00000000      -0.00000000
14
Lattice="6.714520050986356 -3.9763774759829966e-16 -3.9763774759829966e-16 4.884480296720037e-16 7.7218628533535005 -1.3481473131078965e-16 4.884480296720037e-16 -1.3481473131078952e-16 7.7218628533535" Properties=species:S:1:pos:R:3:forces:R:3 unique_starting_index=416 config_type=initial n_minim_iter=6 energy=-2262.1011611664812 stress="-0.023253321469569523 0.0035193461204542464 0.0035193461017805822 1.3657371777372331e-12 6.3603774243843685e-12 -1.7330681584777726e-12" pbc="T T T"
Si       2.34962061       0.38834069       6.27267249       0.86494030      -2.26704344      -2.56771311
Si       2.34962061       7.33352216       1.44919036       0.86494030       2.26704344       2.56771311
Si       5.70688064       1.44919036       0.38834069       0.86494030       2.56771311      -2.26704344
Si       5.70688064       6.27267249       7.33352216       0.86494030      -2.56771311       2.26704344
Si       4.36489944       7.33352216       6.27267249      -0.86494030       2.26704344      -2.56771311
Si       4.36489944       0.38834069       1.44919036      -0.86494030      -2.26704344       2.56771311
Si       1.00763941       6.27267249       0.38834069      -0.86494030      -2.56771311      -2.26704344
Si       1.00763941       1.44919036       7.33352216      -0.86494030       2.56771311       2.26704344
Si       5.03589004       4.54591896       3.17594390      -0.00000000       2.39281185      -2.39281185
Si       1.67863001       3.17594390       3.17594390       0.00000000      -2.39281185      -2.39281185
Si       1.67863001       4.54591896       4.54591896       0.00000000       2.39281185       2.39281185
Si       5.03589004       3.17594390       4.54591896      -0.00000000      -2.39281185       2.39281185
Si       0.00000000       3.86093143      -0.00000000      -0.00000000       0.00000000       0.00000000
Si       3.35726003      -0.00000000       3.86093143       0.00000000      -0.00000000      -0.00000000
14
Lattice="7.125876860531927 -4.252752707664552e-16 -4.2527527076645513e-16 4.812611315082518e-16 7.652683826601795 -4.247627966502188e-16 4.812611315082518e-16 -4.2476279665021863e-16 7.652683826601792" Properties=species:S:1:pos:R:3:forces:R:3 unique_starting_index=416 config_type=initial n_minim_iter=7 energy=-2262.820944168 stress="0.05053119386373775 0.024129571073669087 0.0241295710595722 -8.452251737963886e-13 -5.675930598229591e-13 4.4051361695675e-12" pbc="T T T"
Si       2.50087177       0.36719006       6.19646128       0.80582555      -1.91656045      -1.31059196
Si       2.50087177       7.28549377       1.45622254       0.80582555       1.91656045       1.31059196
Si       6.06381020       1.45622254       0.36719006       0.80582555       1.31059196      -1.91656045
Si       6.06381020       6.19646128       7.28549377       0.80582555      -1.31059196       1.91656045
Si       4.62500509       7.28549377       6.19646128      -0.80582555       1.91656045      -1.31059196
Si       4.62500509       0.36719006       1.45622254      -0.80582555      -1.91656045       1.31059196
Si       1.06206666       6.19646128       0.36719006      -0.80582555      -1.31059196      -1.91656045
Si       1.06206666       1.45622254       7.28549377      -0.80582555       1.31059196       1.91656045
Si       5.34440765       4.52384465       3.12883918      -0.00000000       1.91421443      -1.91421443
Si       1.78146922       3.12883918       3.12883918      -0.00000000      -1.91421443      -1.91421443
Si       1.78146922       4.52384465       4.52384465       0.00000000       1.91421443       1.91421443
Si       5.34440765       3.12883918       4.52384465      -0.00000000      -1.91421443       1.91421443
Si       0.00000000       3.82634191      -0.00000000       0.00000000       0.00000000      -0.00000000
Si       3.56293843      -0.00000000       3.82634191       0.00000000       0.00000000      -0.00000000
14
Lattice="6.858393716819916 -4.051917856238283e-16 -4.051917856238282e-16 4.769546131405878e-16 7.514141580994946 -2.837594831372471e-16 4.769546131405879e-16 -2.837594831372468e-16 7.514141580994943" Properties=species:S:1:pos:R:3:forces:R:3 unique_starting_index=416 config_type=initial n_minim_iter=8 energy=-2263.4903196974074 stress="-0.014603341246537605 -0.006044452441440863 -0.006044452442717394 6.256628273500352e-12 -4.452385337625825e-12 4.799225990767377e-12" pbc="T T T"
Si       2.40897149       0.35641278       6.08145809       0.16952860      -1.71496294      -1.95448157
Si       2.40897149       7.15772880       1.43268349       0.16952860       1.71496294       1.95448157
Si       5.83816835       1.43268349       0.35641278       0.16952860       1.95448156      -1.71496294
Si       5.83816835       6.08145809       7.15772880       0.16952860      -1.95448157       1.71496294
Si       4.44942223       7.15772880       6.08145809      -0.16952860       1.71496294      -1.95448156
Si       4.44942223       0.35641278       1.43268349      -0.16952860      -1.71496294       1.95448157
Si       1.02022537       6.08145809       0.35641278      -0.16952860      -1.95448156      -1.71496294
Si       1.02022537       1.43268349       7.15772880      -0.16952860       1.95448156       1.71496294
Si       5.14379529       4.44607082       3.06807076       0.00000000       2.53922530      -2.53922530
Si       1.71459843       3.06807076       3.06807076      -0.00000000      -2.53922529      -2.53922530
Si       1.71459843       4.44607082       4.44607082      -0.00000000       2.53922530       2.53922530
Si       5.14379529       3.06807076       4.44607082       0.00000000      -2.53922530       2.53922530
Si       0.00000000       3.75707079      -0.00000000       0.00000000      -0.00000000      -0.00000000
Si       3.42919686      -0.00000000       3.75707079       0.00000000      -0.00000000      -0.00000000
14
Lattice="6.913370976310256 -4.0457020417651056e-16 -4.0457020417651047e-16 4.831357043348241e-16 7.539014554245256 -1.0974108463901314e-16 4.831357043348242e-16 -1.0974108463901285e-16 7.539014554245253" Properties=species:S:1:pos:R:3:forces:R:3 unique_starting_index=416 config_type=initial n_minim_iter=9 energy=-2263.6788688539086 stress="0.002235505563853778 0.0030349007410249594 0.003034900768271239 3.007393882603312e-12 1.519223870561455e-12 -2.0721453453850426e-12" pbc="T T T"
Si       2.42859557       0.35475963       6.09836007       0.18258252      -1.67618703      -1.73127079
Si       2.42859557       7.18425492       1.44065449       0.18258252       1.67618703       1.73127079
Si       5.88528106       1.44065449       0.35475963       0.18258252       1.73127079      -1.67618703
Si       5.88528106       6.09836007       7.18425492       0.18258252      -1.73127079       1.67618703
Si       4.48477541       7.18425492       6.09836007      -0.18258252       1.67618703      -1.73127079
Si       4.48477541       0.35475963       1.44065449      -0.18258252      -1.67618704       1.73127079
Si       1.02808992       6.09836007       0.35475963      -0.18258252      -1.73127079      -1.67618703
Si       1.02808992       1.44065449       7.18425492      -0.18258252       1.73127079       1.67618703
Si       5.18502823       4.46498252       3.07403203       0.00000000       2.21340152      -2.21340152
Si       1.72834274       3.07403203       3.07403203      -0.00000000      -2.21340152      -2.21340152
Si       1.72834274       4.46498252       4.46498252      -0.00000000       2.21340152       2.21340152
Si       5.18502823       3.07403203       4.46498252       0.00000000      -2.21340152       2.21340152
Si       0.00000000       3.76950728      -0.00000000       0.00000000       0.00000000       0.00000000
Si       3.45668549      -0.00000000       3.76950728       0.00000000      -0.00000000      -0.00000000
14
Lattice="6.905242604722678 -4.0020909032335055e-16 -4.002090903233504e-16 4.868744516381685e-16 7.526983444778771 -6.545734397535677e-17 4.868744516381686e-16 -6.545734397535648e-17 7.526983444778768" Properties=species:S:1:pos:R:3:forces:R:3 unique_starting_index=416 config_type=initial n_minim_iter=10 energy=-2263.815576555174 stress="-0.0003904017959949273 0.00224487224964617 0.0022448722440483863 6.721382797228938e-13 -7.641182051401869e-12 5.721264224360447e-13" pbc="T T T"
Si       2.42606276       0.35156245       6.08591052       0.06710403      -1.62733021      -1.70058330
Si       2.42606276       7.17542099       1.44107292       0.06710404       1.62733021       1.70058330
Si       5.87868406       1.44107292       0.35156245       0.06710403       1.70058330      -1.62733021
Si       5.87868406       6.08591052       7.17542099       0.06710404      -1.70058330       1.62733021
Si       4.47917984       7.17542099       6.08591052      -0.06710404       1.62733021      -1.70058330
Si       4.47917984       0.35156245       1.44107292      -0.06710403      -1.62733021       1.70058330
Si       1.02655854       6.08591052       0.35156245      -0.06710404      -1.70058330      -1.62733021
Si       1.02655854       1.44107292       7.17542099      -0.06710403       1.70058330       1.62733021
Si       5.17893195       4.46133138       3.06565207      -0.00000000       2.13840455      -2.13840455
Si       1.72631065       3.06565207       3.06565207       0.00000000      -2.13840455      -2.13840455
Si       1.72631065       4.46133138       4.46133138       0.00000000       2.13840455       2.13840455
Si       5.17893195       3.06565207       4.46133138      -0.00000000      -2.13840455       2.13840455
Si       0.00000000       3.76349172      -0.00000000      -0.00000000      -0.00000000       0.00000000
Si       3.45262130      -0.00000000       3.76349172       0.00000000      -0.00000000      -0.00000000
14
Lattice="6.909837053639136 -3.9705129557082466e-16 -3.9705129557082456e-16 4.89181902100406e-16 7.498250470362139 -2.493845721244717e-17 4.891819021004061e-16 -2.4938457212446985e-17 7.4982504703621355" Properties=species:S:1:pos:R:3:forces:R:3 unique_starting_index=416 config_type=initial n_minim_iter=11 energy=-2264.2130145312913 stress="-0.00041405475426781803 0.002674002364000574 0.0026740023645361764 2.6216428845798115e-12 6.387912230178118e-12 7.39578871673145e-12" pbc="T T T"
Si       2.42806230       0.34195949       6.05404581      -0.20094763      -1.50129097      -1.54219321
Si       2.42806230       7.15629098       1.44420466      -0.20094763       1.50129097       1.54219321
Si       5.88298082       1.44420466       0.34195949      -0.20094763       1.54219321      -1.50129097
Si       5.88298082       6.05404581       7.15629098      -0.20094763      -1.54219321       1.50129097
Si       4.48177476       7.15629098       6.05404581       0.20094763       1.50129097      -1.54219321
Si       4.48177476       0.34195949       1.44420466       0.20094763      -1.50129097       1.54219321
Si       1.02685623       6.05404581       0.34195949       0.20094763      -1.54219321      -1.50129097
Si       1.02685623       1.44420466       7.15629098       0.20094763       1.54219321       1.50129097
Si       5.18237779       4.45515634       3.04309413      -0.00000000       1.87651993      -1.87651993
Si       1.72745926       3.04309413       3.04309413       0.00000000      -1.87651993      -1.87651993
Si       1.72745926       4.45515634       4.45515634      -0.00000000       1.87651993       1.87651993
Si       5.18237779       3.04309413       4.45515634       0.00000000      -1.87651993       1.87651993
Si       0.00000000       3.74912524      -0.00000000      -0.00000000       0.00000000       0.00000000
Si       3.45491853      -0.00000000       3.74912524       0.00000000       0.00000000       0.00000000
14
Lattice="6.935106889475504 -3.9860772531009003e-16 -3.9860772531008993e-16 4.791458175365908e-16 7.323549011021894 1.0532280979326134e-16 4.791458175365909e-16 1.0532280979326131e-16 7.323549011021892" Properties=species:S:1:pos:R:3:forces:R:3 unique_starting_index=416 config_type=initial n_minim_iter=12 energy=-2265.6626346682187 stress="-0.0016041437598475852 -0.0010819326611408847 -0.0010819326607439332 -1.76304299480328e-12 3.858991035305193e-12 -1.1767303012682885e-11" pbc="T T T"
Si       2.43090285       0.29535215       5.87330004      -1.09648175      -1.14453659      -1.12757517
Si       2.43090285       7.02819686       1.45024897      -1.09648175       1.14453659       1.12757517
Si       5.89845630       1.45024897       0.29535215      -1.09648175       1.12757517      -1.14453659
Si       5.89845630       5.87330004       7.02819686      -1.09648175      -1.12757517       1.14453659
Si       4.50420404       7.02819686       5.87330004       1.09648175       1.14453659      -1.12757517
Si       4.50420404       0.29535215       1.45024897       1.09648175      -1.14453659       1.12757517
Si       1.03665059       5.87330004       0.29535215       1.09648175      -1.12757517      -1.14453659
Si       1.03665059       1.45024897       7.02819686       1.09648175       1.12757517       1.14453659
Si       5.20133017       4.39965346       2.92389555       0.00000000       1.10096032      -1.10096032
Si       1.73377672       2.92389555       2.92389555       0.00000000      -1.10096032      -1.10096032
Si       1.73377672       4.39965346       4.39965346      -0.00000000       1.10096032       1.10096032
Si       5.20133017       2.92389555       4.39965346       0.00000000      -1.10096032       1.10096032
Si       0.00000000       3.66177451       0.00000000       0.00000000       0.00000000       0.00000000
Si       3.46755344      -0.00000000       3.66177451      -0.00000000       0.00000000       0.00000000
14
Lattice="7.049675651793118 -3.9951944623192097e-16 -3.9951944623192087e-16 4.913605383313797e-16 7.4049314475330466 1.0286880990020138e-16 4.913605383313798e-16 1.0286880990020136e-16 7.404931447533043" Properties=species:S:1:pos:R:3:forces:R:3 unique_starting_index=416 config_type=initial n_minim_iter=13 energy=-2266.4397732772322 stress="0.05471322903639065 0.021746173778275316 0.021746173769035575 -2.70572603258797e-12 -4.147442404362088e-12 -2.261562816270471e-12" pbc="T T T"
Si       2.43037950       0.26343138       5.90388552      -0.50897268      -1.37412699      -0.60395281
Si       2.43037950       7.14150007       1.50104593      -0.50897268       1.37412699       0.60395281
Si       5.95521733       1.50104593       0.26343138      -0.50897268       0.60395281      -1.37412699
Si       5.95521733       5.90388552       7.14150007      -0.50897268      -0.60395281       1.37412699
Si       4.61929615       7.14150007       5.90388552       0.50897268       1.37412699      -0.60395281
Si       4.61929615       0.26343138       1.50104593       0.50897268      -1.37412699       0.60395281
Si       1.09445832       5.90388552       0.26343138       0.50897267      -0.60395281      -1.37412699
Si       1.09445832       1.50104593       7.14150007       0.50897267       0.60395281       1.37412699
Si       5.28725674       4.48240687       2.92252458      -0.00000000       0.50650806      -0.50650806
Si       1.76241891       2.92252458       2.92252458       0.00000000      -0.50650806      -0.50650806
Si       1.76241891       4.48240687       4.48240687       0.00000000       0.50650806       0.50650806
Si       5.28725674       2.92252458       4.48240687      -0.00000000      -0.50650806       0.50650806
Si       0.00000000       3.70246572       0.00000000      -0.00000000       0.00000000       0.00000000
Si       3.52483783      -0.00000000       3.70246572       0.00000000      -0.00000000      -0.00000000
14
Lattice="6.8269605471516925 -3.816512309247057e-16 -3.8165123092470554e-16 4.897741183977735e-16 7.311050680042468 6.750005242135084e-17 4.897741183977736e-16 6.750005242135076e-17 7.311050680042464" Properties=species:S:1:pos:R:3:forces:R:3 unique_starting_index=416 config_type=initial n_minim_iter=14 energy=-2266.944230168665 stress="-0.00010105117446238566 0.0013265733230807535 0.0013265733167317536 -3.8103868174941237e-13 5.6165004006198386e-12 -2.142759270749299e-12" pbc="T T T"
Si       2.35257083       0.25775943       5.82801021      -1.17134476      -1.32286924      -1.15471819
Si       2.35257083       7.05329125       1.48304047      -1.17134476       1.32286924       1.15471819
Si       5.76605111       1.48304047       0.25775943      -1.17134476       1.15471819      -1.32286924
Si       5.76605111       5.82801021       7.05329125      -1.17134476      -1.15471819       1.32286924
Si       4.47438971       7.05329125       5.82801021       1.17134476       1.32286924      -1.15471819
Si       4.47438971       0.25775943       1.48304047       1.17134476      -1.32286924       1.15471819
Si       1.06090944       5.82801021       0.25775943       1.17134476      -1.15471819      -1.32286924
Si       1.06090944       1.48304047       7.05329125       1.17134476       1.15471819       1.32286924
Si       5.12022041       4.42643791       2.88461277      -0.00000000       0.59456913      -0.59456913
Si       1.70674014       2.88461277       2.88461277       0.00000000      -0.59456913      -0.59456913
Si       1.70674014       4.42643791       4.42643791       0.00000000       0.59456914       0.59456913
Si       5.12022041       2.88461277       4.42643791      -0.00000000      -0.59456913       0.59456913
Si       0.00000000       3.65552534       0.00000000      -0.00000000      -0.00000000      -0.00000000
Si       3.41348027      -0.00000000       3.65552534      -0.00000000      -0.00000000       0.00000000
14
Lattice="6.827338677358127 -3.7812701844039565e-16 -3.7812701844039555e-16 4.935846078140805e-16 7.305736775338233 2.8084137297301243e-16 4.935846078140805e-16 2.808413729730124e-16 7.305736775338229" Properties=species:S:1:pos:R:3:forces:R:3 unique_starting_index=416 config_type=initial n_minim_iter=15 energy=-2267.0115792409565 stress="0.000980316577875377 0.0011864722665751754 0.0011864722525125346 -4.133914878047838e-12 3.817025904611045e-13 -1.3185061697927674e-12" pbc="T T T"
Si       2.35043489       0.25538014       5.82186091      -1.15537264      -1.32458194      -1.15850461
Si       2.35043489       7.05035663       1.48387587      -1.15537264       1.32458194       1.15850461
Si       5.76410423       1.48387587       0.25538014      -1.15537264       1.15850461      -1.32458194
Si       5.76410423       5.82186091       7.05035663      -1.15537264      -1.15850461       1.32458194
Si       4.47690379       7.05035663       5.82186091       1.15537264       1.32458194      -1.15850461
Si       4.47690379       0.25538014       1.48387587       1.15537264      -1.32458194       1.15850461
Si       1.06323445       5.82186091       0.25538014       1.15537264      -1.15850461      -1.32458194
Si       1.06323445       1.48387587       7.05035663       1.15537264       1.15850461       1.32458194
Si       5.12050401       4.42420581       2.88153096      -0.00000000       0.58961844      -0.58961844
Si       1.70683467       2.88153096       2.88153096       0.00000000      -0.58961844      -0.58961844
Si       1.70683467       4.42420581       4.42420581       0.00000000       0.58961844       0.58961844
Si       5.12050401       2.88153096       4.42420581      -0.00000000      -0.58961844       0.58961844
Si       0.00000000       3.65286839       0.00000000      -0.00000000       0.00000000       0.00000000
Si       3.41366934      -0.00000000       3.65286839       0.00000000       0.00000000       0.00000000
14
Lattice="6.821831203943755 -3.7425230024197697e-16 -3.7425230024197687e-16 4.972476217571095e-16 7.298604643242426 3.9958983242669326e-16 4.972476217571095e-16 3.99589832426693e-16 7.298604643242421" Properties=species:S:1:pos:R:3:forces:R:3 unique_starting_index=416 config_type=initial n_minim_iter=16 energy=-2267.112318110336 stress="0.0012913025585091443 0.0007153182196325639 0.0007153182015629481 2.4174258183652277e-12 -4.307739864255651e-13 -3.96383602625683e-12" pbc="T T T"
Si       2.34517935       0.25183543       5.81329517      -1.15301009      -1.32579441      -1.17000149