22
Lattice="5.605408201141574 -0.6266154114615751 1.0612793372364868 -2.31426817927134 4.795446158472545 -2.744033599709962 2.778878435934501 -3.045001923175983 20.35548541494453" Properties=species:S:1:pos:R:3:forces:R:3 unique_starting_index=51 config_type=initial n_minim_iter=9 energy=-3580.957671228566 stress="-2.024041581487217e-05 -2.063614101023512e-05 8.464155019585263e-06 -2.063614101023512e-05 -1.860423942891949e-05 -1.7328476330472226e-06 8.464155019585263e-06 -1.7328476330472226e-06 2.21441936660689e-06" free_energy=-3580.957671228566 pbc="T T T"
Si       3.55094789       2.91802468       2.75358982      -0.00090629      -0.00342044       0.00179739
Si       2.43920984       0.41666467      12.25363058       0.00499175      -0.00138937       0.00108094
Si      -0.40814491       3.28319841      -3.28961511      -0.00380675       0.00253258      -0.00105627
Si       0.29792929       2.66900988       3.98070827      -0.00015465      -0.00092646      -0.00016383
Si       2.69046112      -0.25771701       9.64231668      -0.00071826      -0.00391855      -0.00029615
Si       6.08397817      -0.83893041      10.09891154      -0.00414651      -0.00776500      -0.00279832
Si      -0.18006334       1.79747687       1.73899594       0.00227550       0.00530066       0.00175539
Si      -0.36492977       0.83549590      -0.51088856       0.00093822       0.00200725       0.00250056
Si       4.12337158      -1.02263329      11.41787182       0.00526230      -0.00275309      -0.00108008
Si       5.75261120      -0.34683702      19.09538728       0.00038283      -0.00098565       0.00281274
Si       2.12580064       1.08561477      14.75264248      -0.00063293       0.00296757       0.00244560
Si       5.94407223      -0.57825562       7.64040520       0.00076464       0.00356108       0.00219632
Si       1.78047113       1.28910184       5.19466455      -0.00342363       0.00081303      -0.00641762
Si       5.83190159      -2.53293652      20.30798748      -0.00371636       0.00078677       0.00481746
Si       3.80348154      -1.38489860      18.11793810      -0.00395030       0.00290226      -0.00050824
Si       3.81115272       1.89027490       6.17077180       0.00527806      -0.00155939      -0.00133441
Si       2.33077845      -0.40327239       3.59217059       0.00044788       0.00569510       0.00211767
Si       4.20028684       1.37998045      13.78835476      -0.00103783       0.00032959      -0.00449171
Si       5.75234212      -0.04976683      12.84491461       0.00105627       0.00194269      -0.00109458
Si       3.65541244      -0.11629481       7.48057259      -0.00035063      -0.00395253       0.00040917
Si       2.10805790       1.25457827       1.93477351       0.00068763       0.00005514       0.00210700
Si       4.63482537      -0.96001373       3.54036003       0.00075907      -0.00222324      -0.00479906
