22
Lattice="2.5344603558736267 -2.2060821213103666e-13 -3.8210463168477667e-13 1.1374958433971236e-12 13.068136005511972 -4.4991584286259685e-13 1.1374958420884044e-12 -6.5340680027556015 11.317337760883692" Properties=species:S:1:pos:R:3:forces:R:3 unique_starting_index=470 config_type=initial n_minim_iter=16 energy=-3581.637684569204 stress="2.1263806475731807e-05 -1.8180492992074323e-13 1.1283127379908389e-13 -1.8180492992074323e-13 -1.0054358598864254e-05 -8.557576354231763e-12 1.1283127379908389e-13 -8.557576354231763e-12 -1.0054358454641953e-05" free_energy=-3581.637684569204 pbc="T T T"
Si       2.10864558       5.94803424      -1.30031094       0.00240346      -0.00020765      -0.00157963
Si       2.10864558       2.43394858       6.81634447       0.00240346      -0.00126418       0.00096964
Si       2.10864558      11.22022118       5.80130422       0.00240346       0.00147182       0.00060999
Si       2.16786478       5.15608755       9.41236516      -0.00115505      -0.00263240       0.00230513
Si       2.16786478      -0.96076445       2.14585237      -0.00115505       0.00331250       0.00112716
Si       2.16786478      -4.19532312      11.07645799      -0.00115505      -0.00068010      -0.00343229
Si       2.16813378       8.78158229       1.51602000      -0.00321815       0.00374578       0.00026185
Si       2.16813378       3.45618869       2.95425441      -0.00321815      -0.00164612      -0.00337487
Si       2.16813378       7.36443302       6.84706334      -0.00321815      -0.00209966       0.00311302
Si       2.13319817      -2.01695432       8.15468944       0.00240729       0.00302197      -0.00210793
Si       2.13319817       1.53657737       8.98672671       0.00240729      -0.00333650      -0.00156314
Si       2.13319817       0.48037694       5.49325936       0.00240729       0.00031453       0.00367107
Si      -0.37508579       6.49073563       2.27311903      -0.00128683       0.00376783       0.00567985
Si      -0.37508579       5.25727902       4.55963630      -0.00128683       0.00303498      -0.00610296
Si      -0.37508579       7.85418936       4.48458242      -0.00128683      -0.00680281       0.00042311
Si      -0.37775637      10.18315425       3.59363125       0.00011057       0.00257082       0.00151023
Si      -0.37775637       4.55466683       0.70165186       0.00011057       0.00002249      -0.00298151
Si      -0.37775637       4.86438292       7.02205464       0.00011057      -0.00259331       0.00147128
Si       2.17383641      -4.24245821       8.72711771      -0.00062304      -0.00235994      -0.00142375
Si       2.17383641       3.14506674      10.62785549      -0.00062304      -0.00005303       0.00275564
Si       2.17383641       1.09739147       3.27970232      -0.00062304       0.00241297      -0.00133189
Si       2.16548508      -0.00000000      -0.00000000       0.00408525      -0.00000000       0.00000000
