20
Lattice="6.257509999999999 1.5146531495955469e-16 -5.9164567891575885e-31 -0.2527972787357516 6.976721524173353 3.7137714761329685e-16 -2.1220400534211863 -0.4106563500328202 8.767292331042345" Properties=species:S:1:pos:R:3:forces:R:3 unique_starting_index=330 config_type=initial n_minim_iter=1 energy=-3175.9892446172653 stress="-0.3453729472077916 -0.47357945723473327 -0.4845434248773194 -0.00047211180802111735 -0.0040762988511783395 -0.02195710516132323" pbc="T T T"
Si       4.66481226       3.80645903       3.73680410       6.73295788      -5.08578868      -9.84344644
Si      -0.36383522       1.85456529       4.58032546       3.55706221       4.35771341       1.92357492
Si       4.85467777       0.39026075       3.79085446      -8.19508384      14.50794563      -7.71974908
Si       2.65067653       5.62042075       5.49182490     -17.34922402       2.03728134       7.89981947
Si       3.11600809       5.61531389       7.02294659       8.15588018       0.44237831      18.31422393
Si       3.03897009       4.30579101       2.40989721       0.28341698       0.46558520      -2.19412597
Si       1.64212923       0.43181356       8.08450700       1.40420592      -3.89311565      -2.07160436
Si      -0.45083728       6.48024055       3.22309864      23.48335939       6.24771463     -20.14510522
Si       4.86681134       5.92579335       1.68715231      -3.94926426      -1.75730488      -7.89734607
Si       0.86049276       4.73447531       8.40284826       0.39816718      -0.18009350       1.08515489
Si       0.38967694       5.28715074       5.92990809     -14.96011044      14.99776887       0.41909746
Si       3.34993176       2.79008145       4.80987334      -6.75294986     -23.75562295      -2.01224754
Si       1.22768162       3.70789644       3.69780193       3.28902720      14.85864138      19.11112219
Si       2.16516554       5.60889228       3.96721293      -6.41519085       1.50997899     -18.07072929
Si      -0.58359193       5.37232442       4.36986311      -6.60780756     -11.21844009      11.11174624
Si       1.00442656       2.60364993       2.56165378      -4.10668963     -16.73458479     -17.51190895
Si       3.62114504       4.34159005       5.09147351       5.13576408      17.71752211       9.51024581
Si       3.63113843       6.75722267       4.93823439       0.50017602       3.17378035       9.42929498
Si       3.19271065       2.51868840       0.25781977      -1.39963481       3.59756591       2.14038335
Si       1.62321830       4.33244379       6.28620559      16.79593822     -21.28892559       6.52159968
20
Lattice="6.340781058233995 0.005341987886582329 0.0009919858085816202 -0.25020537477535865 7.104124097155316 8.879367037556179e-05 -2.1492395644948568 -0.4198177135356758 8.931064130404486" Properties=species:S:1:pos:R:3:forces:R:3 unique_starting_index=330 config_type=initial n_minim_iter=2 energy=-3184.6136842774326 stress="-0.2946016130584454 -0.3962966884155884 -0.4064255036789711 0.002743599270512837 -0.002699760503870297 -0.01422089895850622" pbc="T T T"
Si       4.73141228       3.87962090       3.80656083       5.90170379      -4.87861110      -8.93526199
Si      -0.36600674       1.88870710       4.66623761       3.18532731       3.91705836       1.66187703
Si       4.91938563       0.40309045       3.86180611      -7.53547897      12.97970855      -6.63986566
Si       2.68986109       5.72579993       5.59595542     -15.73234377       2.16052924       7.05977583
Si       3.16420784       5.72086498       7.15687333       6.86343746       0.16762187      16.10680755
Si       3.08349740       4.38723895       2.45534609       0.58836900       0.55377490      -2.20140772
Si       1.66577384       0.44086719       8.23589894       0.97445230      -3.43404259      -1.65333673
Si      -0.44841386       6.59909012       3.28142852      20.87243516       5.25489707     -18.22024833
Si       4.93650165       6.03819475       1.71881067      -3.75034081      -1.88535857      -7.28502079
Si       0.87735788       4.82194997       8.56047640       0.90977336       0.00719846       0.63092711
Si       0.39880154       5.38583158       6.04111253     -13.24436776      13.62752474       0.73728879
Si       3.39696860       2.84164676       4.90028727      -5.65033470     -20.23755135      -1.62776266
Si       1.24810530       3.77835111       3.76923152       2.78198892      12.61326660      16.13209592
Si       2.19874518       5.71356514       4.04008141      -5.13493779       1.33598232     -15.43675629
Si      -0.58674931       5.46903473       4.45280156      -6.22518646      -9.63062297       9.61499256
Si       1.02000381       2.65047630       2.60802888      -3.47430581     -14.38610997     -14.86422353
Si       3.67436858       4.42599654       5.18840448       4.24964121      15.05820814       8.46312389
Si       3.68606190       6.88434031       5.03233472       0.07236437       2.56051426       8.45470271
Si       3.23724683       2.56785689       0.26341661      -0.90966640       3.02709883       1.71361658
Si       1.65121442       4.41102843       6.40487962      15.25746960     -18.81108679       6.28867573
20
Lattice="7.013058467882488 0.04080308768234936 0.007717883544216232 -0.23782787661693222 8.134016314292898 -0.007788406498570631 -2.3701251890416244 -0.5021054077068758 10.261124872446288" Properties=species:S:1:pos:R:3:forces:R:3 unique_starting_index=330 config_type=initial n_minim_iter=3 energy=-3221.5282135005173 stress="-0.05899740298675167 -0.0740352616574278 -0.10178783890276283 0.014383817387857803 0.005286223417659757 0.004178834322511214" pbc="T T T"
Si       5.26388868       4.45971904       4.36591190       1.74455169      -2.47781306      -3.60131146
Si      -0.38651930       2.15984002       5.36136475       0.09679784       1.92285602      -0.06226639
Si       5.43995606       0.49742873       4.43561928      -3.30145707       8.25164336      -1.80785202
Si       2.99704150       6.56775804       6.43422835      -7.53791726       2.38427661       2.93518992
Si       3.54508385       6.56115200       8.23761597       2.51520576      -1.05801280       8.74699035
Si       3.43755305       5.03890364       2.81775640       0.75931803       0.08392979      -0.46830720
Si       1.85426237       0.50167722       9.46365841      -1.30356162       2.09295576       1.25405625
Si      -0.43624693       7.55651841       3.74476672       9.48883965       0.17448483      -9.30687073
Si       5.49107784       6.93796028       1.96637963      -1.29202862      -1.86860823      -1.78671877
Si       1.00655048       5.51754391       9.83342637       0.46052093      -0.19133598       0.10316045
Si       0.46415342       6.17702425       6.93733899      -6.38137545       5.37653312      -0.32129703
Si       3.77217710       3.24700997       5.62987690      -1.52518807      -7.71938638      -0.73627094
Si       1.40782134       4.34234682       4.34489974       0.90422149       4.63400103       4.59053977
Si       2.46237261       6.55198757       4.62304671      -1.98935065       0.25842090      -7.61620520
Si      -0.62044220       6.24517984       5.12008839      -1.90493099      -5.24182469       3.77575528
Si       1.14190235       3.02347896       2.98010282      -1.05811807      -4.00826869      -4.14529693
Si       4.09775987       5.09824032       5.96975517       3.41949514       2.46877338       1.70195754
Si       4.11988003       7.90103578       5.78778089       0.26548169       3.46599438       2.57089786
Si       3.59393777       2.96109094       0.30503489       0.41256469      -0.47194578      -0.94568110
Si       1.87169835       5.03461142       7.36339198       6.22693088      -8.07667354       5.11953032
20
Lattice="7.318849330930076 0.02024059965803122 -0.020978637481987042 -0.273107380897471 8.583001039976292 -0.09759098953421194 -2.5126814345447372 -0.6358182458609204 11.061374461157731" Properties=species:S:1:pos:R:3:forces:R:3 unique_starting_index=330 config_type=initial n_minim_iter=4 energy=-3228.6839173508065 stress="-0.013237902566461532 -0.02245863760299354 -0.04188033177872646 0.011328589452642496 0.0043804468393863 0.006356211860869964" pbc="T T T"
Si       5.46534153       4.63568295       4.62228338       0.82985187      -1.48387524      -2.10100607
Si      -0.43108277       2.22407317       5.74897527      -0.61191448       0.95337233      -0.57321263
Si       5.65293210       0.47266531       4.74357781      -2.08893019       5.07437696      -0.37464677
Si       3.06994953       6.85262391       6.84660079      -5.90759599       2.60793542       3.41931087
Si       3.65098562       6.81780351       8.79640256       1.03615996      -0.63939652       4.54251516
Si       3.56212696       5.27431235       2.96244483       0.73838611       0.26978729       0.34280769
Si       1.89399612       0.42208034      10.17665040      -1.11365067       1.31685012       0.92731064
Si      -0.47789469       7.93338887       3.93224281       5.25200851      -0.68729544      -4.67313115
Si       5.69944624       7.27731382       2.01408771      -1.52254898      -0.80888937      -0.62330316
Si       0.99528848       5.70893579      10.52052430       0.39151449      -0.31302705       0.29818436
Si       0.42769140       6.44838803       7.39693828      -2.60481131       2.92856845      -0.86380856
Si       3.90187907       3.33758342       6.00786343      -0.90114561      -4.38066529      -0.29937472
Si       1.44020924       4.53698843       4.63159849       0.94319966       3.03947711       2.47889499
Si       2.52817750       6.85433483       4.88004037      -0.68705611      -0.16577094      -5.45097538
Si      -0.69013253       6.52510327       5.45206832      -0.96541363      -3.04234775       1.26921736
Si       1.16887209       3.14629090       3.16238693      -0.90987089      -2.32592315      -1.63721402
Si       4.24278787       5.30406174       6.35608352       3.33751126      -0.07695551       0.65698331
Si       4.25290524       8.26492053       6.13059337       1.25523594       3.12964379       0.15837136
Si       3.74110164       3.10838992       0.27904696       0.90226486      -1.74070984      -1.76618980
Si       1.91866977       5.20996285       7.87264067       2.62680520      -3.65515538       4.26926653
20
Lattice="7.461209454328256 -0.049410537773316096 -0.07129296891874276 -0.3565151327821628 8.87319285137985 -0.24963580708715394 -2.6268820757158657 -0.8227349071496686 11.783819271717084" Properties=species:S:1:pos:R:3:forces:R:3 unique_starting_index=330 config_type=initial n_minim_iter=5 energy=-3231.284166545291 stress="0.004433754767147287 -0.0011943423403858236 -0.005558700970695897 0.00825467755870962 0.0017721659269012788 0.0035609749767384477" pbc="T T T"
Si       5.50195888       4.65331741       4.78925428       0.35541713      -0.96317666      -1.25057188
Si      -0.49861716       2.20676350       6.07254375      -0.80027174       0.75042358      -0.60117059
Si       5.72194745       0.36900348       4.99390857      -1.28535798       3.28542241      -0.37088071
Si       3.00541467       6.94175037       7.15025188      -4.90654144       1.83892649       3.41087647
Si       3.60577778       6.85581944       9.22340010       0.09652015      -0.38660628       1.98327782
Si       3.56614834       5.36552509       3.03521349       0.71490638       0.93494983       0.69042833
Si       1.85823011       0.24723403      10.79916433      -0.56731663       0.90532256       1.45175586
Si      -0.56974690       8.13301620       4.02926208       3.09332751      -0.57063513      -2.70661614
Si       5.72624148       7.42751228       1.97542181      -1.53440028       0.01322443      -0.10196941
Si       0.89576599       5.70768914      11.07755329       0.09777845      -0.11180688       0.47327116
Si       0.32170084       6.54169938       7.74439016      -0.83039840       2.06363967      -0.94605076
Si       3.90598776       3.29358181       6.30141216      -0.65969798      -2.93688189      -0.42723837
Si       1.39945241       4.60424046       4.84317346       0.89312593       1.95416170       1.69840069
Si       2.48132577       6.97457984       5.03259231       0.07696289      -0.40186426      -3.59185568
Si      -0.80129940       6.64533777       5.69172828      -0.49955659      -1.62512517       0.20102891
Si       1.13985770       3.17809192       3.29366547      -0.38892096      -1.70471511      -0.76958287
Si       4.24552531       5.33019393       6.63803861       2.50172762       0.00432790       0.63676596
Si       4.22404299       8.40402628       6.34524750       1.31841123       1.99145693      -0.64236869
Si       3.78631109       3.16552733       0.21216777       0.86075360      -2.92079097      -1.69369926
Si       1.86512639       5.21717715       8.28017839       1.46353111      -2.12025317       2.55619917
20
Lattice="7.398647474640278 -0.1007273733312109 -0.09681023623398037 -0.4112026639202341 8.901393640364885 -0.39535620028448526 -2.638050213032043 -0.9912851721957967 11.934320544108186" Properties=species:S:1:pos:R:3:forces:R:3 unique_starting_index=330 config_type=initial n_minim_iter=6 energy=-3232.189128340565 stress="0.0066445635079470464 0.00024579871871075484 -8.059718817553878e-05 0.00662359182564191 -0.0005681939728153871 0.0012676317231417919" pbc="T T T"
Si       5.41035716       4.54747748       4.74149206       0.23610134      -0.94362171      -1.24892128
Si      -0.53175717       2.12362403       6.10154829      -0.70020514       1.01027372      -0.53856613
Si       5.64995899       0.26482338       5.02007058      -1.22091376       2.78858447      -0.53855961
Si       2.89309800       6.83220073       7.12007992      -4.54278851       1.63318366       2.95586387
Si       3.49986869       6.70044155       9.20894500       0.11158603      -0.31986330       1.82525273
Si       3.49296064       5.30955367       2.97156179       0.78278915       0.85902545       0.48555686
Si       1.80313640       0.06855676      10.91251804      -0.75528729       1.29522110       1.54467179
Si      -0.62077634       8.09204534       3.93056740       2.70955190      -0.74607151      -2.15298000
Si       5.61694853       7.37478481       1.85623304      -1.38752317      -0.06105143       0.23928751
Si       0.81435898       5.54095616      11.10432264       0.11777204       0.04197748       0.63004573
Si       0.24734934       6.44259734       7.71635953      -0.54293253       1.68725284      -0.87917244
Si       3.82840524       3.16374641       6.30204187      -0.59457681      -2.76431599      -0.44331468
Si       1.34412530       4.53699513       4.82318709       0.71553918       1.89233711       1.80174411
Si       2.39834867       6.89478613       4.94940655       0.23580191      -0.33057958      -2.98980610
Si      -0.85874499       6.57137726       5.64978336      -0.35745975      -1.10974416      -0.10768796
Si       1.09723166       3.11961400       3.27100316      -0.29035754      -1.69741685      -0.95721114
Si       4.16126550       5.20897319       6.61170254       2.28643761       0.41216520       0.68991657
Si       4.11648572       8.30355980       6.25958208       1.19986712       1.52878426      -0.63698939
Si       3.73605825       3.13212994       0.14324613       0.91680218      -3.44117130      -1.84777420
Si       1.79270990       5.07754361       8.29104840       1.07979606      -1.73496944       2.16864376
20
Lattice="7.2551049978191156 -0.12770278341992097 -0.08078021742963261 -0.4354795370959712 8.905985684593153 -0.575355163339933 -2.5651425597387516 -1.2077252180940294 11.954187014948337" Properties=species:S:1:pos:R:3:forces:R:3 unique_starting_index=330 config_type=initial n_minim_iter=7 energy=-3233.295215147846 stress="0.006516714348097296 -0.0017181647276451972 0.00024655489807158965 0.004553129886685497 -0.0016544422404864176 -0.0004977267774136491" pbc="T T T"
Si       5.29780409       4.42876884       4.65415626       0.20083649      -1.04617623      -1.50598872
Si      -0.52344798       2.01517327       6.05597758      -0.50989406       1.29332100      -0.49194734
Si       5.54012911       0.16486733       5.02201251      -1.47747572       2.57362584      -0.67906460
Si       2.79914777       6.69062266       7.01117614      -4.16583607       1.61070404       2.29594266
Si       3.42241238       6.50474667       9.09755707       0.33499473      -0.22001995       1.85076975
Si       3.41457704       5.24147461       2.87530556       0.96242708       0.72961507       0.23037568
Si       1.78009264      -0.13925141      10.92905302      -1.05186111       1.86381076       1.65873660
Si      -0.61705791       8.01195146       3.75337540       2.79781439      -1.21134855      -1.83749364
Si       5.47717013       7.31344398       1.72121122      -1.42078404      -0.21199431       0.53389640
Si       0.79621166       5.32331499      11.00335237       0.18538463       0.18651491       0.87328806
Si       0.22835694       6.30255278       7.58319034      -0.41731086       1.26698276      -0.70436487
Si       3.74976633       3.01052194       6.24717698      -0.53972114      -2.65824191      -0.39143643
Si       1.31236142       4.44791336       4.74763414       0.47965072       1.95983034       2.04023253
Si       2.33640579       6.78768315       4.79664943       0.30522065      -0.16933288      -2.43820900
Si      -0.85851430       6.45707529       5.51836886      -0.26193029      -0.62763138      -0.32055327
Si       1.06868145       3.04168666       3.20622246      -0.46683452      -1.74908525      -1.06221590
Si       4.08363940       5.06587437       6.52178015       2.17327889       0.59335633       0.71005574
Si       4.02252983       8.17377119       6.09729036       1.01777146       1.09204236      -0.45488109
Si       3.65811630       3.09310342       0.07676529       1.09405654      -3.93291825      -2.15045799
Si       1.75802152       4.89767019       8.21193552       0.76021223      -1.34305471       1.84331545
20
Lattice="7.031315474293526 -0.11009810087752542 -0.01751987685083999 -0.4068105696989409 8.99326827651567 -0.7817411075826187 -2.401773622797929 -1.4750178891245276 11.949040544943557" Properties=species:S:1:pos:R:3:forces:R:3 unique_starting_index=330 config_type=initial n_minim_iter=8 energy=-3234.8386292408936 stress="0.00564934689248207 -0.0033847210694210234 -0.0011958706020618853 0.0010993441688563503 -0.0011666578108530676 -0.0010033301983675223" pbc="T T T"
Si       5.18075660       4.37292996       4.57680239       0.21948879      -1.05937495      -1.84056151
Si      -0.46326298       1.91841487       5.99212511      -0.36955830       1.47524994      -0.46501980
Si       5.39416618       0.10203658       5.04764838      -1.89317734       2.48919285      -0.71233375
Si       2.74418481       6.62141967       6.89952644      -3.48790708       1.50522691       1.37369363
Si       3.40044846       6.37208432       8.99058539       0.65789107      -0.07881309       1.67656325
Si       3.34973315       5.24089485       2.78265832       1.11874213       0.73966302       0.02118493
Si       1.79551318      -0.34876928      10.95296303      -1.24935726       2.75956570       1.91185767
Si      -0.52979608       7.98991779       3.54206391       3.12836787      -1.82786065      -1.60651247
Si       5.32582909       7.35008162       1.60480293      -1.35501516      -0.39909284       0.68766886
Si       0.86502256       5.14022195      10.88774562       0.12623251       0.20937869       1.20365435
Si       0.28674800       6.21223707       7.42381521      -0.43073258       0.74259226      -0.50081887
Si       3.68308867       2.88716743       6.20341695      -0.45390464      -2.04149343      -0.27032042
Si       1.31954731       4.40626388       4.67293030       0.34326229       1.81522202       2.02974604
Si       2.31725388       6.75267462       4.62847730       0.12296230      -0.03865937      -1.71791093
Si      -0.77968558       6.38857443       5.35587761      -0.26041744      -0.22829657      -0.53391966
Si       1.06267930       2.98664383       3.13313632      -0.68418646      -1.57317229      -0.85977766
Si       4.03433211       4.98627800       6.44086109       1.91562287       0.38659269       0.83900448
Si       3.96934470       8.13692953       5.93114061       0.67593512       0.48093376      -0.16669986
Si       3.56332292       3.08894863       0.01769848       1.24482328      -4.26985232      -2.34136110
Si       1.78101473       4.75419420       8.13033521       0.63092802      -1.08700232       1.27186284
20
Lattice="6.797405576672105 -0.0669805792356288 0.03424454009192298 -0.3492875730283669 9.179860022790091 -0.8563768950708305 -2.252753730977136 -1.5918884177404182 12.028202676119124" Properties=species:S:1:pos:R:3:forces:R:3 unique_starting_index=330 config_type=initial n_minim_iter=9 energy=-3236.4560131956805 stress="0.007834386985318822 0.0008506480433393531 0.0022079612250421594 -0.0007289559734226691 -0.001041497096469489 -0.0002956181766422859" pbc="T T T"
Si       5.06480871       4.45884783       4.59026200       0.24327818      -0.70516651      -1.75918946
Si      -0.40263308       1.94058710       6.00702591      -0.43588623       1.29907668      -0.52497483
Si       5.22931888       0.14519191       5.10538113      -1.57439897       2.17884662      -0.72406157
Si       2.69957992       6.75201468       6.93703324      -2.81420676       1.34988209       1.18108257
Si       3.38723539       6.46574596       9.05833470       0.74006768      -0.00212854       1.34567657
Si       3.29601786       5.36320508       2.78697935       0.92308895       1.04790201       0.06793809
Si       1.79215427      -0.37626644      11.06889071      -0.87515222       3.25983638       1.66970505
Si      -0.41465470       8.10753849       3.48556200       2.88851159      -1.73404980      -1.25553671
Si       5.18660993       7.51884406       1.61225871      -1.12657300      -0.70302235       0.64797912
Si       0.93616783       5.18626472      10.95192611      -0.27218684      -0.03729021       1.44695721
Si       0.35481713       6.30891301       7.42418619      -0.60588257       0.58865201      -0.37352456
Si       3.61298937       2.90607075       6.25452098      -0.15348327      -1.24601177      -0.23401387
Si       1.33307377       4.49700763       4.70956390       0.34368978       1.34850456       1.53094630
Si       2.30838884       6.88237010       4.60330988      -0.22441830      -0.06843706      -1.27448648
Si      -0.68675904       6.48106382       5.33429274      -0.22873446      -0.20501596      -0.72449634
Si       1.05773406       3.01694884       3.13243223      -0.67735732      -1.16926858      -0.37769500
Si       3.98814520       5.07888377       6.49143873       1.52172204       0.02664279       0.97198131
Si       3.92702047       8.30097214       5.93910471       0.38966638      -0.02903460      -0.12578021
Si       3.47533368       3.12228512      -0.00334194       1.16134724      -3.84951006      -2.08410846
Si       1.80709367       4.79657678       8.18848428       0.77690810      -1.35040768       0.59560128
20
Lattice="6.50263959075685 -0.055073567080448416 0.07643722502380314 -0.32410376236008503 9.131668882615797 -0.8125566098096085 -2.0944589553593205 -1.5359093047906078 11.858501839710884" Properties=species:S:1:pos:R:3:forces:R:3 unique_starting_index=330 config_type=initial n_minim_iter=10 energy=-3237.6433354808705 stress="0.0026914470140514454 -0.012543858057465839 -0.010663619322328318 -0.0022742897782970285 0.0030949446063285755 -0.0011440525939505964" pbc="T T T"
Si       4.87816934       4.46085324       4.55916196       0.30701327      -0.89976401      -1.91188578
Si      -0.35467718       1.97525664       5.92669023      -0.38531615       1.48167953      -0.25472393
Si       5.01540262       0.20636777       5.05968777      -1.64388818       2.33661632      -1.11593003
Si       2.60526124       6.76988947       6.90698423      -2.57885803       1.35315678       0.89366540
Si       3.30468582       6.47636916       9.01139744       1.07728037       0.12641381       1.65281284
Si       3.18393562       5.36874664       2.79241322       1.03425894       1.06837409       0.03960420
Si       1.76404304      -0.28415641      10.95695754      -0.14701895       1.76268916       0.97956049
Si      -0.34055711       8.06273635       3.45778047       3.35138468      -1.84000121      -0.77062444
Si       4.97252826       7.48792703       1.66466742      -1.19191835      -0.78730966      -0.01478685
Si       0.95914115       5.20656639      10.86243801      -0.50006103      -0.15791272       1.31524811
Si       0.38295794       6.32036421       7.35172157      -1.29296269       0.50375474      -0.27134460
Si       3.49254950       2.90946335       6.21052888       0.18418807      -1.43834631      -0.10956013
Si       1.31006169       4.51225087       4.69536257       0.19493877       1.04385606       1.43548334
Si       2.24115057       6.87555074       4.56926530      -0.56856519       0.31449049      -1.20792248
Si      -0.62079550       6.47114357       5.27887709      -0.18088260       0.15043627      -0.79734809
Si       1.02736993       3.00343688       3.10920127      -0.61118692      -1.16050602      -0.51154731
Si       3.87053697       5.08716518       6.46956988       1.42594046      -0.27846678       1.18041758
Si       3.80431852       8.29349646       5.92047971       0.01294960       0.01880660       0.14046833
Si       3.33986289       3.06703625       0.01059556       0.55765127      -1.97881126      -1.17238942
Si       1.78631109       4.79270138       8.12857141       0.95505268      -1.61915587       0.50080276
20
Lattice="6.4727975836788065 -0.03948515803202455 0.03717452061300894 -0.3055181001530564 9.32319268212907 -0.7904594985606779 -2.140372290239371 -1.5267309129659505 12.081322459105504" Properties=species:S:1:pos:R:3:forces:R:3 unique_starting_index=330 config_type=initial n_minim_iter=11 energy=-3238.0836601414853 stress="0.008986195041074861 0.0017941445229381465 0.0029168202219183263 -0.0005222486499642168 -0.0005184871205647391 -0.0006271652598273669" pbc="T T T"
Si       4.84300114       4.58453777       4.62080187       0.18771667      -0.36753804      -1.40608057
Si      -0.37778713       2.04687343       6.04194066      -0.51192596       1.15190199      -0.44106664
Si       4.96591286       0.25457646       5.11441437      -1.07616945       1.76314283      -0.83932271
Si       2.56580180       6.95431313       7.04511946      -2.14972114       1.23836090       1.39590314
Si       3.26181172       6.65871211       9.18689249       0.85508691       0.04313429       1.24233602
Si       3.16759482       5.50743478       2.84333153       0.77501068       1.26566681      -0.08822901
Si       1.70615094      -0.23520503      11.14727426      -0.23494465       2.56535769       0.85390117
Si      -0.33384024       8.24095097       3.55163722       2.57585384      -1.41416560      -0.65007181
Si       4.95055936       7.66426018       1.69304856      -0.82733981      -0.84431831       0.35371047
Si       0.91260122       5.36228289      11.07992958      -0.67902835      -0.31320575       1.48486921
Si       0.35422048       6.48849422       7.50548663      -1.22594776       0.77801964      -0.06573379
Si       3.45375955       2.99937415       6.31344343       0.33535481      -0.89959420      -0.17068705
Si       1.29029822       4.63434785       4.79555706       0.22015449       0.94816158       1.14643336
Si       2.21913578       7.04901597       4.65893725      -0.59700719       0.01301776      -1.22310194
Si      -0.63260087       6.63051223       5.39971186      -0.20054626      -0.04500503      -0.82101034
Si       1.01166076       3.07825118       3.16933455      -0.58737337      -0.98968821      -0.28277741
Si       3.83533951       5.22963851       6.58820179       1.24808724      -0.30372692       0.96407031
Si       3.77286844       8.50439488       6.03676939       0.14457289      -0.19444439      -0.26324812
Si       3.33071035       3.13363388      -0.00207425       0.63906109      -2.45192904      -1.24210459
Si       1.75147411       4.92502989       8.28710853       1.10910530      -1.94314802       0.05221030
20
Lattice="6.397696704588028 -0.03345767192948666 0.04162303354481853 -0.2957638384909846 9.300677022606978 -0.781830538919993 -2.109066984878834 -1.5163945720273948 12.03313264567815" Properties=species:S:1:pos:R:3:forces:R:3 unique_starting_index=330 config_type=initial n_minim_iter=12 energy=-3238.338267196008 stress="0.006994684619868244 -0.0019447005063165375 -0.0009217950402371376 -0.0009014892280085992 0.00043400003255853733 -0.0009002730922357767" pbc="T T T"
Si       4.79333346       4.58122844       4.60506860       0.22438010      -0.42645018      -1.43514591
Si      -0.36916206       2.05011646       6.01795194      -0.47056325       1.21696004      -0.37510451
Si       4.90957058       0.26839666       5.09491042      -1.18254855       1.79338225      -0.87685933
Si       2.54136761       6.94888149       7.02868155      -2.06331708       1.26702981       1.27714739
Si       3.23617655       6.65230081       9.16287845       0.90587523       0.08909422       1.32972180
Si       3.13802750       5.50369824       2.83732078       0.90883873       1.20856054      -0.09864485
Si       1.69268434      -0.21721764      11.10766966      -0.09661791       2.16939089       0.71859509
Si      -0.31689499       8.21979133       3.54177159       2.70683943      -1.48671693      -0.57237033
Si       4.89815476       7.64929818       1.69663060      -0.90090857      -0.86251653       0.17840826
Si       0.91157183       5.35686710      11.04724305      -0.66551154      -0.31874270       1.44728394
Si       0.35712613       6.48175004       7.48073618      -1.49096794       0.74370456      -0.01342030