6
Lattice="4.432441765229835 -1.0928178518462262 0.5907121233152846 -1.316532325163846 4.4096946951463245 0.09573566044847313 1.1856219072962124 -2.1592645465126488 5.0520035595867085" Properties=species:S:1:pos:R:3:forces:R:3 unique_starting_index=70 config_type=initial n_minim_iter=10 energy=-977.0132389863942 stress="-7.546937302946171e-05 -2.2191550323859818e-05 4.739393243813866e-05 -2.2191550323859818e-05 -6.758540730960271e-05 -7.725019830895305e-05 4.739393243813866e-05 -7.725019830895305e-05 5.282638770651411e-07" free_energy=-977.0132389863942 pbc="T T T"
Si       2.27239901      -1.06305926       2.53626950       0.00066373      -0.00169818      -0.00872377
Si       4.78848691      -0.32252487       2.96083086      -0.00007308       0.00229172       0.00347815
Si       2.87236222       1.51179676       2.79461633      -0.00101782       0.00161343       0.00929159
Si       2.50700009       1.35037480       5.23840401      -0.00066373       0.00169818       0.00872377
Si      -0.00908781       0.60984040       4.81384264       0.00007308      -0.00229172      -0.00347815
Si       1.90703688      -1.22448122       4.98005717       0.00101782      -0.00161343      -0.00929159
