1
Lattice="2.746444421392712 1.1040413320029956e-17 6.465665128181209e-51 1.373222210696356 2.378490639008142 -5.803685359691783e-51 -4.392815385336607e-50 1.0624705914413476e-49 2.562030917807508" Properties=species:S:1:pos:R:3 cutoff=-1.0 nneightol=1.2 n_minim_iter=1 energy=-162.78780870370545 free_energy=-162.78780870370545 pbc="T T T"
Si       0.00000000       0.00000000       0.00000000
