1
Lattice="2.84627741648028 1.1836897998372893e-17 6.640697381983579e-51 1.42313870824014 2.4649485488898635 -1.6131422831826675e-50 -9.889175906413926e-50 2.344243483165146e-49 2.6023164259118214" Properties=species:S:1:pos:R:3 cutoff=-1.0 nneightol=1.2 n_minim_iter=1 energy=-162.67598303464013 free_energy=-162.67598303464013 pbc="T T T"
Si       0.00000000       0.00000000       0.00000000
1
Lattice="2.8954882581853245 7.64912970763037e-17 2.0221881069805326e-51 1.4477441290926623 2.507566387948047 -4.52179403785805e-50 -8.151482280485031e-50 2.3445843440787876e-49 2.5146117506736805" Properties=species:S:1:pos:R:3 cutoff=-1.0 nneightol=1.2 n_minim_iter=2 stress="0.06333227106062624 3.5915082391503736e-17 -7.255939079612957e-20 3.5915082391503736e-17 0.0633322710606253 4.633912432671282e-18 -7.255939079612957e-20 4.633912432671282e-18 0.07016852871190925" pbc="T T T"
Si       0.00000000       0.00000000       0.00000000
