1
Lattice="2.8263727273858192 1.1754119779659477e-17 6.59425741938772e-51 1.4131863636929096 2.4477105824796292 -1.601861198835104e-50 -8.614208880839219e-50 1.920006077952495e-49 2.584117813547733" Properties=species:S:1:pos:R:3 cutoff=-1.0 nneightol=1.2 n_minim_iter=1 energy=-162.71037741245704 free_energy=-162.71037741245704 pbc="T T T"
Si       0.00000000       0.00000000       0.00000000
