1
Lattice="2.512350220437525 1.0322706320084386e-17 -1.1008996143750543e-50 1.2561751102187626 2.1757591141023322 -7.567822591681086e-50 -1.0171728386732315e-49 2.5282321787530605e-49 2.3658754465240666" Properties=species:S:1:pos:R:3 cutoff=-1.0 nneightol=1.2 n_minim_iter=2 stress="-0.11064338532483196 5.552585753861038e-17 -6.091719190214222e-18 5.552585753861038e-17 -0.1106433853248305 -1.1206157226918142e-17 -6.091719190214222e-18 -1.1206157226918142e-17 -0.11055415986240212" pbc="T T T"
Si       0.00000000       0.00000000       0.00000000
