1
Lattice="2.6154582278662604 1.0513862808217258e-17 6.157298114758192e-51 1.3077291139331302 2.2650532678692104 -5.526890152124567e-51 -1.885765408783497e-50 6.410141622541033e-50 2.439839958832808" Properties=species:S:1:pos:R:3 cutoff=-1.0 nneightol=1.2 n_minim_iter=1 stress="-0.0161881986877328 1.6757808510599505e-16 1.810712874615421e-18 1.6757808510599505e-16 -0.016188198687732903 -8.371548889926669e-19 1.810712874615421e-18 -8.371548889926669e-19 -0.012440568994770992" pbc="T T T"
Si       0.00000000       0.00000000       0.00000000
