1
Lattice="2.7464444213927117 1.1040413320029956e-17 6.465665128181207e-51 1.3732222106963559 2.378490639008142 -5.803685359691782e-51 -3.186511421305183e-50 8.677938672167215e-50 2.5620309178075074" Properties=species:S:1:pos:R:3 cutoff=-1.0 nneightol=1.2 n_minim_iter=1 stress="0.04636223430146609 3.444350629496293e-17 4.771449896516487e-18 3.444350629496293e-17 0.04636223430146602 -6.806615360301733e-18 4.771449896516487e-18 -6.806615360301733e-18 0.04689897404544779" pbc="T T T"
Si       0.00000000       0.00000000       0.00000000
