8
Lattice="7.23781779262068 -1.796457060502883 0.5204254655070175 -3.097322354434264 6.783793820726638 -0.5204254655070426 -2.1795704220410883 -2.402908486684168 3.7815119151765177" Properties=species:S:1:pos:R:3:forces:R:3 unique_starting_index=38 config_type=initial n_minim_iter=1 energy=-1303.4209078991817 stress="0.006810025012204032 0.01885279859386158 0.007235231697206653 0.01885279859386158 0.013867096418170998 -0.006006701628497147 0.007235231697206653 -0.006006701628497147 -0.011460694082984913" free_energy=-1303.4209078991817 pbc="T T T"
Si       3.65874581       2.81881524       1.68323177      -0.60191289      -0.73055063       0.27153339
Si      -0.08195922       1.71196335       2.09828004      -0.60734906      -0.72603751      -0.27153339
Si      -1.69782225      -0.23438660       2.09828004       0.60191289       0.73055063      -0.27153339
Si       2.04288278       0.87246529       1.68323177       0.60734906       0.72603751       0.27153339
Si       2.49990235      -0.42659142       3.55173609      -0.35198356      -0.73932194       0.40042076
Si       1.08171150       4.96318457       0.22977572      -0.66194966      -0.48198756      -0.40042076
Si      -0.53897879       3.01102006       0.22977572       0.35198356       0.73932194      -0.40042076
Si       0.87921206      -2.37875594       3.55173609       0.66194966       0.48198756       0.40042076
8
Lattice="7.209573040565326 -1.9739101491110944 0.4241241893078884 -3.2665505850838668 6.723385455192823 -0.4241241893079124 -2.128523194027609 -2.244386052295452 3.856659557417088" Properties=species:S:1:pos:R:3:forces:R:3 unique_starting_index=38 config_type=initial n_minim_iter=2 energy=-1303.5746805335204 stress="0.002842195548583013 -0.006806551652373614 -0.006378555344294749 -0.006806551652373614 0.0002943339806136207 0.00529548747118297 -0.006378555344294749 0.00529548747118297 0.01503956398738583" free_energy=-1303.5746805335204 pbc="T T T"
Si       3.50679926       2.65390896       1.70239292      -0.22702505      -0.23221526       0.04937685
Si      -0.16505040       1.69079515       2.15426655      -0.18648652      -0.26587041      -0.04937685
Si      -1.69230144      -0.14881931       2.15426655       0.22702505       0.23221526      -0.04937685
Si       1.97954821       0.81429450       1.70239292       0.18648652       0.26587041       0.04937685
Si       2.43979733      -0.46517953       3.58949870      -0.18197684      -0.26475927       0.61969564
Si       0.90841364       4.81766742       0.26716077      -0.22676250      -0.22757813      -0.61969564
Si      -0.62529951       2.97026918       0.26716077       0.18197684       0.26475927      -0.61969564
Si       0.90608417      -2.31257777       3.58949870       0.22676250       0.22757813       0.61969564
8
Lattice="7.173642232557681 -1.9583270464866844 0.4562330282585848 -3.244623332618774 6.690934697870116 -0.45623302825860845 -2.104257745886356 -2.2502845533712317 3.8106656853064296" Properties=species:S:1:pos:R:3:forces:R:3 unique_starting_index=38 config_type=initial n_minim_iter=3 energy=-1303.6130622857138 stress="-0.008491735010854082 -0.0049276858064274 -0.0012026700303316882 -0.0049276858064274 -0.010336290374350457 0.0009984587095508818 -0.0012026700303316882 0.0009984587095508818 -0.0007517741750764291" free_energy=-1303.6130622857138 pbc="T T T"
Si       3.49742078       2.63741713       1.68886107      -0.21502850      -0.16247293       0.17779096
Si      -0.15526996       1.67264427       2.12180453      -0.12014152      -0.24124826      -0.17779095
Si      -1.67266107      -0.15509364       2.12180453       0.21502850       0.16247293      -0.17779095
Si       1.98002967       0.80967922       1.68886107       0.12014152       0.24124826       0.17779096
Si       2.44078379      -0.47567853       3.56424651      -0.04731894      -0.25415007       0.46419426
Si       0.90817425       4.79393941       0.24641908      -0.24110712      -0.09326679      -0.46419426
Si      -0.61602408       2.95800202       0.24641908       0.04731894       0.25415007      -0.46419426
Si       0.91658546      -2.31161592       3.56424651       0.24110712       0.09326679       0.46419426
8
Lattice="7.257440809081363 -1.9239293540040232 0.5084728963501008 -3.226228987679534 6.7796310943571365 -0.5084728963501248 -2.131169925655228 -2.3319094289341837 3.772996789179148" Properties=species:S:1:pos:R:3:forces:R:3 unique_starting_index=38 config_type=initial n_minim_iter=4 energy=-1303.6564458387243 stress="0.0043703164919203724 0.0013468050365349192 0.00876824278546364 0.0013468050365349192 0.004874459121933027 -0.007279410051880771 0.00876824278546364 -0.007279410051880771 -0.0036483312400121767" free_energy=-1303.6564458387243 pbc="T T T"
Si       3.57710693       2.70376383       1.68527188      -0.35031537      -0.20433357       0.51283184
Si      -0.13162753       1.68155115       2.08772481      -0.13639924      -0.38192711      -0.51283184
Si      -1.67706649      -0.17997113       2.08772481       0.35031537       0.20433357      -0.51283184
Si       2.03166797       0.84224154       1.68527188       0.13639924       0.38192711       0.51283184
Si       2.49058492      -0.48696129       3.56169434      -0.04116600      -0.37860438       0.12011616
Si       0.96320299       4.88228409       0.21130234      -0.36456922      -0.11011447      -0.12011616
Si      -0.59054448       3.01075398       0.21130234       0.04116600       0.37860437      -0.12011616
Si       0.93683745      -2.35849140       3.56169434       0.36456922       0.11011448       0.12011616
8
Lattice="7.239026059591464 -1.8622605251298527 0.4271673974637127 -3.1622249834232425 6.772875734067111 -0.42716739746373683 -2.186850740963161 -2.332063994227426 3.7484474602701474" Properties=species:S:1:pos:R:3:forces:R:3 unique_starting_index=38 config_type=initial n_minim_iter=5 energy=-1303.7109952842632 stress="-4.810271002729238e-05 0.00669575420198755 -0.00021801842636332656 0.00669575420198755 0.0024582846243071804 0.00018099926459171038 -0.00021801842636332656 0.00018099926459171038 -0.011508186045218341" free_energy=-1303.7109952842632 pbc="T T T"
Si       3.57937580       2.75249878       1.67042233      -0.39872735      -0.23773485       0.30511689
Si      -0.13982258       1.69259240       2.07802504      -0.16032418      -0.43565757      -0.30511689
Si      -1.68942692      -0.17394719       2.07802504       0.39872735       0.23773485      -0.30511689
Si       2.02977147       0.88595919       1.67042233       0.16032418       0.43565757       0.30511689
Si       2.45289604      -0.44963266       3.52274337      -0.31315134      -0.34291916       0.19466948
Si       0.99673650       4.90686466       0.22570401      -0.27945647      -0.37089269      -0.19466948
Si      -0.56294716       3.02818425       0.22570401       0.31315134       0.34291916      -0.19466948
Si       0.89321238      -2.32831307       3.52274337       0.27945647       0.37089269       0.19466948
8
Lattice="7.228777080890028 -1.8326622162230266 0.3807732006996061 -3.131246367478674 6.76824682396587 -0.3807732006996302 -2.218083502345712 -2.327224092152472 3.7686767693861007" Properties=species:S:1:pos:R:3:forces:R:3 unique_starting_index=38 config_type=initial n_minim_iter=6 energy=-1303.8047637020543 stress="-0.004939822484714573 0.0005054184741671968 -0.003066043216951433 0.0005054184741671968 -0.004750631759104369 0.0025454342905082347 -0.003066043216951433 0.0025454342905082347 -0.0017650824243383553" free_energy=-1303.8047637020543 pbc="T T T"
Si       3.55749773       2.76334229       1.69228779      -0.04491546      -0.05855894       0.35010752
Si      -0.15637205       1.67792250       2.07638890      -0.04929647      -0.05492183      -0.35010752
Si      -1.67805197      -0.15498140       2.07638890       0.04491546       0.05855894      -0.35010752
Si       2.03581780       0.93043839       1.69228779       0.04929647       0.05492183       0.35010752
Si       2.41898484      -0.44750687       3.55272587      -0.44451544       0.05204121      -0.01939992
Si       0.99456146       4.90373262       0.21595082       0.13292959      -0.42735464       0.01939993
Si      -0.53953909       3.05586776       0.21595082       0.44451544      -0.05204121       0.01939992
Si       0.88488430      -2.29537174       3.55272587      -0.13292959       0.42735464      -0.01939993
8
Lattice="7.333786503566187 -1.7589191198862772 0.332498530348429 -3.0780802735634145 6.88503033977999 -0.3324985303484537 -2.316428196765891 -2.40650025719249 3.7317073405948578" Properties=species:S:1:pos:R:3:forces:R:3 unique_starting_index=38 config_type=initial n_minim_iter=7 energy=-1303.8843736587887 stress="0.004773111030709591 -0.006775209499375462 -0.000279199972031565 -0.006775209499375462 0.0022369815978377436 0.00023179229471127067 -0.000279199972031565 0.00023179229471127067 -0.00046202430625460946" free_energy=-1303.8843736587887 pbc="T T T"
Si       3.61391815       2.86241006       1.72187508       0.22425359       0.40256544       0.55357683
Si      -0.16771939       1.67232908       2.00983219       0.35443906       0.29448524      -0.55357683
Si      -1.67464159      -0.14279874       2.00983219      -0.22425359      -0.40256544      -0.55357682
Si       2.10699595       1.04728223       1.72187508      -0.35443906      -0.29448524       0.55357682
Si       2.40128263      -0.45007487       3.55474564      -0.27411807       0.41454205      -0.23674737
Si       1.05512475       4.99711056       0.17696164       0.45789569      -0.19317702       0.23674737
Si      -0.46200607       3.16968618       0.17696164       0.27411807      -0.41454205       0.23674737
Si       0.88415181      -2.27749924       3.55474564      -0.45789569       0.19317702      -0.23674737
8
Lattice="7.2301756589758055 -1.6459292530119036 0.37561027515418594 -2.947957812245815 6.803974419615757 -0.3756102751542112 -2.3124431473056624 -2.436780619957987 3.79724980114975" Properties=species:S:1:pos:R:3:forces:R:3 unique_starting_index=38 config_type=initial n_minim_iter=8 energy=-1303.9487932222805 stress="-0.002725650540432881 0.004370457133460159 0.0007756337866709951 0.004370457133460159 -0.0010896797226377301 -0.000643932473420102 0.0007756337866709951 -0.000643932473420102 0.0054083321977152245" free_energy=-1303.9487932222805 pbc="T T T"
Si       3.62675092       2.90306638       1.77066194       0.26626196      -0.20735966       0.39074968
Si      -0.12613272       1.66214190       2.02658779      -0.25280417       0.22356992      -0.39074968
Si      -1.65697767      -0.18180151       2.02658779      -0.26626196       0.20735966      -0.39074968
Si       2.09590597       1.05912297       1.77066194       0.25280417      -0.22356992       0.39074968
Si       2.37288825      -0.41305890       3.62202116      -0.34346655       0.26294872      -0.10962787
Si       1.12722928       4.97766413       0.17522856       0.32164763      -0.28923020       0.10962787
Si      -0.40311501       3.13432378       0.17522856       0.34346655      -0.26294872       0.10962787
Si       0.84254397      -2.25639926       3.62202116      -0.32164763       0.28923020      -0.10962787
8
Lattice="7.264949710520778 -1.6519943125211307 0.3676602560653123 -2.9603166671581227 6.837039178997302 -0.36766025606533737 -2.3265252822258358 -2.447894024729657 3.779336321605934" Properties=species:S:1:pos:R:3:forces:R:3 unique_starting_index=38 config_type=initial n_minim_iter=9 energy=-1304.0096970415286 stress="0.00044734110983325043 -0.000253681137662716 -0.0016698762637400557 -0.000253681137662716 0.000352381979956156 0.0013863341220273155 -0.0016698762637400557 0.0013863341220273155 -0.0031572350404866956" free_energy=-1304.0096970415286 pbc="T T T"
Si       3.64271177       2.91486561       1.80448564       0.05326413      -0.13915019       0.08607859
Si      -0.13155331       1.66888762       1.97485061      -0.14657410       0.02675585      -0.08607859
Si      -1.66460547      -0.17771444       1.97485061      -0.05326413       0.13915019      -0.08607859
Si       2.10965961       1.06826355       1.80448564       0.14657410      -0.02675585       0.08607859
Si       2.35095412      -0.40746708       3.60790725       0.17305096       0.09298145       0.29581255
Si       1.14509389       4.97301938       0.17142899       0.05955863       0.18720297      -0.29581255
Si      -0.37284782       3.14461826       0.17142899      -0.17305095      -0.09298145      -0.29581255
Si       0.83301241      -2.23586821       3.60790725      -0.05955863      -0.18720297       0.29581255
8
Lattice="7.261574717840677 -1.6002135274914506 0.37143233271635623 -2.908798773786541 6.843247796913952 -0.371432332716382 -2.349118961104944 -2.4781155745811128 3.79169719561074" Properties=species:S:1:pos:R:3:forces:R:3 unique_starting_index=38 config_type=initial n_minim_iter=10 energy=-1304.0211428072269 stress="0.0020083967114279165 0.0014684397882197059 -0.00039954912602605214 0.0014684397882197059 0.002558070227183068 0.0003317063498074445 -0.00039954912602605214 0.0003317063498074445 0.0006564485185114443" free_energy=-1304.0211428072269 pbc="T T T"
Si       3.66052519       2.94621443       1.83503996       0.13847594      -0.04810361       0.16003380
Si      -0.12661031       1.66194262       1.95665716      -0.07275773       0.12726294      -0.16003380
Si      -1.65686966      -0.18129541       1.95665716      -0.13847594       0.04810361      -0.16003380
Si       2.13026584       1.10297639       1.83503996       0.07275773      -0.12726294       0.16003380
Si       2.33814192      -0.39879447       3.63874276       0.27274664       0.21295106       0.20621933
Si       1.18152475       4.98978919       0.15295436       0.15913981       0.30726764      -0.20621933
Si      -0.33448640       3.16371349       0.15295436      -0.27274664      -0.21295106      -0.20621933
Si       0.82213078      -2.22487017       3.63874276      -0.15913981      -0.30726764       0.20621933
8
Lattice="7.208864384545923 -1.6138014544771582 0.45182332726689206 -2.9124577710832313 6.78893736757855 -0.45182332726691754 -2.2882716558015774 -2.471282975559422 3.836677112177466" Properties=species:S:1:pos:R:3:forces:R:3 unique_starting_index=38 config_type=initial n_minim_iter=11 energy=-1304.0636808242252 stress="-0.005538796853412124 -0.002360322472592379 0.0029583288780868945 -0.002360322472592379 -0.006422324241131533 -0.0024560096405317755 0.0029583288780868945 -0.0024560096405317755 0.00024284360290636396" free_energy=-1304.0636808242252 pbc="T T T"
Si       3.64271951       2.87851750       1.90999711       0.22175899       0.19474003       0.12079136
Si      -0.12902883       1.63881938       1.92667991       0.15061969       0.25380000      -0.12079136
Si      -1.63458600      -0.17466424       1.92667991      -0.22175899      -0.19474003      -0.12079136
Si       2.13716234       1.06503388       1.90999711      -0.15061969      -0.25380000       0.12079136
Si       2.35360705      -0.40804156       3.73538353       0.23615870      -0.01273838       0.14110476
Si       1.17406838       4.94222344       0.10129349      -0.05596660       0.22978454      -0.14110476
Si      -0.34547354       3.11189482       0.10129349      -0.23615870       0.01273838      -0.14110476
Si       0.83406513      -2.23837017       3.73538353       0.05596660      -0.22978454       0.14110476
8
Lattice="7.248121268164982 -1.5955986678064469 0.44377521037760614 -2.901787675329237 6.830872954025623 -0.44377521037763223 -2.3172768498017264 -2.49799673234134 3.840918582847199" Properties=species:S:1:pos:R:3:forces:R:3 unique_starting_index=38 config_type=initial n_minim_iter=12 energy=-1304.091199197577 stress="0.0023573722818589975 0.0024884889003295024 0.0011009781005335017 0.0024884889003295024 0.003288875570498038 -0.0009140338859594208 0.0011009781005335017 -0.0009140338859594208 0.0008815632572114154" free_energy=-1304.091199197577 pbc="T T T"
Si       3.68139473       2.91098915       1.94747063      -0.00323526       0.30506186       0.02136377
Si      -0.13323159       1.65609449       1.89344786       0.30045032       0.05294158      -0.02136376
Si      -1.65233944      -0.17371128       1.89344786       0.00323526      -0.30506186      -0.02136376
Si       2.16228687       1.08118339       1.94747063      -0.30045032      -0.05294158       0.02136376
Si       2.36665908      -0.39160874       3.76842876       0.00821118      -0.17337018       0.16593971
Si       1.20874135       4.99150043       0.07248973      -0.17192174      -0.02382353      -0.16593971
Si      -0.33760380       3.12888661       0.07248973      -0.00821118       0.17337018      -0.16593970
Si       0.82031393      -2.25422256       3.76842876       0.17192174       0.02382353       0.16593971
8
Lattice="7.286281133548139 -1.6596689402595233 0.3869898457524482 -2.9717846051996766 6.8565946364547505 -0.38698984575247375 -2.325668890033195 -2.458639758823341 3.816883490056557" Properties=species:S:1:pos:R:3:forces:R:3 unique_starting_index=38 config_type=initial n_minim_iter=13 energy=-1304.1173840265508 stress="-0.0007099978792198207 -0.0006710238013396879 -0.002821415220997411 -0.0006710238013396879 -0.000961178769297729 0.002342343702101828 -0.002821415220997411 0.002342343702101828 -0.0026311016775810697" free_energy=-1304.1173840265508 pbc="T T T"
Si       3.65928096       2.89770229       1.94059631       0.00451192       0.23829185      -0.00526698
Si      -0.15061550       1.67127078       1.87628710       0.23339470       0.04827299       0.00526698
Si      -1.67045478      -0.15941602       1.87628710      -0.00451192      -0.23829185       0.00526698
Si       2.13944167       1.06701549       1.94059631      -0.23339470      -0.04827299      -0.00526698
Si       2.36584908      -0.40326515       3.75826034      -0.18786254      -0.00128782       0.11548798
Si       1.15720379       4.98956823       0.05862307       0.03329485      -0.18489306      -0.11548798
Si      -0.37702290       3.14155142       0.05862307       0.18786254       0.00128782      -0.11548798
Si       0.83162238      -2.25128196       3.75826034      -0.03329485       0.18489306       0.11548798
8
Lattice="7.306176062953634 -1.6706726309556243 0.3998892600914522 -2.986260517687688 6.874125677000719 -0.3998892600914774 -2.324687246328941 -2.4649678345351713 3.8426022095004466" Properties=species:S:1:pos:R:3:forces:R:3 unique_starting_index=38 config_type=initial n_minim_iter=14 energy=-1304.1508560737261 stress="0.001018177494642793 -0.0021492370123164747 -0.0016085769629973095 -0.0021492370123164747 0.0002136646286359498 0.0013354433266971534 -0.0016085769629973095 0.0013354433266971534 0.00047514645164060867" free_energy=-1304.1508560737261 pbc="T T T"
Si       3.66784574       2.90321291       2.03607479      -0.01940480       0.15760617      -0.11174562
Si      -0.14579294       1.67437508       1.80652734       0.15848604       0.00992088       0.11174562
Si      -1.67261891      -0.16472736       1.80652734       0.01940480      -0.15760617       0.11174562
Si       2.14101977       1.06411047       2.03607479      -0.15848604      -0.00992088      -0.11174562
Si       2.36010816      -0.41224141       3.85800425      -0.01391089       0.14365869       0.15669193
Si       1.15583754       4.98247323      -0.01540212       0.14376592       0.01275514      -0.15669193
Si      -0.36488133       3.15072695      -0.01540212       0.01391089      -0.14365869      -0.15669193
Si       0.83938929      -2.24398769       3.85800425      -0.14376592      -0.01275514       0.15669193
8
Lattice="7.303483215593614 -1.6756406311604763 0.41825458394131954 -2.990648327511457 6.870564837508374 -0.41825458394134474 -2.314047677116187 -2.4665972162922096 3.856669956075244" Properties=species:S:1:pos:R:3:forces:R:3 unique_starting_index=38 config_type=initial n_minim_iter=15 energy=-1304.160037234053 stress="0.0007557956746168915 -0.0004862198539858481 0.00021662914895836547 -0.0004862198539858481 0.0005737914874948336 -0.00017984588983250164 0.00021662914895836547 -0.00017984588983250164 0.0012492494273402255" free_energy=-1304.160037234053 pbc="T T T"
Si       3.67219046       2.90160115       2.07657100      -0.05600525       0.03949830      -0.10555298
Si      -0.13753691       1.67671975       1.78009887       0.04912733      -0.04778294       0.10555298
Si      -1.67340471      -0.17327382       1.78009887       0.05600525      -0.03949830       0.10555298
Si       2.13632266       1.05160758       2.07657100      -0.04912733       0.04778294      -0.10555298
Si       2.36628937      -0.41459185       3.91264713      -0.06342179       0.13961751       0.09353414
Si       1.15594898       4.97795831      -0.05597726       0.14890213      -0.03665417      -0.09353414
Si      -0.36750362       3.14291918      -0.05597726       0.06342179      -0.13961751      -0.09353414
Si       0.84283676      -2.24963099       3.91264713      -0.14890213       0.03665417       0.09353414
8
Lattice="7.2979398843125365 -1.6756079231586654 0.41650953354008746 -2.989596382240804 6.865122135729596 -0.4165095335401123 -2.3123616510375866 -2.4634275829719083 3.8545476892254573" Properties=species:S:1:pos:R:3:forces:R:3 unique_starting_index=38 config_type=initial n_minim_iter=16 energy=-1304.1635534973714 stress="-0.0006344860188580667 0.0007160460906867832 0.0006579272151410362 0.0007160460906867832 -0.0003664521570094233 -0.0005462122896515173 0.0006579272151410362 -0.0005462122896515173 -0.0004661653313059186" free_energy=-1304.1635534973714 pbc="T T T"
Si       3.66933978       2.90214458       2.06960761      -0.05636539      -0.02731073      -0.06814373
Si      -0.13479229       1.67718733       1.78493999      -0.01647517      -0.06042766       0.06814373
Si      -1.67335939      -0.17605761       1.78493999       0.05636539       0.02731073       0.06814373
Si       2.13077268       1.04889964       2.06960761       0.01647517       0.06042766      -0.06814373
Si       2.36472894      -0.41072566       3.91046813      -0.08832629       0.11150032       0.06308901
Si       1.15723090       4.97489541      -0.05592053       0.12584647      -0.06630627      -0.06308901
Si      -0.36874855       3.13681262      -0.05592053       0.08832629      -0.11150032      -0.06308901
Si       0.83874949      -2.24880845       3.91046813      -0.12584647       0.06630627       0.06308901
8
Lattice="7.299252650900605 -1.6830532803041993 0.4025892716476368 -2.997156170810872 6.865042788926558 -0.4025892716476618 -2.315471885386358 -2.454489965042454 3.8563865015855856" Properties=species:S:1:pos:R:3:forces:R:3 unique_starting_index=38 config_type=initial n_minim_iter=17 energy=-1304.168871106454 stress="-0.00040208338738243697 0.0012925935936841369 0.0007322568909695831 0.0012925935936841369 8.176654389299515e-05 -0.0006079209121811994 0.0007322568909695831 -0.0006079209121811994 -0.00124041732925365" free_energy=-1304.168871106454 pbc="T T T"
Si       3.66255803       2.90364635       2.07183124      -0.04723393      -0.07822939      -0.02432416
Si      -0.13517877       1.67973523       1.78455518      -0.06820466      -0.06081946       0.02432416
Si      -1.67593491      -0.17614647       1.78455518       0.04723393       0.07822939       0.02432416
Si       2.12180190       1.04776465       2.07183124       0.06820466       0.06081946      -0.02432416
Si       2.35613754      -0.40019750       3.92242948      -0.03595047       0.06029876       0.01333077
Si       1.15980265       4.96980041      -0.06604306       0.06588333      -0.02424383      -0.01333077
Si      -0.36951441       3.12769738      -0.06604306       0.03595047      -0.06029876      -0.01333077
Si       0.82682048      -2.24230053       3.92242948      -0.06588333       0.02424383       0.01333077
8
Lattice="7.296656011402298 -1.6917047300196235 0.3905492091147758 -3.0051822610607988 6.860898878434919 -0.3905492091148013 -2.315789608307799 -2.4434190067026216 3.862356006844212" Properties=species:S:1:pos:R:3:forces:R:3 unique_starting_index=38 config_type=initial n_minim_iter=18 energy=-1304.171692615625 stress="-0.0005217437907621076 0.0006891002259164157 0.0005465895959732789 0.0006891002259164157 -0.0002637964358122356 -0.00045377960867922054 0.0005465895959732789 -0.00045377960867922054 -0.001149195039800417" free_energy=-1304.171692615625 pbc="T T T"
Si       3.65201072       2.89700126       2.06824401      -0.01316789      -0.04629801       0.00599872
Si      -0.14008780       1.67921641       1.79411191      -0.04308533      -0.02146049      -0.00599872
Si      -1.67632804      -0.17122578       1.79411191       0.01316789       0.04629801      -0.00599872
Si       2.11577047       1.04655907       2.06824401       0.04308533       0.02146050       0.00599872
Si       2.34841770      -0.39078985       3.92766546      -0.00471912       0.01130137      -0.01160678
Si       1.15952949       4.96221863      -0.06530954       0.01197664      -0.00255949       0.01160678
Si      -0.37273502       3.11656533      -0.06530954       0.00471913      -0.01130136       0.01160678
Si       0.81615319      -2.23644315       3.92766546      -0.01197664       0.00255949      -0.01160678
8
Lattice="7.296641902754442 -1.6945839138276497 0.38441078181633437 -3.008009708095924 6.860355332928172 -0.3844107818163598 -2.317322617920732 -2.4392554026901627 3.866798545229408" Properties=species:S:1:pos:R:3:forces:R:3 unique_starting_index=38 config_type=initial n_minim_iter=19 energy=-1304.1722423193185 stress="-0.0001003821746208363 0.00014859125359722422 7.267960678855823e-05 0.00014859125359722422 -4.4760782831349195e-05 -6.033874272508873e-05 7.267960678855823e-05 -6.033874272508873e-05 -0.00019737166224775057" free_energy=-1304.1722423193185 pbc="T T T"
Si       3.64818775       2.89428987       2.06643457       0.00463092      -0.01078842       0.00241292
Si      -0.14358262       1.67912348       1.80036389      -0.01145623       0.00256715      -0.00241292
Si      -1.67687964      -0.16777351       1.80036389      -0.00463092       0.01078842      -0.00241292
Si       2.11489073       1.04739287       2.06643457       0.01145623      -0.00256715       0.00241292
Si       2.34532046      -0.38711102       3.92816985       0.00000502      -0.00200004      -0.00359119
Si       1.15934075       4.96059192      -0.06137138      -0.00196683      -0.00036301       0.00359119
Si      -0.37401235       3.11362738      -0.06137138      -0.00000502       0.00200004       0.00359119
Si       0.81196737      -2.23407556       3.92816985       0.00196683       0.00036301      -0.00359119
8
Lattice="7.296866273405721 -1.6952277343472402 0.3843414831051264 -3.0086838170560757 6.860457431706051 -0.38434148310515187 -2.3171735121665193 -2.438921642915925 3.8674063961058334" Properties=species:S:1:pos:R:3:forces:R:3 unique_starting_index=38 config_type=initial n_minim_iter=20 energy=-1304.172264059792 stress="-2.2318585180934975e-05 -5.269658012598869e-06 1.1092953767666111e-05 -5.269658012598869e-06 -2.4291153090836542e-05 -9.20939279147905e-06 1.1092953767666111e-05 -9.20939279147905e-06 -4.6145172672421486e-05" free_energy=-1304.172264059792 pbc="T T T"
Si       3.64802273       2.89345764       2.06610471       0.00473992      -0.00141202      -0.00111337
Si      -0.14422118       1.67914194       1.80130161      -0.00225991       0.00439925       0.00111337
Si      -1.67701525      -0.16714924       1.80130161      -0.00473992       0.00141202       0.00111337
Si       2.11522866       1.04716645       2.06610471       0.00225991      -0.00439925      -0.00111337
Si       2.34549651      -0.38727249       3.92775018      -0.00188437      -0.00205597       0.00090421
Si       1.15884902       4.96052730      -0.06034386      -0.00167421      -0.00223044      -0.00090421
Si      -0.37448903       3.11358088      -0.06034386       0.00188437       0.00205597      -0.00090421
Si       0.81215846      -2.23421890       3.92775018       0.00167421       0.00223044       0.00090421
