16
Lattice="5.595282173591612 4.297801263358146e-31 -7.137669553902603e-32 -5.583963041769242e-31 7.269728624257748 -4.443714315731931e-15 9.148735606021514e-32 4.383838672624831e-15 7.171774605240253" Properties=species:S:1:pos:R:3:forces:R:3 unique_starting_index=290 config_type=initial n_minim_iter=1 energy=-2603.78249747251 stress="-0.00048148532191142517 7.00219036701777e-13 2.1812858779289592e-12 7.00219036701777e-13 0.0008733604560143849 5.168596113546581e-12 2.1812858779289592e-12 5.168596113546581e-12 0.00035047775111268336" free_energy=-2603.78249747251 pbc="T T T"
Si       1.59377603       2.62030230       1.20021151       0.04850190       0.05275031       0.00648998
Si       4.00150615       2.62030230       5.97156310      -0.04850190       0.05275031      -0.00648998
Si       3.97663463       2.63206036       1.22917151       0.02689862      -0.05181813      -0.01894681
Si       1.61864755       2.63206036       5.94260310      -0.02689862      -0.05181813       0.01894681
Si       4.39141711       4.64942632       2.38567580       0.04850190      -0.05275031      -0.00648998
Si       1.20386506       4.64942632       4.78609881      -0.04850190      -0.05275031       0.00648998
Si       1.17899354       4.63766827       2.35671580       0.02689862       0.05181813       0.01894681
Si       4.41628864       4.63766827       4.81505881      -0.02689862       0.05181813      -0.01894681
Si       3.99165767       0.76109626       3.58882021      -0.06965867      -0.16260664      -0.00750102
Si       1.60362450       0.76109626       3.58295440       0.06965867      -0.16260664       0.00750102
Si       5.59860531       0.89924836       5.46643849       0.04119599      -0.04631702      -0.06819175
Si      -0.00332314       0.89924836       1.70533612      -0.04119599      -0.04631702       0.06819175
Si       1.19401658       6.50863236      -0.00293291      -0.06965867       0.16260664       0.00750102
Si       4.40126559       6.50863236       7.17470751       0.06965867       0.16260664      -0.00750102
Si       2.80096423       6.37048026       5.29122342       0.04119599       0.04631702       0.06819175
Si       2.79431795       6.37048026       1.88055119      -0.04119599       0.04631702      -0.06819175
16
Lattice="5.606520706490173 4.317895718800232e-31 -7.158971337779361e-32 -5.548784053275115e-31 7.243317286300594 -4.4229616802056624e-15 9.12645503965374e-32 4.3819866162304036e-15 7.161307207066975" Properties=species:S:1:pos:R:3:forces:R:3 unique_starting_index=290 config_type=initial n_minim_iter=2 energy=-2603.7850652839193 stress="0.000398581240311728 1.5109145546474744e-12 -1.8746482630778286e-12 1.5109145546474744e-12 -0.0008593604934392955 -1.1857409780550881e-12 -1.8746482630778286e-12 -1.1857409780550881e-12 -0.0011584824370520317" free_energy=-2603.7850652839193 pbc="T T T"
Si       1.59767152       2.61153343       1.19855234       0.07781226       0.00675166       0.00402902
Si       4.00884919       2.61153343       5.96275486      -0.07781226       0.00675166      -0.00402902
Si       3.98500702       2.62176036       1.22710722      -0.01100834      -0.08230013      -0.02495734
Si       1.62151368       2.62176036       5.93419998       0.01100834      -0.08230013       0.02495734
Si       4.40093187       4.63178385       2.38210126       0.07781226      -0.00675166      -0.00402902
Si       1.20558884       4.63178385       4.77920595      -0.07781226      -0.00675166       0.00402902
Si       1.18174667       4.62155693       2.35354638      -0.01100834       0.08230013       0.02495734
Si       4.42477404       4.62155693       4.80776083       0.01100834       0.08230013      -0.02495734
Si       3.99867808       0.75601665       3.58347523      -0.05979795      -0.15970623      -0.00423967
Si       1.60784262       0.75601665       3.57783198       0.05979795      -0.15970623       0.00423967
Si       5.61044022       0.89532207       5.45748733       0.03234341      -0.05018733      -0.06190749
Si      -0.00391951       0.89532207       1.70381988      -0.03234341      -0.05018733       0.06190749
Si       1.19541773       6.48730064      -0.00282162      -0.05979795       0.15970623       0.00423967
Si       4.41110298       6.48730064       7.16412883       0.05979795       0.15970623      -0.00423967
Si       2.80717986       6.34799522       5.28447348       0.03234341       0.05018733       0.06190749
Si       2.79934084       6.34799522       1.87683372      -0.03234341       0.05018733      -0.06190749
16
Lattice="5.619597149202307 4.341288877110147e-31 -7.161412377493291e-32 -5.512142314530343e-31 7.218204088151707 -4.415367894321597e-15 9.173036922180163e-32 4.3878820155390155e-15 7.183514766652783" Properties=species:S:1:pos:R:3:forces:R:3 unique_starting_index=290 config_type=initial n_minim_iter=3 energy=-2603.791877947714 stress="0.002530005582135601 1.8581017500290427e-12 5.052648288191429e-12 1.8581017500290427e-12 -0.0011693010278575604 -3.729275916437566e-12 5.052648288191429e-12 -3.729275916437566e-12 0.001510125126458021" free_energy=-2603.791877947714 pbc="T T T"
Si       1.60445460       2.60429470       1.20255520       0.06901248      -0.04829286      -0.03102179
Si       4.01514255       2.60429470       5.98095957      -0.06901248      -0.04829285       0.03102179
Si       3.99496243       2.60946641       1.22982692      -0.03589180      -0.08386686      -0.06886567
Si       1.62463472       2.60946641       5.95368785       0.03589180      -0.08386686       0.06886567
Si       4.41425317       4.61390939       2.38920219       0.06901248       0.04829286       0.03102179
Si       1.20534398       4.61390939       4.79431258      -0.06901248       0.04829285      -0.03102179
Si       1.18516385       4.60873768       2.36193047      -0.03589180       0.08386686       0.06886567
Si       4.43443330       4.60873768       4.82158430       0.03589180       0.08386686      -0.06886567
Si       4.00460655       0.74519109       3.59426502      -0.01690720      -0.14794684       0.00659955
Si       1.61499060       0.74519109       3.58924975       0.01690720      -0.14794684      -0.00659955
Si       5.62547762       0.88979281       5.47103381       0.00128164      -0.03814147      -0.07728556
Si      -0.00588047       0.88979281       1.71248096      -0.00128164      -0.03814147       0.07728556
Si       1.19480798       6.47301299      -0.00250764      -0.01690720       0.14794684      -0.00659955
Si       4.42478917       6.47301299       7.18602240       0.01690720       0.14794684       0.00659955
Si       2.81567905       6.32841128       5.30423834       0.00128164       0.03814147       0.07728556
Si       2.80391810       6.32841128       1.87927642      -0.00128164       0.03814147      -0.07728556
16
Lattice="5.610285797111492 4.3624153886249495e-31 -7.150145144442807e-32 -5.455626803470796e-31 7.192404299250968 -4.396704582950715e-15 9.17102624692559e-32 4.3901430136700754e-15 7.182552518142714" Properties=species:S:1:pos:R:3:forces:R:3 unique_starting_index=290 config_type=initial n_minim_iter=4 energy=-2603.798482647224 stress="-0.003542642314204484 1.5774383573524406e-12 -5.617365470085408e-13 1.5774383573524406e-12 -0.0037512913983948036 -1.731057643643396e-12 -5.617365470085408e-13 -1.731057643643396e-12 -0.000756330532516414" free_energy=-2603.798482647224 pbc="T T T"
Si       1.60651174       2.59727411       1.20256496       0.00112681      -0.08607513      -0.02236788
Si       4.00377406       2.59727411       5.97998756      -0.00112681      -0.08607513       0.02236788
Si       3.98909016       2.59513009       1.22763755      -0.01417267      -0.04560671      -0.07443637
Si       1.62119563       2.59513009       5.95491497       0.01417267      -0.04560671       0.07443637
Si       4.41165463       4.59513019       2.38871130       0.00112681       0.08607513       0.02236788
Si       1.19863116       4.59513019       4.79384122      -0.00112681       0.08607513      -0.02236788
Si       1.18394727       4.59727421       2.36363871      -0.01417267       0.04560671       0.07443637
Si       4.42633853       4.59727421       4.81891381       0.01417267       0.04560671      -0.07443637
Si       3.99307482       0.72999072       3.59337407       0.07711528      -0.10403160       0.02094810
Si       1.61721098       0.72999072       3.58917845      -0.07711528      -0.10403160      -0.02094810
Si       5.61891312       0.88296030       5.46497701      -0.04383746      -0.01393599      -0.07696255
Si      -0.00862732       0.88296030       1.71757551       0.04383746      -0.01393599       0.07696255
Si       1.18793192       6.46241358      -0.00209781       0.07711528       0.10403160      -0.02094810
Si       4.42235388       6.46241358       7.18465033      -0.07711528       0.10403160       0.02094810
Si       2.81377022       6.30944400       5.30885177      -0.04383746       0.01393599       0.07696255
Si       2.79651558       6.30944400       1.87370075       0.04383746       0.01393599      -0.07696255
16
Lattice="5.628789072671717 4.382153914760823e-31 -7.18368051596322e-32 -5.457734848357776e-31 7.204546871119119 -4.407248361309017e-15 9.142984070831884e-32 4.379712984505187e-15 7.170531004737393" Properties=species:S:1:pos:R:3:forces:R:3 unique_starting_index=290 config_type=initial n_minim_iter=5 energy=-2603.803783797898 stress="0.000516974338828411 9.083104962557797e-12 -2.7620719917444217e-12 9.083104962557797e-12 -0.0006314808132551974 -8.708372911131197e-13 -2.7620719917444217e-12 -8.708372911131197e-13 -0.0020120452646188933" free_energy=-2603.803783797898 pbc="T T T"
Si       1.61578390       2.60316855       1.20050992      -0.04447096      -0.10822361       0.04701069
Si       4.01300517       2.60316855       5.97002108       0.04447096      -0.10822360      -0.04701069
Si       4.00285027       2.59503984       1.22337361      -0.00565799      -0.00992125      -0.01439459
Si       1.62593880       2.59503984       5.94715740       0.00565799      -0.00992125       0.01439459
Si       4.43017844       4.60137832       2.38475558      -0.04447096       0.10822360      -0.04701069
Si       1.19861063       4.60137832       4.78577543       0.04447096       0.10822361       0.04701069
Si       1.18845573       4.60950703       2.36189190      -0.00565798       0.00992125       0.01439459
Si       4.44033334       4.60950703       4.80863911       0.00565799       0.00992125      -0.01439459
Si       4.00251399       0.71993132       3.58713606       0.08839419      -0.08197807       0.03181350
Si       1.62627508       0.71993132       3.58339495      -0.08839419      -0.08197807      -0.03181350
Si       5.63953560       0.88127603       5.45081499      -0.07660351       0.05818177      -0.06356363
Si      -0.01074653       0.88127603       1.71971601       0.07660351       0.05818177       0.06356363
Si       1.18811945       6.48461555      -0.00187055       0.08839419       0.08197807      -0.03181350
Si       4.44066962       6.48461555       7.17240156      -0.08839419       0.08197807       0.03181350
Si       2.82514107       6.32327084       5.30498151      -0.07660351      -0.05818177       0.06356363
Si       2.80364800       6.32327084       1.86554949       0.07660351      -0.05818177      -0.06356363
16
Lattice="5.624214747613587 4.387111460462862e-31 -7.151462924712608e-32 -5.450339320699771e-31 7.209155919516314 -4.425516489564269e-15 9.23025813796966e-32 4.390118264412279e-15 7.212421668008155" Properties=species:S:1:pos:R:3:forces:R:3 unique_starting_index=290 config_type=initial n_minim_iter=6 energy=-2603.8088025566362 stress="8.843775821008544e-05 4.290345653429687e-12 -5.59015458133003e-13 4.290345653429687e-12 0.0009760252396725491 -1.0197575695610677e-12 -5.59015458133003e-13 -1.0197575695610677e-12 0.0026172284477211914" free_energy=-2603.8088025566362 pbc="T T T"
Si       1.61609031       2.60330173       1.20874071      -0.07958932      -0.06747644       0.01316640
Si       4.00812444       2.60330173       6.00368095       0.07958932      -0.06747644      -0.01316640
Si       4.00035411       2.59294979       1.22799877       0.02300209       0.04652112      -0.04167418
Si       1.62386064       2.59294979       5.98442290      -0.02300209       0.04652112       0.04167418
Si       4.42819768       4.60585418       2.39747012      -0.07958932       0.06747644      -0.01316640
Si       1.19601706       4.60585418       4.81495155       0.07958932       0.06747644       0.01316640
Si       1.18824674       4.61620613       2.37821207       0.02300209      -0.04652112       0.04167418
Si       4.43596801       4.61620613       4.83420960      -0.02300209      -0.04652112      -0.04167418
Si       3.99882415       0.70821180       3.60886993       0.09420203      -0.06896028       0.02727784
Si       1.62539060       0.70821180       3.60355174      -0.09420203      -0.06896028      -0.02727784
Si       5.63439205       0.88091248       5.47619702      -0.07553945       0.05765641      -0.06478298
Si      -0.01017730       0.88091248       1.73622465       0.07553945       0.05765641       0.06478298
Si       1.18671677       6.50094412      -0.00265909       0.09420203       0.06896028      -0.02727784
Si       4.43749798       6.50094412       7.21508076      -0.09420203       0.06896028       0.02727784
Si       2.82228467       6.32824344       5.34243548      -0.07553945      -0.05765641       0.06478298
Si       2.80193008       6.32824344       1.86998619       0.07553945      -0.05765641      -0.06478298
16
Lattice="5.634804620316745 4.416183958127384e-31 -7.17060946408703e-32 -5.407106564950443e-31 7.18867786099204 -4.431127968103301e-15 9.212733941143897e-32 4.367340303290267e-15 7.204359241416719" Properties=species:S:1:pos:R:3:forces:R:3 unique_starting_index=290 config_type=initial n_minim_iter=7 energy=-2603.820480546402 stress="-0.0004215633883163271 -4.794465861730538e-12 1.5589062195509336e-11 -4.794465861730538e-12 0.0007035074714613945 5.7724921757679885e-12 1.5589062195509336e-11 5.7724921757679885e-12 -0.0006165421832044632" free_energy=-2603.820480546402 pbc="T T T"
Si       1.61716963       2.58687096       1.21208441       0.00130924       0.03732319       0.03524513
Si       4.01763499       2.58687096       5.99227483      -0.00130924       0.03732319      -0.03524513
Si       4.01032290       2.58054725       1.21959183      -0.00586535       0.08636419       0.01719162
Si       1.62448172       2.58054725       5.98476742       0.00586535       0.08636419      -0.01719162
Si       4.43457194       4.60180690       2.39009521       0.00130923      -0.03732319      -0.03524514
Si       1.20023268       4.60180690       4.81426403      -0.00130924      -0.03732319       0.03524514
Si       1.19292059       4.60813061       2.38258780      -0.00586535      -0.08636419      -0.01719162
Si       4.44188403       4.60813061       4.82177145       0.00586535      -0.08636419       0.01719162
Si       4.01258382       0.67694272       3.60850628      -0.02211898      -0.03808037      -0.01009683
Si       1.62222080       0.67694272       3.59585296       0.02211898      -0.03808037       0.01009683
Si       5.63806288       0.88093186       5.45287109       0.00007081       0.03865008       0.02590235
Si      -0.00325825       0.88093186       1.75148815      -0.00007081       0.03865008      -0.02590235
Si       1.19518151       6.51173514      -0.00632666      -0.02211898       0.03808037       0.01009683
Si       4.43962311       6.51173514       7.21068590       0.02211898       0.03808037      -0.01009683
Si       2.82066057       6.30774600       5.35366777       0.00007081      -0.03865008      -0.02590235
Si       2.81414406       6.30774600       1.85069147      -0.00007081      -0.03865008       0.02590235
16
Lattice="5.64349117469107 4.4555100727652875e-31 -7.174093149297066e-32 -5.345313278182717e-31 7.164008116172443 -4.4198644961080174e-15 9.236683753500667e-32 4.370566719795755e-15 7.215499965513181" Properties=species:S:1:pos:R:3:forces:R:3 unique_starting_index=290 config_type=initial n_minim_iter=8 energy=-2603.821731821305 stress="0.0003355046462280175 -1.6327442284748739e-12 4.548497577891603e-12 -1.6327442284748739e-12 -0.0007103415601980256 -3.5937959218731648e-12 4.548497577891603e-12 -3.5937959218731648e-12 0.0004037300532994405" free_energy=-2603.821731821305 pbc="T T T"
Si       1.62064924       2.57807729       1.21529398       0.02684885       0.00584364      -0.00924150
Si       4.02284193       2.57807729       6.00020598      -0.02684885       0.00584364       0.00924150
Si       4.01652107       2.57229373       1.22029572      -0.02936915       0.05011329      -0.02321472
Si       1.62697011       2.57229373       5.99520424       0.02936915       0.05011329       0.02321472
Si       4.44239483       4.58593082       2.39245600       0.02684885      -0.00584364       0.00924150
Si       1.20109634       4.58593082       4.82304397      -0.02684885      -0.00584364      -0.00924150
Si       1.19477548       4.59171439       2.38745426      -0.02936915      -0.05011329       0.02321472
Si       4.44871569       4.59171439       4.82804571       0.02936915      -0.05011329      -0.02321472
Si       4.01802020       0.66719574       3.61419325      -0.00484534      -0.02972094      -0.01105615
Si       1.62547097       0.66719574       3.60130672       0.00484534      -0.02972094       0.01105615
Si       5.64638396       0.87844430       5.45868015       0.00432418       0.02972343       0.01853526
Si      -0.00289278       0.87844430       1.75681981      -0.00432418       0.02972343      -0.01853526
Si       1.19627461       6.49681238      -0.00644327      -0.00484534       0.02972094       0.01105615
Si       4.44721656       6.49681238       7.22194323       0.00484534       0.02972094      -0.01105615
Si       2.82463837       6.28556382       5.36456979       0.00432418      -0.02972343      -0.01853526
Si       2.81885280       6.28556382       1.85093017      -0.00432418      -0.02972343       0.01853526
16
Lattice="5.641735904002723 4.47216880606756e-31 -7.172839110560499e-32 -5.335265092368002e-31 7.180955931305086 -4.4304857082655985e-15 9.232613341185503e-32 4.3688536093178334e-15 7.213298918784708" Properties=species:S:1:pos:R:3:forces:R:3 unique_starting_index=290 config_type=initial n_minim_iter=9 energy=-2603.824319217574 stress="-2.1322691390703858e-05 -9.39780342613928e-12 -2.8686238074892425e-12 -9.39780342613928e-12 -8.314050654513191e-05 -6.208754330699992e-12 -2.8686238074892425e-12 -6.208754330699992e-12 2.2512422876328034e-05" free_energy=-2603.824319217574 pbc="T T T"
Si       1.62196567       2.58457644       1.21712183      -0.00486508       0.00564666      -0.01196020
Si       4.01977023       2.58457644       5.99617709       0.00486508       0.00564666       0.01196020
Si       4.01355846       2.58454341       1.21739867       0.02423765       0.00225645      -0.01147667
Si       1.62817745       2.58454341       5.99590025      -0.02423765       0.00225645       0.01147667
Si       4.44283362       4.59637949       2.38952763      -0.00486508      -0.00564666       0.01196020
Si       1.19890228       4.59637949       4.82377129       0.00486508      -0.00564666      -0.01196020
Si       1.19269051       4.59641252       2.38925079       0.02423765      -0.00225645       0.01147667
Si       4.44904540       4.59641252       4.82404813      -0.02423765      -0.00225645      -0.01147667
Si       4.01636384       0.65734589       3.61259773       0.00155115      -0.00907888      -0.01253377
Si       1.62537207       0.65734589       3.60070118      -0.00155115      -0.00907888       0.01253377
Si       5.64357738       0.88477604       5.45531633       0.02741141       0.05757309       0.02106310
Si      -0.00184148       0.88477604       1.75798259      -0.02741141       0.05757309      -0.02106310
Si       1.19549589       6.52361004      -0.00594827       0.00155115       0.00907888       0.01253377
Si       4.44624002       6.52361004       7.21924719      -0.00155115       0.00907888      -0.01253377
Si       2.82270943       6.29617989       5.36463205       0.02741141      -0.05757309      -0.02106310
Si       2.81902647       6.29617989       1.84866687      -0.02741141      -0.05757309       0.02106310
16
Lattice="5.638399172529976 4.478620254932114e-31 -7.170475941604468e-32 -5.338989823466737e-31 7.200421495499471 -4.449624666425933e-15 9.225511750835704e-32 4.359345214157577e-15 7.209634148284255" Properties=species:S:1:pos:R:3:forces:R:3 unique_starting_index=290 config_type=initial n_minim_iter=10 energy=-2603.8253026344523 stress="-9.659439702058015e-06 6.430434106944034e-12 6.397451228150102e-12 6.430434106944034e-12 0.00021110631447903517 4.097054029670659e-12 6.397451228150102e-12 4.097054029670659e-12 -5.873084076806314e-05" free_energy=-2603.8253026344523 pbc="T T T"
Si       1.62155824       2.59245658       1.21771482      -0.01773168       0.00698245      -0.01569250
Si       4.01684094       2.59245658       5.99191932       0.01773168       0.00698245       0.01569250
Si       4.01020746       2.59879428       1.21519765       0.05555646      -0.04283610      -0.00529986
Si       1.62819171       2.59879428       5.99443650      -0.05555646      -0.04283610       0.00529986
Si       4.44075782       4.60796492       2.38710225      -0.01773168      -0.00698245       0.01569250
Si       1.19764135       4.60796492       4.82253190       0.01773168      -0.00698245      -0.01569250
Si       1.19100787       4.60162722       2.38961942       0.05555646       0.04283610       0.00529986
Si       4.44739130       4.60162722       4.82001473      -0.05555646       0.04283610      -0.00529986
Si       4.01416178       0.65359854       3.60964126       0.00489771      -0.00028212      -0.00752781
Si       1.62423739       0.65359854       3.59999289      -0.00489771      -0.00028212       0.00752781
Si       5.64027279       0.89367843       5.45440805       0.04148956       0.05967155       0.01002532
Si      -0.00187362       0.89367843       1.75522610      -0.04148956       0.05967155      -0.01002532
Si       1.19496219       6.54682295      -0.00482418       0.00489771       0.00028212       0.00752781
Si       4.44343698       6.54682295       7.21445833      -0.00489771       0.00028212      -0.00752781
Si       2.82107320       6.30674306       5.36004317       0.04148956      -0.05967155      -0.01002532
Si       2.81732597       6.30674306       1.84959097      -0.04148956      -0.05967155       0.01002532
16
Lattice="5.635193871352068 4.483701807598007e-31 -7.167056898494205e-32 -5.33832076559855e-31 7.211839610551244 -4.448207828649067e-15 9.222590636165571e-32 4.366562824007502e-15 7.2080166782387245" Properties=species:S:1:pos:R:3:forces:R:3 unique_starting_index=290 config_type=initial n_minim_iter=11 energy=-2603.8272587662577 stress="-6.0962027994252265e-05 3.5656781719009028e-12 3.1346258671961826e-12 3.5656781719009028e-12 -0.00018597468043752047 3.5036218520218728e-12 3.1346258671961826e-12 3.5036218520218728e-12 -0.00011298875692424928" free_energy=-2603.8272587662577 pbc="T T T"
Si       1.62012848       2.59790510       1.21644678       0.00346753       0.02183553       0.00367008
Si       4.01506539       2.59790510       5.99156990      -0.00346753       0.02183553      -0.00367008
Si       4.01150948       2.60437729       1.21315490       0.00532645      -0.00458637       0.00273932
Si       1.62368439       2.60437729       5.99486178      -0.00532645      -0.00458637      -0.00273933
Si       4.43772542       4.61393451       2.38756156       0.00346753      -0.02183553      -0.00367008
Si       1.19746845       4.61393451       4.82045512      -0.00346753      -0.02183553       0.00367008
Si       1.19391255       4.60746232       2.39085344       0.00532645       0.00458637      -0.00273932
Si       4.44128132       4.60746232       4.81716324      -0.00532645       0.00458637       0.00273933
Si       4.01205244       0.65122357       3.60718050       0.01303714       0.00032231       0.01463265
Si       1.62314144       0.65122357       3.60083618      -0.01303714       0.00032231      -0.01463265
Si       5.64097321       0.90419207       5.45577739       0.00664984       0.00715408      -0.01554546
Si      -0.00577933       0.90419207       1.75223929      -0.00664984       0.00715408       0.01554546
Si       1.19445550       6.56061604      -0.00317216       0.01303714      -0.00032231      -0.01463265
Si       4.44073837       6.56061604       7.21118884      -0.01303714      -0.00032231       0.01463265
Si       2.82337627       6.30764754       5.35624763       0.00664984      -0.00715408       0.01554546
Si       2.81181760       6.30764754       1.85176905      -0.00664984      -0.00715408      -0.01554546
16
Lattice="5.63511996018621 4.48799639474102e-31 -7.165865571878859e-32 -5.3351889557990055e-31 7.215017939352393 -4.458438077700908e-15 9.226002404829458e-32 4.3593395286601005e-15 7.209588537862425" Properties=species:S:1:pos:R:3:forces:R:3 unique_starting_index=290 config_type=initial n_minim_iter=12 energy=-2603.8274043242104 stress="-2.2024290790934688e-05 -3.458827204206488e-12 -3.5524212068131073e-12 -3.458827204206488e-12 -4.97242942221676e-05 2.2215158482286925e-12 -3.5524212068131073e-12 2.2215158482286925e-12 -1.5938768288544704e-05" free_energy=-2603.8274043242104 pbc="T T T"
Si       1.62042754       2.59940755       1.21702090       0.00205005       0.02303150       0.00556069
Si       4.01469242       2.59940755       5.99256763      -0.00205005       0.02303150      -0.00556069
Si       4.01207550       2.60569413       1.21260834       0.00171909       0.00165435       0.00390290
Si       1.62304446       2.60569413       5.99698020      -0.00171909       0.00165435      -0.00390290
Si       4.43798752       4.61561039       2.38777336       0.00205005      -0.02303150      -0.00556069
Si       1.19713244       4.61561039       4.82181517      -0.00205005      -0.02303150       0.00556069
Si       1.19451552       4.60932381       2.39218593       0.00171909      -0.00165435      -0.00390290
Si       4.44060444       4.60932381       4.81740261      -0.00171909      -0.00165435       0.00390290
Si       4.01213263       0.64813503       3.60803783       0.01067676       0.00412246       0.01678662
Si       1.62298733       0.64813503       3.60155071      -0.01067676       0.00412246      -0.01678662
Si       5.64136979       0.90625345       5.45594469       0.00291811       0.00382529      -0.01472256
Si      -0.00624983       0.90625345       1.75364385      -0.00291811       0.00382529       0.01472256
Si       1.19457265       6.56688291      -0.00324356       0.01067676      -0.00412246      -0.01678662
Si       4.44054731       6.56688291       7.21283210      -0.01067676      -0.00412246       0.01678662
Si       2.82380981       6.30876449       5.35843812       0.00291811      -0.00382529       0.01472256
Si       2.81131015       6.30876449       1.85115042      -0.00291811      -0.00382529      -0.01472256
16
Lattice="5.634354829533256 4.492858916317077e-31 -7.163629255058086e-32 -5.333481761478579e-31 7.2217549313934954 -4.464482128236158e-15 9.230352515579634e-32 4.358717971807541e-15 7.2117316575534" Properties=species:S:1:pos:R:3:forces:R:3 unique_starting_index=290 config_type=initial n_minim_iter=13 energy=-2603.82757743333 stress="0.00011731189845802288 -5.855510249622793e-12 -7.972198249986205e-12 -5.855510249622793e-12 0.00016344981635291894 -3.5050908826019793e-12 -7.972198249986205e-12 -3.5050908826019793e-12 0.0001522369339719193" free_energy=-2603.82757743333 pbc="T T T"
Si       1.62071138       2.60334243       1.21805515      -0.00269081       0.01461550       0.00549247
Si       4.01364345       2.60334243       5.99367650       0.00269081       0.01461550      -0.00549247
Si       4.01258399       2.60844319       1.21194495      -0.00401903       0.00839398       0.00145526
Si       1.62177084       2.60844319       5.99978671       0.00401903       0.00839398      -0.00145526
Si       4.43788879       4.61841251       2.38781067      -0.00269081      -0.01461550      -0.00549247
Si       1.19646604       4.61841251       4.82392098       0.00269081      -0.01461550       0.00549247
Si       1.19540658       4.61331174       2.39392088      -0.00401903      -0.00839398      -0.00145526
Si       4.43894825       4.61331174       4.81781078       0.00401903      -0.00839398       0.00145526
Si       4.01226521       0.64402929       3.60994155      -0.00328529       0.00741467       0.01856102
Si       1.62208962       0.64402929       3.60179010       0.00328529       0.00741467      -0.01856102
Si       5.64147074       0.90984550       5.45548793      -0.00316069       0.00096132      -0.00666236
Si      -0.00711592       0.90984550       1.75624372       0.00316069       0.00096133       0.00666236
Si       1.19508779       6.57772564      -0.00407572      -0.00328529      -0.00741467      -0.01856102
Si       4.43926704       6.57772564       7.21580738       0.00328529      -0.00741467       0.01856102
Si       2.82429333       6.31190943       5.36210955      -0.00316069      -0.00096133       0.00666236
Si       2.81006150       6.31190943       1.84962210       0.00316069      -0.00096133      -0.00666236
16