24
Lattice="3.7907881104138914 0.7420766808174359 7.10098468404031e-14 0.034853095557553226 9.987476164590147 -4.933386302884552e-14 -2.503737083218798e-13 6.361099989790234e-14 12.703635181843524" Properties=species:S:1:pos:R:3:forces:R:3 unique_starting_index=172 config_type=initial n_minim_iter=1 energy=-3915.3711201296005 stress="-0.009744855895161393 0.0003687897390635953 -8.76187539193017e-13 0.0003687897390635953 -0.007893754549963605 -7.346340056202559e-13 -8.76187539193017e-13 -7.346340056202559e-13 -0.006202379727878711" free_energy=-3915.3711201296005 pbc="T T T"
Si       1.95589233      10.43361092       7.52792442      -0.25145866       0.05408430       0.21101144
Si       1.86974888       0.29594192       1.17610683       0.25145866      -0.05408430       0.21101144
Si       1.86974888       0.29594192       5.17571076       0.25145866      -0.05408430      -0.21101144
Si       1.95589233      10.43361092      11.52752836      -0.25145866       0.05408430      -0.21101144
Si       2.55718965       6.22803486      10.69411018       0.57706891      -0.89366416       0.45309896
Si       1.26845156       4.50151798       4.34229259      -0.57706891       0.89366416       0.45309896
Si       1.26845156       4.50151798       2.00952500      -0.57706891       0.89366416      -0.45309896
Si       2.55718965       6.22803486       8.36134259       0.57706891      -0.89366416      -0.45309896
Si       1.65682082       2.65325841       8.37842089      -0.49201028      -0.52719394      -0.72573608
Si       2.16882039       8.07629443       2.02660330       0.49201028       0.52719394      -0.72573608
Si       2.16882039       8.07629443       4.32521429       0.49201028       0.52719394       0.72573608
Si       1.65682082       2.65325841      10.67703188      -0.49201028      -0.52719394       0.72573608
Si       3.31600618       4.05523808       7.58827247      -0.07537181       0.55353938       0.16239846
Si       0.50963503       6.67431476       1.23645488       0.07537181      -0.55353938       0.16239846
Si       0.50963503       6.67431476       5.11536271       0.07537181      -0.55353938      -0.16239846
Si       3.31600618       4.05523808      11.46718030      -0.07537181       0.55353938      -0.16239846
Si       4.27807462       7.51107273       7.45927314       0.02615455       0.71896973       0.26939332
Si      -0.45243341       3.21848011       1.10745555      -0.02615455      -0.71896973       0.26939332
Si      -0.45243341       3.21848011       5.24436204      -0.02615455      -0.71896973      -0.26939332
Si       4.27807462       7.51107273      11.59617963       0.02615455       0.71896973      -0.26939332
Si       0.23981081       8.99402896      10.72970398       0.16454840      -0.30891356      -0.05395983
Si       3.58583039       1.73552388       4.37788639      -0.16454840       0.30891356      -0.05395983
Si       3.58583039       1.73552388       1.97393120      -0.16454840       0.30891356       0.05395983
Si       0.23981081       8.99402896       8.32574879       0.16454840      -0.30891356       0.05395983
24
Lattice="3.8172016609734434 0.745283747848166 7.15143390340702e-14 0.03243690092109033 10.044222835814596 -4.966561075343566e-14 -2.5149128161493534e-13 6.389494080142396e-14 12.760323277830764" Properties=species:S:1:pos:R:3:forces:R:3 unique_starting_index=172 config_type=initial n_minim_iter=2 energy=-3915.416160991284 stress="0.0025254427277520805 0.0006289283862765971 2.0368485207144932e-13 0.0006289283862765971 0.0007777766179854455 -1.2854216058817582e-13 2.0368485207144932e-13 -1.2854216058817582e-13 0.00378396581860521" free_energy=-3915.416160991284 pbc="T T T"
Si       1.96646470      10.49246238       7.56183323      -0.21694620       0.03130603       0.23327745
Si       1.88317386       0.29704420       1.18167159       0.21694620      -0.03130603       0.23327745
Si       1.88317386       0.29704420       5.19849005       0.21694620      -0.03130603      -0.23327745
Si       1.96646470      10.49246238      11.57865168      -0.21694620       0.03130603      -0.23327745
Si       2.57435009       6.26140315      10.74251082       0.56480938      -0.85074251       0.45870121
Si       1.27528847       4.52810343       4.36234918      -0.56480938       0.85074251       0.45870120
Si       1.27528847       4.52810343       2.01781246      -0.56480938       0.85074251      -0.45870120
Si       2.57435009       6.26140315       8.39797410       0.56480938      -0.85074251      -0.45870121
Si       1.66700499       2.66710303       8.41471959      -0.48379922      -0.50149705      -0.70209537
Si       2.18263357       8.12240355       2.03455795       0.48379922       0.50149705      -0.70209537
Si       2.18263357       8.12240355       4.34560369       0.48379922       0.50149705       0.70209537
Si       1.66700499       2.66710303      10.72576533      -0.48379922      -0.50149705       0.70209537
Si       3.33809050       4.07823086       7.62237765      -0.09335742       0.49321350       0.17815388
Si       0.51154807       6.71127572       1.24221601       0.09335742      -0.49321350       0.17815388
Si       0.51154807       6.71127572       5.13794563       0.09335742      -0.49321350      -0.17815388
Si       3.33809050       4.07823086      11.51810727      -0.09335742       0.49321350      -0.17815388
Si       4.30614456       7.55369615       7.49296320       0.05064026       0.69025800       0.31151091
Si      -0.45650600       3.23581043       1.11280156      -0.05064026      -0.69025800       0.31151091
Si      -0.45650600       3.23581043       5.26736008      -0.05064026      -0.69025800      -0.31151091
Si       4.30614456       7.55369615      11.64752172       0.05064026       0.69025800      -0.31151091
Si       0.23934570       9.04461148      10.77750275       0.12191686      -0.28463427      -0.02693044
Si       3.61029286       1.74489510       4.39734111      -0.12191686       0.28463427      -0.02693044
Si       3.61029286       1.74489510       1.98282053      -0.12191686       0.28463427       0.02693044
Si       0.23934570       9.04461148       8.36298217       0.12191686      -0.28463427       0.02693044
24
Lattice="3.8232242027924275 0.7334574104143348 7.169225645995861e-14 -0.020652656384179673 10.156537244507346 -5.127434373144876e-14 -2.480350002690628e-13 6.301680151153959e-14 12.584990370512577" Properties=species:S:1:pos:R:3:forces:R:3 unique_starting_index=172 config_type=initial n_minim_iter=3 energy=-3915.5894284665833 stress="0.0065972960183820085 -0.00319037455684961 -5.070239024186742e-13 -0.00319037455684961 0.007391292932347601 6.850433759972648e-13 -5.070239024186742e-13 6.850433759972648e-13 -0.012389492981108342" free_energy=-3915.5894284665833 pbc="T T T"
Si       1.91172397      10.60030808       7.46222590      -0.09046315       0.00920540       0.33653283
Si       1.89084758       0.28968657       1.16973071       0.09046315      -0.00920540       0.33653283
Si       1.89084758       0.28968657       5.12276447       0.09046315      -0.00920540      -0.33653283
Si       1.91172397      10.60030808      11.41525966      -0.09046315       0.00920540      -0.33653283
Si       2.55893457       6.30120574      10.60351674       0.43180835      -0.70481780       0.49632807
Si       1.24363697       4.58878891       4.31102156      -0.43180835       0.70481780       0.49632807
Si       1.24363697       4.58878891       1.98147363      -0.43180835       0.70481780      -0.49632807
Si       2.55893457       6.30120574       8.27396881       0.43180835      -0.70481780      -0.49632807
Si       1.64795507       2.67839833       8.28577383      -0.39980624      -0.42739472      -0.62938783
Si       2.15461647       8.21159632       1.99327865       0.39980624       0.42739472      -0.62938783
Si       2.15461647       8.21159632       4.29921654       0.39980624       0.42739472       0.62938783
Si       1.64795507       2.67839833      10.59171172      -0.39980624      -0.42739472       0.62938783
Si       3.32344592       4.11608428       7.52092873      -0.12671946       0.30802257       0.23375851
Si       0.47912562       6.77391037       1.22843354       0.12671946      -0.30802257       0.23375850
Si       0.47912562       6.77391037       5.06406164       0.12671946      -0.30802257      -0.23375850
Si       3.32344592       4.11608428      11.35655683      -0.12671946       0.30802257      -0.23375850
Si       4.27818846       7.62901204       7.39568899       0.15115279       0.56939979       0.46992986
Si      -0.47561692       3.26098261       1.10319381      -0.15115279      -0.56939979       0.46992985
Si      -0.47561692       3.26098261       5.18930138      -0.15115279      -0.56939979      -0.46992986
Si       4.27818846       7.62901204      11.48179656       0.15115279       0.56939979      -0.46992985
Si       0.19465371       9.13900770      10.62879007      -0.00788474      -0.22722095       0.11611444
Si       3.60791784       1.75098695       4.33629488       0.00788474       0.22722095       0.11611444
Si       3.60791784       1.75098695       1.95620030       0.00788474       0.22722095      -0.11611444
Si       0.19465371       9.13900770       8.24869549      -0.00788474      -0.22722095      -0.11611444
24
Lattice="3.788553256885176 0.7297571132432682 7.102746243999513e-14 -0.03696911705081104 10.188457430281577 -5.175576330280633e-14 -2.4947399882095944e-13 6.338239855553714e-14 12.657989478311913" Properties=species:S:1:pos:R:3:forces:R:3 unique_starting_index=172 config_type=initial n_minim_iter=4 energy=-3915.863516945758 stress="-3.0425197562474224e-05 -0.0021458438704004476 -1.6363430129474972e-13 -0.0021458438704004476 0.002367272479790001 -1.797660913588116e-12 -1.6363430129474972e-13 -1.797660913588116e-12 0.0015140421085396154" free_energy=-3915.863516945758 pbc="T T T"
Si       1.87022463      10.63187126       7.51417579       0.00057495      -0.08580353       0.01795450
Si       1.88135951       0.28634328       1.18518105      -0.00057495       0.08580354       0.01795450
Si       1.88135951       0.28634328       5.14381369      -0.00057495       0.08580354      -0.01795450
Si       1.87022463      10.63187126      11.47280842       0.00057495      -0.08580354      -0.01795450
Si       2.54645513       6.28578800      10.68160742       0.24456410      -0.30046340       0.02108880
Si       1.20512900       4.63242654       4.35261268      -0.24456410       0.30046340       0.02108880
Si       1.20512900       4.63242654       1.97638206      -0.24456410       0.30046340      -0.02108880
Si       2.54645513       6.28578800       8.30537680       0.24456410      -0.30046340      -0.02108880
Si       1.61213256       2.66600904       8.30879142      -0.19276611      -0.21009519       0.07347415
Si       2.13945157       8.25220550       1.97979668       0.19276611       0.21009519       0.07347415
Si       2.13945157       8.25220550       4.34919806       0.19276611       0.21009519      -0.07347415
Si       1.61213256       2.66600904      10.67819280      -0.19276611      -0.21009519      -0.07347415
Si       3.28412509       4.14160308       7.57107678      -0.22952267      -0.13338533      -0.17822848
Si       0.46745905       6.77661146       1.24208204       0.22952267       0.13338533      -0.17822848
Si       0.46745905       6.77661146       5.08691270       0.22952267       0.13338533       0.17822848
Si       3.28412509       4.14160308      11.41590744      -0.22952267      -0.13338533       0.17822848
Si       4.23024554       7.67134147       7.45015792       0.27228281       0.20832754       0.18313512
Si      -0.47866140       3.24687307       1.12116319      -0.27228281      -0.20832754       0.18313512
Si      -0.47866140       3.24687307       5.20783155      -0.27228281      -0.20832754      -0.18313512
Si       4.23024554       7.67134147      11.53682629       0.27228281       0.20832754      -0.18313512
Si       0.18232417       9.15694881      10.68991343      -0.10424204      -0.06878457      -0.03836252
Si       3.56925997       1.76126572       4.36091869       0.10424204       0.06878458      -0.03836252
Si       3.56925997       1.76126572       1.96807605       0.10424204       0.06878457       0.03836252
Si       0.18232417       9.15694881       8.29707079      -0.10424204      -0.06878457       0.03836251
24
Lattice="3.8001680367647106 0.7428437737283786 7.119085121657762e-14 0.001124042888922025 10.170540714355617 -5.091527684633801e-14 -2.489360111892559e-13 6.324571625237059e-14 12.63069862149677" Properties=species:S:1:pos:R:3:forces:R:3 unique_starting_index=172 config_type=initial n_minim_iter=5 energy=-3915.878977952171 stress="0.0024237613332352987 0.0021333373656348175 -4.423947212590434e-14 0.0021333373656348175 -0.0005780447371121203 5.274376357514605e-13 -4.423947212590434e-14 5.274376357514605e-13 -0.0009681154926404166" free_energy=-3915.878977952171 pbc="T T T"
Si       1.91362145      10.62018884       7.49891642      -0.02488647      -0.15193515       0.01384469
Si       1.88767063       0.29319564       1.18356711       0.02488647       0.15193515       0.01384469
Si       1.88767063       0.29319564       5.13178220       0.02488647       0.15193515      -0.01384469
Si       1.91362145      10.62018884      11.44713151      -0.02488647      -0.15193515      -0.01384469
Si       2.57913769       6.27988160      10.66038019       0.24797518      -0.16282392       0.01053029
Si       1.22215438       4.63350288       4.34503088      -0.24797518       0.16282392       0.01053029
Si       1.22215438       4.63350288       1.97031843      -0.24797518       0.16282392      -0.01053029
Si       2.57913769       6.27988160       8.28566774       0.24797518      -0.16282392      -0.01053029
Si       1.62329971       2.66464360       8.28854054      -0.13786646      -0.10982245       0.09619688
Si       2.17799237       8.24874088       1.97319123       0.13786646       0.10982245       0.09619688
Si       2.17799237       8.24874088       4.34215808       0.13786646       0.10982245      -0.09619688
Si       1.62329971       2.66464360      10.65750739      -0.13786646      -0.10982245      -0.09619688
Si       3.30605265       4.14818971       7.55468410      -0.26340134      -0.26252684      -0.18604587
Si       0.49523943       6.76519477       1.23933479       0.26340134       0.26252684      -0.18604587
Si       0.49523943       6.76519477       5.07601452       0.26340134       0.26252684       0.18604587
Si       3.30605265       4.14818971      11.39136384      -0.26340134      -0.26252684       0.18604587
Si       4.27020126       7.67752724       7.43599210       0.25134087       0.08641664       0.19848151
Si      -0.46890918       3.23585724       1.12064279      -0.25134087      -0.08641664       0.19848151
Si      -0.46890918       3.23585724       5.19470652      -0.25134087      -0.08641664      -0.19848151
Si       4.27020126       7.67752724      11.51005583       0.25134087       0.08641664      -0.19848151
Si       0.21712527       9.14026177      10.66660740      -0.07836075       0.00988032      -0.02646640
Si       3.58416681       1.77312271       4.35125809       0.07836075      -0.00988032      -0.02646640
Si       3.58416681       1.77312271       1.96409122       0.07836075      -0.00988032       0.02646640
Si       0.21712527       9.14026177       8.27944054      -0.07836075       0.00988032       0.02646640
24
Lattice="3.7826700017822135 0.7309939592571598 7.090532103542832e-14 -0.038041131397962114 10.210303824449673 -5.188629102073369e-14 -2.4876228083564607e-13 6.320156671196844e-14 12.621885569149633" Properties=species:S:1:pos:R:3:forces:R:3 unique_starting_index=172 config_type=initial n_minim_iter=6 energy=-3915.926448135606 stress="-0.0004018504176731908 -0.0004590579211164603 7.564569211829799e-14 -0.0004590579211164603 -0.000856969630949641 -1.4878356203106135e-14 7.564569211829799e-14 -1.4878356203106135e-14 -0.0005274982475267117" free_energy=-3915.926448135606 pbc="T T T"
Si       1.86186554      10.65141876       7.49729163       0.02795508      -0.13982626      -0.07205627
Si       1.88276333       0.28987902       1.18634885      -0.02795508       0.13982626      -0.07205627
Si       1.88276333       0.28987902       5.12459394      -0.02795508       0.13982626       0.07205627
Si       1.86186554      10.65141876      11.43553672       0.02795508      -0.13982626       0.07205627
Si       2.55996055       6.27528794      10.65974801       0.13548879       0.04876298      -0.13100357
Si       1.18466832       4.66600984       4.34880523      -0.13548879      -0.04876298      -0.13100357
Si       1.18466832       4.66600984       1.96213756      -0.13548879      -0.04876298       0.13100357
Si       2.55996055       6.27528794       8.27308034       0.13548879       0.04876298       0.13100357
Si       1.59554752       2.65700634       8.27520355      -0.10792709      -0.04920131       0.24712255
Si       2.14908135       8.28429144       1.96426076       0.10792709       0.04920131       0.24712255
Si       2.14908135       8.28429144       4.34668202       0.10792709       0.04920131      -0.24712255
Si       1.59554752       2.65700634      10.65762481      -0.10792709      -0.04920131      -0.24712255
Si       3.26929205       4.15323604       7.54685576      -0.21823358      -0.43775362      -0.28568149
Si       0.47533682       6.78806174       1.23591297       0.21823358       0.43775362      -0.28568149
Si       0.47533682       6.78806174       5.07502981       0.21823358       0.43775362       0.28568149
Si       3.26929205       4.15323604      11.38597260      -0.21823358      -0.43775362       0.28568150
Si       4.23191710       7.70507021       7.44020743       0.30354768      -0.11542402       0.12755857
Si      -0.48728823       3.23622757       1.12926464      -0.30354767       0.11542402       0.12755857
Si      -0.48728823       3.23622757       5.18167814      -0.30354768       0.11542402      -0.12755857
Si       4.23191710       7.70507021      11.49262093       0.30354768      -0.11542402      -0.12755857
Si       0.18051115       9.17017371      10.65782329      -0.12616725       0.06529367      -0.05072993
Si       3.56411772       1.77112407       4.34688050       0.12616725      -0.06529366      -0.05072993
Si       3.56411772       1.77112407       1.96406228       0.12616725      -0.06529366       0.05072993
Si       0.18051115       9.17017371       8.27500507      -0.12616725       0.06529366       0.05072993
24
Lattice="3.753072744678511 0.750340509525244 7.022511678830523e-14 -0.008085146362170795 10.316269776166967 -5.1826512261894836e-14 -2.4900316084932197e-13 6.326274664212242e-14 12.634104845983599" Properties=species:S:1:pos:R:3:forces:R:3 unique_starting_index=172 config_type=initial n_minim_iter=7 energy=-3915.9859636400765 stress="-0.008021643314909335 0.0032599135967607174 -8.986184340999466e-14 0.0032599135967607174 0.008818340394898986 6.356772123256367e-13 -8.986184340999466e-14 6.356772123256367e-13 0.0006213911623155776" free_energy=-3915.9859636400765 pbc="T T T"
Si       1.87494435      10.75864024       7.50550170      -0.12571082      -0.01854001      -0.09383827
Si       1.87004325       0.30797004       1.18844928       0.12571082       0.01854001      -0.09383827
Si       1.87004325       0.30797004       5.12860315       0.12571082       0.01854001       0.09383827
Si       1.87494435      10.75864024      11.44565557      -0.12571082      -0.01854001       0.09383827
Si       2.57746089       6.33001186      10.67186707       0.24557374       0.13432455      -0.16685617
Si       1.16752670       4.73659842       4.35481464      -0.24557374      -0.13432455      -0.16685617
Si       1.16752670       4.73659842       1.96223778      -0.24557374      -0.13432455       0.16685617
Si       2.57746089       6.33001186       8.27929020       0.24557374       0.13432455       0.16685617
Si       1.57431704       2.67523329       8.28592238      -0.00920494      -0.08795226       0.16703554
Si       2.17067056       8.39137699       1.96886996       0.00920494       0.08795226       0.16703554
Si       2.17067056       8.39137699       4.34818247       0.00920494       0.08795226      -0.16703554
Si       1.57431704       2.67523329      10.66523489      -0.00920494      -0.08795226      -0.16703554
Si       3.23659363       4.18969245       7.53998855      -0.26524202      -0.41712425      -0.24272898
Si       0.50839396       6.87691783       1.22293613       0.26524202       0.41712425      -0.24272898
Si       0.50839396       6.87691783       5.09411629       0.26524202       0.41712424       0.24272898
Si       3.23659363       4.18969245      11.41116872      -0.26524202      -0.41712425       0.24272898
Si       4.23915293       7.80851748       7.46241215       0.13960607      -0.22955986       0.10959248
Si      -0.49416534       3.25809281       1.14535973      -0.13960607       0.22955986       0.10959248
Si      -0.49416534       3.25809281       5.17169269      -0.13960607       0.22955986      -0.10959248
Si       4.23915293       7.80851748      11.48874512       0.13960607      -0.22955986      -0.10959248
Si       0.19967446       9.26360667      10.66482373       0.04489170       0.00516053      -0.04308088
Si       3.54531314       1.80300361       4.34777131      -0.04489170      -0.00516053      -0.04308088
Si       3.54531314       1.80300361       1.96928111      -0.04489170      -0.00516053       0.04308088
Si       0.19967446       9.26360667       8.28633354       0.04489170       0.00516053       0.04308088
24
Lattice="3.7550944185548807 0.7315887234930093 7.03588557904784e-14 -0.049624153879965896 10.27618365110769 -5.2444481136747696e-14 -2.4948620280189394e-13 6.338546251302553e-14 12.658608823030967" Properties=species:S:1:pos:R:3:forces:R:3 unique_starting_index=172 config_type=initial n_minim_iter=8 energy=-3916.1044564904546 stress="-0.006446778194397184 -0.0005671125041010595 3.386637153360176e-13 -0.0005671125041010595 0.0032654508922802597 -3.9864566862794183e-13 3.386637153360176e-13 -3.9864566862794183e-13 0.0015413322472834967" free_energy=-3916.1044564904546 pbc="T T T"
Si       1.83115924      10.69646989       7.52052787      -0.09604070       0.02903382      -0.12913008
Si       1.87431102       0.31130248       1.19122346       0.09604070      -0.02903382      -0.12913008
Si       1.87431102       0.31130248       5.13808096       0.09604070      -0.02903382       0.12913008
Si       1.83115924      10.69646989      11.46738537      -0.09604070       0.02903382       0.12913008
Si       2.58298749       6.27247126      10.69343056       0.15436725       0.28763104      -0.19854584
Si       1.12248277       4.73530111       4.36412615      -0.15436725      -0.28763104      -0.19854584
Si       1.12248277       4.73530111       1.96517827      -0.15436725      -0.28763104       0.19854584
Si       2.58298749       6.27247126       8.29448268       0.15436725       0.28763104       0.19854584
Si       1.54598085       2.64005484       8.30760353      -0.13760280      -0.04664996       0.04457949
Si       2.15948941       8.36771753       1.97829912       0.13760280       0.04664997       0.04457949
Si       2.15948941       8.36771753       4.35100529       0.13760280       0.04664996      -0.04457949
Si       1.54598085       2.64005484      10.68030971      -0.13760280      -0.04664997      -0.04457949
Si       3.20024916       4.13464094       7.53447695      -0.07479074      -0.41161909      -0.16981406
Si       0.50522110       6.87313143       1.20517254       0.07479074       0.41161909      -0.16981405
Si       0.50522110       6.87313143       5.12413187       0.07479074       0.41161909       0.16981405
Si       3.20024916       4.13464094      11.45343628      -0.07479075      -0.41161909       0.16981405
Si       4.24088966       7.77119502       7.49673129       0.15093559      -0.45012304       0.04292858
Si      -0.53541940       3.23657735       1.16742688      -0.15093559       0.45012304       0.04292858
Si      -0.53541940       3.23657735       5.16187753      -0.15093559       0.45012304      -0.04292858
Si       4.24088966       7.77119502      11.49118194       0.15093559      -0.45012304      -0.04292858
Si       0.15470764       9.22428137      10.68101205       0.03860406       0.05175352      -0.05101593
Si       3.55076263       1.78349100       4.35170764      -0.03860406      -0.05175352      -0.05101593
Si       3.55076263       1.78349100       1.97759677      -0.03860406      -0.05175352       0.05101593
Si       0.15470764       9.22428137       8.30690119       0.03860406       0.05175352       0.05101593
24
Lattice="3.7831472479507875 0.7276152467099983 7.093163985140815e-14 -0.04389895503685915 10.19477657555453 -5.1924020051633865e-14 -2.5010150671910933e-13 6.354178428760347e-14 12.689822446939534" Properties=species:S:1:pos:R:3:forces:R:3 unique_starting_index=172 config_type=initial n_minim_iter=9 energy=-3916.2318735901745 stress="-9.399025817833455e-05 -0.0011020688177617373 2.2244480617241068e-13 -0.0011020688177617373 -0.0017038659911760789 -3.5608843435413833e-13 2.2244480617241068e-13 -3.5608843435413833e-13 0.0008566409702773271" free_energy=-3916.2318735901745 pbc="T T T"
Si       1.84672236      10.59140019       7.53474616      -0.13750182       0.07405384      -0.04194214
Si       1.89252593       0.33099163       1.18983494       0.13750182      -0.07405384      -0.04194214
Si       1.89252593       0.33099163       5.15507629       0.13750182      -0.07405384       0.04194214
Si       1.84672236      10.59140019      11.49998751      -0.13750182       0.07405384       0.04194214
Si       2.64844431       6.20620140      10.71217499       0.17096357       0.18383447      -0.03690092
Si       1.09080398       4.71619042       4.36726377      -0.17096357      -0.18383447      -0.03690092
Si       1.09080398       4.71619042       1.97764745      -0.17096357      -0.18383447       0.03690092
Si       2.64844431       6.20620140       8.32255868       0.17096357       0.18383447       0.03690092
Si       1.52662455       2.59592558       8.34490974      -0.28140560      -0.04315949      -0.39025851
Si       2.21262374       8.32646624       1.99999852       0.28140560       0.04315949      -0.39025851
Si       2.21262374       8.32646624       4.34491271       0.28140560       0.04315949       0.39025851
Si       1.52662455       2.59592558      10.68982393      -0.28140560      -0.04315949       0.39025851
Si       3.18679806       4.04490998       7.51458844       0.10762822      -0.09073410       0.14562952
Si       0.55245023       6.87748184       1.16967721      -0.10762822       0.09073410       0.14562952
Si       0.55245023       6.87748184       5.17523401      -0.10762822       0.09073410      -0.14562952
Si       3.18679806       4.04490998      11.52014523       0.10762822      -0.09073410      -0.14562952
Si       4.32686118       7.70845571       7.54661426       0.02745697      -0.46455596      -0.00715443
Si      -0.58761289       3.21393611       1.20170303      -0.02745697       0.46455596      -0.00715443
Si      -0.58761289       3.21393611       5.14320819      -0.02745697       0.46455596       0.00715443
Si       4.32686118       7.70845571      11.48811941       0.02745697      -0.46455596       0.00715443
Si       0.14679479       9.15325103      10.69945777       0.14130226       0.00694918       0.03504851
Si       3.59245350       1.76914078       4.35454654      -0.14130226      -0.00694918       0.03504852
Si       3.59245350       1.76914078       1.99036468      -0.14130226      -0.00694918      -0.03504851
Si       0.14679479       9.15325103       8.33527590       0.14130226       0.00694918      -0.03504852
24
Lattice="3.8059873496410535 0.7459940549759521 7.128976376774214e-14 0.003141497463421329 10.20290723084386 -5.1037626077571704e-14 -2.4920120057782834e-13 6.331303807603349e-14 12.644151070358943" Properties=species:S:1:pos:R:3:forces:R:3 unique_starting_index=172 config_type=initial n_minim_iter=10 energy=-3916.303863124419 stress="0.0028799289861770085 0.00175307407237483 -1.0609938476909063e-13 0.00175307407237483 0.0010519273115497613 1.4310892298573775e-13 -1.0609938476909063e-13 1.4310892298573775e-13 -0.0026580149217157382" free_energy=-3916.303863124419 pbc="T T T"
Si       1.89575803      10.60700957       7.50461886      -0.00024845      -0.04943777       0.06196591
Si       1.91337082       0.34189171       1.18254332       0.00024845       0.04943777       0.06196591
Si       1.91337082       0.34189171       5.13953221       0.00024845       0.04943777      -0.06196590
Si       1.89575803      10.60700957      11.46160775      -0.00024845      -0.04943777      -0.06196591
Si       2.71303200       6.22951187      10.66978629       0.10762880      -0.09891952       0.03979340
Si       1.09609685       4.71938941       4.34771075      -0.10762880       0.09891952       0.03979340
Si       1.09609685       4.71938941       1.97436478      -0.10762880       0.09891952      -0.03979340
Si       2.71303200       6.22951187       8.29644032       0.10762880      -0.09891952      -0.03979340
Si       1.52337154       2.59627815       8.29850574      -0.08360722       0.00047315      -0.08870991
Si       2.28575731       8.35262313       1.97643020       0.08360722      -0.00047315      -0.08870991
Si       2.28575731       8.35262313       4.34564533       0.08360722      -0.00047315       0.08870991
Si       1.52337154       2.59627815      10.66772087      -0.08360722       0.00047315       0.08870991
Si       3.21525794       4.04060640       7.48483500      -0.09550588       0.12677281       0.17052595
Si       0.59387090       6.90829488       1.16275947       0.09550588      -0.12677280       0.17052595