10
Lattice="3.7123691529291043 -0.1252575168008213 1.0507730415077042e-17 -2.0461512283724397 6.065457530076687 -5.122041395571202e-16 1.6902700679571217e-19 7.517108241945998e-16 8.900993177056291" Properties=species:S:1:pos:R:3:forces:R:3 unique_starting_index=14 config_type=initial n_minim_iter=6 energy=-1628.4096820067498 stress="2.5969909532135325e-05 7.427440300771378e-05 1.030465714817313e-12 7.427440300771378e-05 1.4059205554129855e-05 -6.3160973854841005e-12 1.030465714817313e-12 -6.3160973854841005e-12 4.7400917141377106e-05" free_energy=-1628.4096820067498 pbc="T T T"
Si      -0.01636461       3.74056509      -0.29845381      -0.00654506       0.00540611      -0.00191947
Si       1.68258253       2.19963492      -0.29845381       0.00654506      -0.00540611      -0.00191947
Si       0.99067260       0.69371954       1.45751378       0.00084433      -0.00140492      -0.00128727
Si       0.67554533       5.24648047       1.45751378      -0.00084433       0.00140492      -0.00128726
Si       1.34476762       1.00890864       6.58005677      -0.00551176       0.00101371       0.00029389
Si       0.32145030       4.93129137       6.58005677       0.00551176      -0.00101371       0.00029389
Si       0.54606632       4.10785970       3.51575401      -0.00231400      -0.00459070       0.00131568
Si       1.12015160       1.83234032       3.51575401       0.00231400       0.00459070       0.00131568
Si      -1.37844924       4.24997361       5.07081734       0.00136120      -0.00006160       0.00159717
Si       3.04466716       1.69022640       5.07081734      -0.00136120       0.00006160       0.00159717
