20
Lattice="6.0002784435509255 -3.6544281840390405e-16 -6.674156171461143e-14 3.315834827085835e-16 5.44433526487494 3.2834741199772425e-14 2.5412492905846014e-13 -1.3778788890144748e-13 22.846638505681906" Properties=species:S:1:pos:R:3:forces:R:3 unique_starting_index=4 config_type=initial n_minim_iter=1 energy=-3249.6851929209283 stress="0.0006936730322233172 -4.274889883344369e-13 1.4702705843451942e-12 -4.274889883344369e-13 -0.0007103065236145069 -2.0727870430751436e-12 1.4702705843451942e-12 -2.0727870430751436e-12 -0.0006704991693908293" free_energy=-3249.6851929209283 pbc="T T T"
Si       3.90362668       2.79902364      14.53705578      -0.03022469       0.01385604       0.20566540
Si       3.90362668       2.64531162       8.30958273      -0.03022469      -0.01385604      -0.20566540
Si       2.83678044       2.77410627      12.46056513       0.06890048       0.26128286       0.02228099
Si       2.83678044       2.67022899      10.38607338       0.06890048      -0.26128286      -0.02228099
Si       2.09665176       0.07685601      19.73290198       0.03022469       0.01385604      -0.20566540
Si       2.09665176       5.36747925       3.11373653       0.03022469      -0.01385604       0.20566540
Si       3.16349800       5.49627391      21.80939263      -0.06890048       0.26128286      -0.02228099
Si       3.16349800      -0.05193864       1.03724588      -0.06890048      -0.26128286       0.02228099
Si       2.96937562       3.78345839       4.59979200      -0.18849714       0.09540222      -0.07068928
Si       2.96937562       1.66087687      18.24684650      -0.18849714      -0.09540222       0.07068928
Si       2.95643769       3.91206308      18.24614907       0.14509601       0.13808279       0.05378456
Si       2.95643769       1.53227219       4.60048943       0.14509601      -0.13808279      -0.05378456
Si       3.03090282       1.06129076       6.82352725       0.18849714       0.09540222       0.07068928
Si       3.03090282       4.38304450      16.02311126       0.18849714      -0.09540222      -0.07068928
Si       3.04384075       1.18989544      16.02380869      -0.14509601       0.13808279      -0.05378456
Si       3.04384075       4.25443982       6.82282982      -0.14509601      -0.13808279       0.05378456
Si       5.52553818       3.00327920      21.27262365       0.00988850      -0.03093617      -0.17255282
Si       5.52553818       2.44105607       1.57401486       0.00988850       0.03093617       0.17255282
Si       0.47474026       5.16322370       9.84930439      -0.00988850       0.03093617      -0.17255282
Si       0.47474026       0.28111157      12.99733411      -0.00988850      -0.03093617       0.17255282
20
Lattice="5.991417125973561 -3.6490312597117795e-16 -6.664299659308783e-14 3.3208566376205693e-16 5.452580675642834 3.2961356627085187e-14 2.544882151111894e-13 -1.37662324429326e-13 22.879299076022598" Properties=species:S:1:pos:R:3:forces:R:3 unique_starting_index=4 config_type=initial n_minim_iter=2 energy=-3249.687708783139 stress="0.0003304714870337014 1.3206019905523441e-12 -2.2228381088862694e-13 1.3206019905523441e-12 0.0008698649762582799 2.6809537084978465e-12 -2.2228381088862694e-13 2.6809537084978465e-12 0.0017453167250815094" free_energy=-3249.687708783139 pbc="T T T"
Si       3.89777558       2.80330236      14.55842527      -0.03797754       0.00690859       0.20760611
Si       3.89777558       2.64927831       8.32087380      -0.03797754      -0.00690859      -0.20760611
Si       2.83278743       2.77905464      12.47844191       0.06600182       0.23919211      -0.02541797
Si       2.83278743       2.67352603      10.40085716       0.06600182      -0.23919211       0.02541797
Si       2.09364155       0.07701202      19.76052334       0.03797754       0.00690859      -0.20760611
Si       2.09364155       5.37556865       3.11877573       0.03797754      -0.00690859       0.20760611
Si       3.15862969       5.50534498      21.84050670      -0.06600182       0.23919211       0.02541797
Si       3.15862969      -0.05276431       1.03879237      -0.06600182      -0.23919211      -0.02541797
Si       2.96445310       3.78946117       4.60616559      -0.18696714       0.06461462      -0.04940870
Si       2.96445310       1.66311951      18.27313349      -0.18696714      -0.06461462       0.04940870
Si       2.95248516       3.91838265      18.27238674       0.14213026       0.10614991       0.03927569
Si       2.95248516       1.53419803       4.60691234       0.14213026      -0.10614991      -0.03927569
Si       3.02696403       1.06317083       6.83348395       0.18696714       0.06461462       0.04940870
Si       3.02696403       4.38940984      16.04581512       0.18696714      -0.06461462      -0.04940870
Si       3.03893196       1.19209231      16.04656188      -0.14213026       0.10614991      -0.03927569
Si       3.03893196       4.26048837       6.83273720      -0.14213026      -0.10614991       0.03927569
Si       5.51740616       3.00773920      21.30254079       0.00474949      -0.01404146      -0.14064153
Si       5.51740616       2.44484148       1.57675829       0.00474949       0.01404146       0.14064153
Si       0.47401097       5.17113181       9.86289125      -0.00474949       0.01404146      -0.14064153
Si       0.47401097       0.28144886      13.01640783      -0.00474949      -0.01404146       0.14064153
20
Lattice="5.973581836609861 -3.6381687997886014e-16 -6.644461328855207e-14 3.3230603205180463e-16 5.456198946496829 3.299103459034212e-14 2.541826469336378e-13 -1.3746350612824552e-13 22.851827526036374" Properties=species:S:1:pos:R:3:forces:R:3 unique_starting_index=4 config_type=initial n_minim_iter=3 energy=-3249.6916540911134 stress="-0.0021399689469131494 -1.5794456942642059e-12 -1.8978484931589392e-12 -1.5794456942642059e-12 0.0002634967253551094 -3.687636515806754e-12 -1.8978484931589392e-12 -3.687636515806754e-12 -0.0004566553757168365" free_energy=-3249.6916540911134 pbc="T T T"
Si       3.88593748       2.80524338      14.54241982      -0.00139512      -0.00882060       0.22272579
Si       3.88593748       2.65095556       8.30940770      -0.00139512       0.00882060      -0.22272579
Si       2.82483677       2.78271130      12.46349168       0.04170244       0.23683113       0.01350088
Si       2.82483677       2.67348765      10.38833584       0.04170244      -0.23683113      -0.01350088
Si       2.08764435       0.07714391      19.73532147       0.00139512      -0.00882060      -0.22272579
Si       2.08764435       5.37905504       3.11650606       0.00139512       0.00882060       0.22272579
Si       3.14874507       5.51081077      21.81424961      -0.04170244       0.23683113      -0.01350088
Si       3.14874507      -0.05461182       1.03757792      -0.04170244      -0.23683113       0.01350088
Si       2.95429302       3.79257728       4.60018605      -0.14872689       0.03456344      -0.02132818
Si       2.95429302       1.66362167      18.25164148      -0.14872689      -0.03456344       0.02132818
Si       2.94471947       3.92188692      18.25079275       0.17069839       0.07519128       0.03595599
Si       2.94471947       1.53431203       4.60103478       0.17069839      -0.07519127      -0.03595599
Si       3.01928882       1.06447780       6.82572772       0.14872689       0.03456343       0.02132818
Si       3.01928882       4.39172114      16.02609981       0.14872689      -0.03456343      -0.02132818
Si       3.02886237       1.19378744      16.02694854      -0.17069839       0.07519127      -0.03595599
Si       3.02886237       4.26241150       6.82487898      -0.17069839      -0.07519127       0.03595599
Si       5.50103866       3.00955842      21.27581376      -0.04400759       0.00033309      -0.05664520
Si       5.50103866       2.44664053       1.57601376      -0.04400759      -0.00033309       0.05664520
Si       0.47254318       5.17474000       9.84990000       0.04400759      -0.00033309      -0.05664520
Si       0.47254318       0.28145895      13.00192753       0.04400759       0.00033309       0.05664520
20
Lattice="6.000862043507604 -3.654783621565877e-16 -6.674805314211589e-14 3.327229331243372e-16 5.463044128267106 3.302313214646995e-14 2.5355285509520507e-13 -1.3715924573538618e-13 22.79520723884217" Properties=species:S:1:pos:R:3:forces:R:3 unique_starting_index=4 config_type=initial n_minim_iter=4 energy=-3249.715299765761 stress="0.0009009351804843242 3.476526455813126e-13 2.3911047218025928e-12 3.476526455813126e-13 0.002666855663506401 1.6144518707875665e-12 2.3911047218025928e-12 1.6144518707875665e-12 -0.00160988011284109" free_energy=-3249.715299765761 pbc="T T T"
Si       3.90221899       2.80913064      14.51856619       0.00485347      -0.00059027       0.00637045
Si       3.90221899       2.65391349       8.27664105       0.00485347       0.00059027      -0.00637045
Si       2.84129255       2.80070797      12.43300386       0.04034744       0.10329296      -0.03767621
Si       2.84129255       2.66233616      10.36220338       0.04034744      -0.10329296       0.03767621
Si       2.09864306       0.07760857      19.67424467      -0.00485347      -0.00059027      -0.00637045
Si       2.09864306       5.38543556       3.12096257      -0.00485347       0.00059027       0.00637045
Si       3.15956949       5.53223003      21.75980700      -0.04034744       0.10329296       0.03767621
Si       3.15956949      -0.06918590       1.03540024      -0.04034743      -0.10329296      -0.03767621
Si       2.95746162       3.80151582       4.58574520      -0.03694858      -0.19692480       0.08226698
Si       2.95746162       1.66152831      18.20946203      -0.03694858       0.19692480      -0.08226698
Si       2.96688512       3.93342514      18.20819646       0.10272558      -0.14810671       0.06101328
Si       2.96688512       1.52961899       4.58701078       0.10272558       0.14810671      -0.06101328
Si       3.04340042       1.06999375       6.81185841       0.03694858      -0.19692480      -0.08226698
Si       3.04340042       4.39305038      15.98334882       0.03694858       0.19692480       0.08226698
Si       3.03397693       1.20190308      15.98461440      -0.10272558      -0.14810671      -0.06101328
Si       3.03397693       4.26114105       6.81059284      -0.10272558       0.14810671       0.06101328
Si       5.52588303       3.01225685      21.21528136      -0.11111347       0.04422785      -0.09420173
Si       5.52588303       2.45078728       1.57992588      -0.11111348      -0.04422785       0.09420173
Si       0.47497901       5.18230935       9.81767774       0.11111347      -0.04422785      -0.09420173
Si       0.47497901       0.28073478      12.97752950       0.11111348       0.04422785       0.09420173
20
Lattice="6.000426086593074 -3.6545181050151637e-16 -6.674320395960076e-14 3.3190189103620823e-16 5.4495632746436184 3.2966095302518785e-14 2.538654907704477e-13 -1.3722117251765978e-13 22.8233141793251" Properties=species:S:1:pos:R:3:forces:R:3 unique_starting_index=4 config_type=initial n_minim_iter=5 energy=-3249.719473668507 stress="5.6451142733552956e-05 3.948601617066052e-12 -2.736209155854553e-12 3.948601617066052e-12 -0.00014122916100955967 3.2765944717509287e-12 -2.736209155854553e-12 3.2765944717509287e-12 5.446647285782755e-05" free_energy=-3249.719473668507 pbc="T T T"
Si       3.90169427       2.80225968      14.53854834       0.04798568      -0.00417221      -0.07262483
Si       3.90169427       2.64730360       8.28476584       0.04798568       0.00417221       0.07262483
Si       2.84174365       2.79639448      12.44835098       0.01413193       0.08630601      -0.05990604
Si       2.84174365       2.65316879      10.37496320       0.01413193      -0.08630601       0.05990604
Si       2.09873182       0.07747804      19.69642293      -0.04798568      -0.00417221       0.07262483
Si       2.09873182       5.37208524       3.12689125      -0.04798568       0.00417221      -0.07262483
Si       3.15868243       5.52117612      21.78662029      -0.01413193       0.08630601       0.05990604
Si       3.15868243      -0.07161284       1.03669389      -0.01413193      -0.08630601      -0.05990604
Si       2.95544462       3.79257567       4.59099354      -0.01806956      -0.16675614       0.13879309
Si       2.95544462       1.65698761      18.23232064      -0.01806956       0.16675614      -0.13879309
Si       2.96828973       3.92463858      18.23117553       0.09274869      -0.12013876       0.02763705
Si       2.96828973       1.52492469       4.59213865       0.09274869       0.12013876      -0.02763705
Si       3.04498147       1.06779403       6.82066355       0.01806956      -0.16675614      -0.13879309
Si       3.04498147       4.38176924      16.00265063       0.01806956       0.16675614       0.13879309
Si       3.03213635       1.19985694      16.00379574      -0.09274869      -0.12013876      -0.02763705
Si       3.03213635       4.24970633       6.81951844      -0.09274869       0.12013876       0.02763705
Si       5.52528307       3.00470160      21.23998705      -0.11365406       0.04797867      -0.02777796
Si       5.52528307       2.44486168       1.58332713      -0.11365406      -0.04797867       0.02777796
Si       0.47514302       5.16964332       9.82832996       0.11365406      -0.04797867      -0.02777796
Si       0.47514302       0.27991996      12.99498422       0.11365406       0.04797867       0.02777796
20
Lattice="5.994998946687872 -3.6512127429032433e-16 -6.668283746222491e-14 3.324702509898122e-16 5.458895289957751 3.301505695523951e-14 2.537232324342481e-13 -1.371738339666482e-13 22.810524702930106" Properties=species:S:1:pos:R:3:forces:R:3 unique_starting_index=4 config_type=initial n_minim_iter=6 energy=-3249.7357377206167 stress="-0.0001629007280784788 1.6786645671416675e-12 -9.368836646690796e-13 1.6786645671416675e-12 -0.00025210608232906 1.7092025703466473e-12 -9.368836646690796e-13 1.7092025703466473e-12 0.0004072282478207177" free_energy=-3249.7357377206167 pbc="T T T"
Si       3.90085992       2.80693441      14.53174344      -0.01535733       0.04672044       0.00122939
Si       3.90085992       2.65196088       8.27878126      -0.01535733      -0.04672044      -0.00122939
Si       2.84217931       2.81541818      12.43718703       0.03387000      -0.00583562       0.10537237
Si       2.84217931       2.64347711      10.37333767       0.03387000       0.00583562      -0.10537237
Si       2.09413903       0.07748676      19.68404361       0.01535732       0.04672044      -0.00122939
Si       2.09413903       5.38140853       3.12648109       0.01535733      -0.04672044       0.00122939
Si       3.15281964       5.54486583      21.77860002      -0.03387000      -0.00583562      -0.10537237
Si       3.15281964      -0.08597054       1.03192468      -0.03387000       0.00583562       0.10537237
Si       2.94589855       3.78865809       4.59700385       0.01894173       0.09503113       0.01859013
Si       2.94589855       1.67023720      18.21352085       0.01894173      -0.09503113      -0.01859014
Si       2.97722251       3.92574615      18.22450568       0.03908912       0.07243766       0.09127734
Si       2.97722251       1.53314914       4.58601903       0.03908912      -0.07243766      -0.09127734
Si       3.04910039       1.05921044       6.80825850      -0.01894173       0.09503113      -0.01859013
Si       3.04910039       4.39968485      16.00226620      -0.01894173      -0.09503113       0.01859014
Si       3.01777644       1.19629851      15.99128138      -0.03908912       0.07243766      -0.09127734
Si       3.01777644       4.26259678       6.81924333      -0.03908912      -0.07243766       0.09127734
Si       5.51162022       3.01288245      21.22173600      -0.13306453       0.09940658       0.02472706
Si       5.51162022       2.44601284       1.58878870      -0.13306453      -0.09940658      -0.02472707
Si       0.48337873       5.17546048       9.81647365       0.13306453      -0.09940658       0.02472706
Si       0.48337873       0.28343481      12.99405105       0.13306453       0.09940658      -0.02472706
20
Lattice="5.99441683425267 -3.6508582113411515e-16 -6.667636258053641e-14 3.3321835785436566e-16 5.471178605614236 3.290900582815184e-14 2.528139902023748e-13 -1.3743564971129196e-13 22.72878093752034" Properties=species:S:1:pos:R:3:forces:R:3 unique_starting_index=4 config_type=initial n_minim_iter=7 energy=-3249.7468512260434 stress="0.000844912102197999 1.415952536693256e-12 3.813967957199134e-12 1.415952536693256e-12 0.00105772306349343 3.572539221391808e-12 3.813967957199134e-12 3.572539221391808e-12 -0.0011974139049407606" free_energy=-3249.7468512260434 pbc="T T T"
Si       3.90112299       2.81678802      14.48745694       0.00740744       0.08079032      -0.05318049
Si       3.90112299       2.65439058       8.24132399       0.00740744      -0.08079032       0.05318049
Si       2.84944236       2.84331692      12.39640477       0.04725939      -0.13555968      -0.06031345
Si       2.84944236       2.62786169      10.33237617       0.04725939       0.13555968       0.06031345
Si       2.09329384       0.08119872      19.60571446      -0.00740744       0.08079032       0.05318049
Si       2.09329384       5.38997989       3.12306647      -0.00740744      -0.08079032      -0.05318049
Si       3.14497448       5.57890622      21.69676664      -0.04725939      -0.13555968       0.06031345
Si       3.14497448      -0.10772761       1.03201430      -0.04725939       0.13555968      -0.06031345
Si       2.93476540       3.79496839       4.58877914       0.10627433       0.03615546      -0.05480353
Si       2.93476540       1.67621021      18.14000180       0.10627433      -0.03615546       0.05480353
Si       2.99606025       3.93693393      18.17107569      -0.02935184      -0.02158239       0.09188864
Si       2.99606025       1.53424468       4.55770525      -0.02935184       0.02158239      -0.09188864
Si       3.05965143       1.05937909       6.77561133      -0.10627433       0.03615546       0.05480353
Si       3.05965143       4.41179951      15.95316961      -0.10627433      -0.03615546      -0.05480353
Si       2.99835658       1.20134463      15.92209572       0.02935184      -0.02158239      -0.09188864
Si       2.99835658       4.26983398       6.80668522       0.02935184       0.02158239       0.09188864
Si       5.49235233       3.02945784      21.13629889      -0.13914939       0.14630318      -0.01091537
Si       5.49235233       2.44172077       1.59248204      -0.13914939      -0.14630318       0.01091537
Si       0.50206451       5.17731007       9.77190842       0.13914939      -0.14630318      -0.01091537
Si       0.50206451       0.29386854      12.95687251       0.13914939       0.14630318       0.01091537
20
Lattice="5.974669225399959 -3.6388310664282087e-16 -6.645670839825844e-14 3.3277773191044117e-16 5.463943880453872 3.282062076212019e-14 2.5316589472149063e-13 -1.3781232445557725e-13 22.760418271828915" Properties=species:S:1:pos:R:3:forces:R:3 unique_starting_index=4 config_type=initial n_minim_iter=8 energy=-3249.7644037994996 stress="-0.0005572889237917025 1.934000574760905e-12 3.575068139690569e-12 1.934000574760905e-12 -0.0007531748220650889 2.9968394083008698e-12 3.575068139690569e-12 2.9968394083008698e-12 0.00046367953557686475" free_energy=-3249.7644037994996 pbc="T T T"
Si       3.88944331       2.81858289      14.49962767       0.05490848       0.01935373       0.07335345
Si       3.88944331       2.64536099       8.26079060       0.05490848      -0.01935373      -0.07335345
Si       2.84237828       2.82978475      12.41602606       0.06303239      -0.01311476      -0.14831936
Si       2.84237828       2.63415914      10.34439221       0.06303240       0.01311476       0.14831936
Si       2.08522592       0.08661095      19.64099974      -0.05490847       0.01935373      -0.07335345
Si       2.08522592       5.37733293       3.11941854      -0.05490847      -0.01935373       0.07335345
Si       3.13229095       5.56175669      21.72460135      -0.06303239      -0.01311476       0.14831936
Si       3.13229095      -0.09781280       1.03581693      -0.06303239       0.01311476      -0.14831936
Si       2.93398133       3.79300869       4.59799138       0.01068495       0.02495235      -0.11009453
Si       2.93398133       1.67093519      18.16242689       0.01068495      -0.02495235       0.11009453
Si       2.98558337       3.93100995      18.20413931       0.01852531       0.00859804      -0.02386675
Si       2.98558337       1.53293393       4.55627896       0.01852531      -0.00859804       0.02386675
Si       3.04068790       1.06103675       6.78221776      -0.01068495       0.02495235       0.11009453
Si       3.04068790       4.40290713      15.97820052      -0.01068495      -0.02495235      -0.11009453
Si       2.98908586       1.19903801      15.93648810      -0.01852531       0.00859804       0.02386675
Si       2.98908586       4.26490587       6.82393017      -0.01852531      -0.00859804      -0.02386675
Si       5.45951012       3.03817259      21.17028094      -0.03317770       0.10522718      -0.07428589
Si       5.45951012       2.42577129       1.59013734      -0.03317770      -0.10522718       0.07428590
Si       0.51515910       5.15774323       9.79007180       0.03317770      -0.10522718      -0.07428589
Si       0.51515910       0.30620065      12.97034647       0.03317770       0.10522718       0.07428589
20
Lattice="5.968162882604083 -3.634868423242122e-16 -6.638433784356981e-14 3.3365257557129887e-16 5.478308112818851 3.27085041728913e-14 2.525314561609798e-13 -1.383056725316887e-13 22.70338022955678" Properties=species:S:1:pos:R:3:forces:R:3 unique_starting_index=4 config_type=initial n_minim_iter=9 energy=-3249.7752551195704 stress="0.00031627079794914535 -3.3460363436150293e-12 1.3369918783442801e-12 -3.3460363436150293e-12 0.000413498209168169 -2.6915815800102098e-12 1.3369918783442801e-12 -2.6915815800102098e-12 -0.00036816211238615827" free_energy=-3249.7752551195704 pbc="T T T"
Si       3.88860499       2.83392117      14.46892024       0.05770639      -0.01798895       0.06214250
Si       3.88860499       2.64438694       8.23445999       0.05770639       0.01798895      -0.06214250
Si       2.85083064       2.85201954      12.38263492       0.12420456      -0.07720579      -0.08647624
Si       2.85083064       2.62628857      10.32074530       0.12420456       0.07720579       0.08647624
Si       2.07955789       0.09476712      19.58615011      -0.05770639      -0.01798895      -0.06214250
Si       2.07955789       5.38354100       3.11723012      -0.05770639       0.01798895       0.06214250
Si       3.11733224       5.59117360      21.67243542      -0.12420456      -0.07720579       0.08647624
Si       3.11733224      -0.11286549       1.03094481      -0.12420456       0.07720579      -0.08647624
Si       2.92591151       3.80244448       4.59164639       0.05000203      -0.05751297      -0.12819904
Si       2.92591151       1.67586363      18.11173384       0.05000203       0.05751297       0.12819904
Si       3.00148929       3.94240616      18.17434956      -0.05593975      -0.04269121      -0.09249928
Si       3.00148929       1.53590195       4.52903067      -0.05593975       0.04269121       0.09249928
Si       3.04225138       1.06329043       6.76004373      -0.05000203      -0.05751297       0.12819904
Si       3.04225138       4.41501769      15.94333650      -0.05000203       0.05751297      -0.12819904
Si       2.96667359       1.20325211      15.88072078       0.05593975      -0.04269121       0.09249928
Si       2.96667359       4.27505600       6.82265944       0.05593975       0.04269121      -0.09249928
Si       5.42487241       3.06779492      21.10672364       0.04218270       0.12053580      -0.13432023
Si       5.42487241       2.41051319       1.59665659       0.04218270      -0.12053580       0.13432023
Si       0.54329047       5.14966725       9.75503353      -0.04218270      -0.12053580      -0.13432023
Si       0.54329047       0.32864087      12.94834670      -0.04218270       0.12053580       0.13432023
20
Lattice="5.968714544178239 -3.635204408917404e-16 -6.639047401797338e-14 3.3417227376380576e-16 5.486841140982533 3.27854400657912e-14 2.526724661239767e-13 -1.38276819157325e-13 22.71605747323479" Properties=species:S:1:pos:R:3:forces:R:3 unique_starting_index=4 config_type=initial n_minim_iter=10 energy=-3249.7914627560835 stress="0.0002669476015171229 5.583482045760065e-12 -1.6271510771798756e-12 5.583482045760065e-12 0.0003254945908692166 2.110801356739976e-12 -1.6271510771798756e-12 2.110801356739976e-12 0.00028616885708818396" free_energy=-3249.7914627560835 pbc="T T T"
Si       3.89483764       2.84347864      14.48130405       0.04407091      -0.12010572       0.03772995
Si       3.89483764       2.64336250       8.23475342       0.04407091       0.12010572      -0.03772995
Si       2.86357349       2.84864147      12.37937240       0.13175899       0.01291029       0.28353078
Si       2.86357349       2.63819967      10.33668507       0.13175899      -0.01291029      -0.28353078
Si       2.07387691       0.10005807      19.59278216      -0.04407091      -0.12010572      -0.03772995
Si       2.07387691       5.38678307       3.12327531      -0.04407091       0.12010572       0.03772995
Si       3.10514106       5.59206204      21.69471381      -0.13175899       0.01291029      -0.28353078
Si       3.10514106      -0.10522090       1.02134366      -0.13175898      -0.01291029       0.28353078
Si       2.93305668       3.81063213       4.58339430       0.04607952      -0.12843689       0.05537571
Si       2.93305668       1.67620901      18.13266317       0.04607952       0.12843689      -0.05537571
Si       3.00251332       3.94823238      18.18660910      -0.04314548      -0.02369663      -0.14488103
Si       3.00251332       1.53860876       4.52944837      -0.04314547       0.02369662       0.14488103
Si       3.03565787       1.06721156       6.77463444      -0.04607952      -0.12843689      -0.05537571
Si       3.03565787       4.41962958      15.94142304      -0.04607952       0.12843689       0.05537571
Si       2.96620123       1.20481181      15.88747711       0.04314548      -0.02369662       0.14488103
Si       2.96620123       4.28202933       6.82858037       0.04314548       0.02369663      -0.14488103
Si       5.41304200       3.09449316      21.10888607       0.01141249       0.07514513      -0.08236615
Si       5.41304200       2.39234798       1.60717140       0.01141249      -0.07514512       0.08236615
Si       0.55567254       5.13576856       9.75085733      -0.01141249      -0.07514512      -0.08236615
Si       0.55567254       0.35107259      12.96520014      -0.01141249       0.07514512       0.08236615
20
Lattice="5.957147799102668 -3.6281597626398565e-16 -6.62618162169134e-14 3.351734262472158e-16 5.503279263070043 3.2792880778135954e-14 2.51967300583849e-13 -1.3828776472294294e-13 22.652660850787715" Properties=species:S:1:pos:R:3:forces:R:3 unique_starting_index=4 config_type=initial n_minim_iter=11 energy=-3249.81654823555 stress="0.00013647021198318884 2.3850721962753625e-12 -1.5582795200867849e-12 2.3850721962753625e-12 -8.830696256739991e-05 -1.7210081472222696e-13 -1.5582795200867849e-12 -1.7210081472222696e-13 0.0001272981835938463" free_energy=-3249.81654823555 pbc="T T T"
Si       3.89931281       2.85147199      14.45057052       0.00265267      -0.03514574       0.05675156
Si       3.89931281       2.65180728       8.20209033       0.00265267       0.03514574      -0.05675156
Si       2.88583988       2.86023470      12.35155393       0.06847575      -0.02107426      -0.01997118
Si       2.88583988       2.64304457      10.30110692       0.06847575       0.02107426       0.01997118
Si       2.05783499       0.09983235      19.52842075      -0.00265267      -0.03514574      -0.05675156
Si       2.05783499       5.40344691       3.12424010      -0.00265267       0.03514574       0.05675156
Si       3.07130792       5.61187433      21.62743734      -0.06847575      -0.02107426       0.01997118
Si       3.07130792      -0.10859506       1.02522351      -0.06847575       0.02107426      -0.01997118
Si       2.93382826       3.81104759       4.56789469       0.01735386       0.09156145       0.08501886
Si       2.93382826       1.69223168      18.08476616       0.01735386      -0.09156145      -0.08501886
Si       3.00552321       3.95629656      18.13448347      -0.05857924       0.14669823      -0.06704711
Si       3.00552321       1.54698270       4.51817738      -0.05857924      -0.14669823       0.06704711
Si       3.02331954       1.05940795       6.75843573      -0.01735387       0.09156145      -0.08501886
Si       3.02331954       4.44387131      15.89422512      -0.01735386      -0.09156145       0.08501886
Si       2.95162459       1.20465693      15.84450781       0.05857924       0.14669822       0.06704711
Si       2.95162459       4.29862233       6.80815304       0.05857924      -0.14669822      -0.06704711
Si       5.37716920       3.14165942      21.02812274      -0.08377491      -0.04588018       0.04471059
Si       5.37716920       2.36161985       1.62453811      -0.08377491       0.04588018      -0.04471059
Si       0.57997860       5.11325948       9.70179231       0.08377491       0.04588018       0.04471059
Si       0.57997860       0.39001979      12.95086854       0.08377491      -0.04588018      -0.04471059
20