20
Lattice="8.161905070199388 -1.2373136424327117e-14 -2.143090093591832e-14 1.562954096953336e-14 10.308914856363511 -2.177258102319544e-14 1.562954096953635e-14 -5.154457428181734 8.927782151061619" Properties=species:S:1:pos:R:3:forces:R:3 unique_starting_index=346 config_type=initial n_minim_iter=7 energy=-3244.8058103693024 stress="-6.5634625905478736e-06 2.3947223729753202e-12 -3.238328351630823e-12 2.3947223729753202e-12 -8.103926564750873e-06 7.222054307743648e-13 -3.238328351630823e-12 7.222054307743648e-13 -8.103920320130792e-06" free_energy=-3244.8058103693024 pbc="T T T"
Si       3.18038060      -1.42730573       5.32288801       0.00011904       0.00256110       0.00201499
Si       3.18038060       1.25835406       5.03025513       0.00011904      -0.00302558       0.00121048
Si       3.18038060       0.16895167       7.50242118       0.00011904       0.00046448      -0.00322547
Si       5.59786999      -3.28170832       6.31436786       0.00337347      -0.00413424       0.00206328
Si       5.59786999       1.32690861       2.92855545       0.00337347       0.00028026      -0.00461200
Si       5.59786999       1.95479971       8.61264100       0.00337347       0.00385398       0.00254872
Si       3.94172863       2.80901280       3.33464364       0.00051456      -0.00084788      -0.00089204
Si       3.94172863       0.86206493       9.69313678       0.00051456       0.00119647      -0.00028826
Si       3.94172863      -3.67107773       4.82778390       0.00051456      -0.00034859       0.00118030
Si       5.58051135      -0.01503216       7.38923115       0.00011993       0.00076246       0.00256919
Si       5.58051135      -1.23728837       5.22014835       0.00011993      -0.00260621      -0.00062428
Si       5.58051135       1.25232053       5.24618482       0.00011993       0.00184375      -0.00194490
Si       1.52021122       5.37935459       0.36792836       0.00288657       0.00001097      -0.00398947
Si       1.52021122       7.30060226       4.47469356       0.00288656       0.00344950       0.00200424
Si       1.52021122       2.78341544       4.08516025       0.00288657      -0.00346047       0.00198524
Si      -0.18115850       0.02111039       7.42701147      -0.00124698      -0.00085551       0.00321762
Si      -0.18115850      -1.28807837       5.23255856      -0.00124698      -0.00235878      -0.00234970
Si      -0.18115850       1.26696798       5.19599429      -0.00124698       0.00321429      -0.00086792
Si       1.49706795      -5.15445743       8.92778216      -0.00918751      -0.00000000       0.00000000
Si       1.33610062       5.15445743       2.97592739      -0.00811223       0.00000000      -0.00000000
