14
Lattice="3.24091 -1.7166599047284228e-15 -6.870152901513898e-16 1.5387487901102088 9.020630356346183 -2.6429072571738304e-15 0.9208119316731704 2.671033427299333 9.399956066580199" Properties=species:S:1:pos:R:3:forces:R:3 unique_starting_index=296 config_type=initial n_minim_iter=1 energy=-2242.621509620753 stress="-0.35480082397727053 -0.01550255310536145 -0.35584914545773944 0.024631728692498665 0.0013230315588088851 0.008513230490636379" pbc="T T T"
Si       3.63350287       1.65068978       1.75007442      20.04233973      -2.03230270     -20.21385768
Si       2.06696785      10.04097400       7.64988165     -20.04233973       2.03230270      20.21385768
Si       2.80464116       9.26670206       3.47339187      -3.59432563      -1.55903606       0.38061903
Si       2.89582956       2.42496172       5.92656420       3.59432563       1.55903606      -0.38061903
Si       4.13366927       4.39824920       7.41129666       0.47014637       0.35418219      -0.21960216
Si       1.56680145       7.29341458       1.98865941      -0.47014637      -0.35418219       0.21960216
Si       1.63987451       3.87943878       4.94550677      18.63484407       1.24647842      19.29954149
Si       4.06059621       7.81222500       4.45444930     -18.63484407      -1.24647842     -19.29954149
Si       1.69346846       7.37455304       7.58228186      -0.35606241      -1.00702595       3.86369525
Si       4.00700226       4.31711074       1.81767421       0.35606241       1.00702595      -3.86369525
Si       2.50169969       1.80324194       2.87067702     -17.58509953       5.60786268      18.53923996
Si       3.19877103       9.88842184       6.52927905      17.58509953      -5.60786268     -18.53923996
Si       1.97311874       7.77644493       5.56274266      20.82788981      -0.19077775      16.16627865
Si       3.72735198       3.91521885       3.83721341     -20.82788981       0.19077775     -16.16627865
14
Lattice="3.2726642219356425 -0.0007620430695826239 -0.00011873088876633934 1.551704306226989 9.024114681762612 -0.006193657909954696 0.9288615716783843 2.6655604015091896 9.49048058055005" Properties=species:S:1:pos:R:3:forces:R:3 unique_starting_index=296 config_type=initial n_minim_iter=2 energy=-2245.0389008427187 stress="-0.32722422428945075 -0.01143230261732137 -0.3212458678260264 0.02311164483640441 0.001152464001635528 0.008411444923413398" pbc="T T T"
Si       3.67067544       1.64914614       1.76397544      18.45116251      -1.77309191     -18.52092361
Si       2.08255466      10.03976690       7.72019275     -18.45116251       1.77309191      18.52092361
Si       2.82945178       9.26747458       3.50115679      -3.38904367      -1.50454191       0.31556816
Si       2.92377832       2.42143846       5.98301140       3.38904367       1.50454191      -0.31556816
Si       4.17291247       4.39414561       7.48096313       0.42187130       0.35516576      -0.22696473
Si       1.58031763       7.29476743       2.00320506      -0.42187130      -0.35516576       0.22696473
Si       1.65673017       3.87746549       4.99335667      17.12618049       1.16286306      17.70018662
Si       4.09649993       7.81144755       4.49081153     -17.12618049      -1.16286307     -17.70018662
Si       1.70801323       7.37203946       7.65210551      -0.29896838      -0.91151884       3.41854346
Si       4.04521687       4.31687358       1.83206268       0.29896838       0.91151883      -3.41854346
Si       2.52390607       1.80202964       2.89944114     -16.04385045       5.17307689      16.93305227
Si       3.22932403       9.88688340       6.58472705      16.04385045      -5.17307689     -16.93305227
Si       1.99252208       7.77549129       5.61367838      19.21456369      -0.23895599      14.95357248
Si       3.76070802       3.91342175       3.87048981     -19.21456369       0.23895599     -14.95357248
14
Lattice="3.7197861631027873 -0.012272339686896784 -0.0017498451604243746 1.7319555982795283 9.05961903036176 -0.0949610419280663 1.0416812515903353 2.5827280733880467 10.736043585868403" Properties=species:S:1:pos:R:3:forces:R:3 unique_starting_index=296 config_type=initial n_minim_iter=3 energy=-2264.078630916878 stress="-0.062451696207416516 0.011185544295121674 -0.07831083233939244 0.0018659969929171495 -0.008449260458998973 0.001610417675955091" pbc="T T T"
Si       4.19537187       1.62437595       1.95272236       5.86381037      -0.54694413      -5.22924959
Si       2.29805115      10.00569882       8.68661034      -5.86381037       0.54694413       5.22924959
Si       3.17620205       9.26362186       3.87994325      -1.19978604      -0.54177966      -0.14803459
Si       3.31722096       2.36645290       6.75938945       1.19978604       0.54177966       0.14803459
Si       4.72453753       4.32764564       8.43856298       0.17033029      -0.00590735       0.04352962
Si       1.76888549       7.30242912       2.20076972      -0.17033029       0.00590735      -0.04352962
Si       1.89464576       3.84225199       5.65275597       5.98923859       0.63685256       5.36349691
Si       4.59877725       7.78782277       4.98657673      -5.98923859      -0.63685256      -5.36349691
Si       1.91115394       7.32422065       8.61100172       0.37872528       0.43187988       0.17044838
Si       4.58226908       4.30585412       2.02833098      -0.37872528      -0.43187988      -0.17044838
Si       2.83495058       1.78040871       3.29658897      -4.85475988       2.06684943       5.07031174
Si       3.65847243       9.84966605       7.34274373       4.85475988      -2.06684943      -5.07031174
Si       2.26568138       7.74883793       6.31397107       6.14952406      -0.22787648       5.43438385
Si       4.22774163       3.88123683       4.32536163      -6.14952406       0.22787648      -5.43438385
14
Lattice="3.889510553686898 -0.016711701613635072 0.021764993967007363 1.8001825338329236 8.98557753257357 -0.09953389717245478 1.1544474236081268 2.543767759690342 11.35750016987837" Properties=species:S:1:pos:R:3:forces:R:3 unique_starting_index=296 config_type=initial n_minim_iter=4 energy=-2266.70511576309 stress="-0.009836796267992972 0.005138099471198508 -0.02549417634253252 -0.0038453316067495595 0.0029095129098722604 -0.005088820936807316" pbc="T T T"
Si       4.41318907       1.60227479       2.07572494       3.18682209      -0.52744638      -2.44926627
Si       2.43095144       9.91035880       9.20400633      -3.18682209       0.52744638       2.44926627
Si       3.33208191       9.17881035       4.11261887      -0.60022709      -0.30418268       0.06678585
Si       3.51205861       2.33382324       7.16711240       0.60022709       0.30418268      -0.06678585
Si       4.98925683       4.27395889       8.94937211       0.15131997      -0.40093909       0.13377356
Si       1.85488368       7.23867470       2.33035915      -0.15131997       0.40093909      -0.13377356
Si       2.02894265       3.80122998       6.00042927       2.95150832       0.54077410       2.08052925
Si       4.81519786       7.71140362       5.27930200      -2.95150832      -0.54077410      -2.08052925
Si       2.04578864       7.25070417       9.11086951       0.05456298       1.04261859      -0.72363513
Si       4.79835187       4.26192942       2.16886176      -0.05456298      -1.04261860       0.72363513
Si       2.97009457       1.76144521       3.51593689      -2.41923701       1.67570358       2.67352321
Si       3.87404595       9.75118838       7.76379437       2.41923701      -1.67570358      -2.67352321
Si       2.41716068       7.67351483       6.69792691       3.19440219      -0.06646522       2.44043312
Si       4.42697983       3.83911877       4.58180436      -3.19440219       0.06646522      -2.44043312
14
Lattice="3.932617383375313 0.0036668989437820807 0.009072119547639049 1.8773702387789533 8.943055162580826 -0.06336328053185573 1.1466757621005466 2.578073292438521 11.696376998437469" Properties=species:S:1:pos:R:3:forces:R:3 unique_starting_index=296 config_type=initial n_minim_iter=5 energy=-2267.3983322529043 stress="0.005234833963972588 0.0058268663563509696 -0.007674006580222147 -0.004011439889749192 0.004996774780834217 -0.005624113135949193" pbc="T T T"
Si       4.47874076       1.62249282       2.11878815       2.22767713      -0.44254077      -1.44974448
Si       2.47792263       9.90230253       9.52329769      -2.22767713       0.44254077       1.44974448
Si       3.41146675       9.15819720       4.26722202      -0.47591300      -0.07522965       0.16290289
Si       3.54519664       2.36659815       7.37486382       0.47591300       0.07522965      -0.16290289
Si       5.04351746       4.30804471       9.21452290       0.05432094      -0.44273146       0.13974610
Si       1.91314592       7.21675064       2.42756294      -0.05432094       0.44273146      -0.13974610
Si       2.06835105       3.81399300       6.19591197       2.15631154       0.62642849       1.19721356
Si       4.88831234       7.71080236       5.44617387      -2.15631154      -0.62642849      -1.19721356
Si       2.08515363       7.25712850       9.40195962      -0.07505214       1.15376066      -1.12629971
Si       4.87150975       4.26766685       2.24012622       0.07505213      -1.15376066       1.12629971
Si       2.99305072       1.78458964       3.62803842      -1.49210071       1.60609522       1.74211183
Si       3.96361266       9.74020571       8.01404742       1.49210072      -1.60609522      -1.74211183
Si       2.48414497       7.66701957       6.93340871       2.54461332       0.09888023       1.59948041
Si       4.47251841       3.85777578       4.70867712      -2.54461333      -0.09888023      -1.59948041
14
Lattice="3.9008022713854613 0.03469171849444988 -0.022087164405478265 1.9486181179108322 8.876974929559742 -0.015475342390909938 1.072831284821812 2.6282777662669305 11.847305172693368" Properties=species:S:1:pos:R:3:forces:R:3 unique_starting_index=296 config_type=initial n_minim_iter=6 energy=-2267.8826717359248 stress="0.007939442340149485 0.005880884243699021 -0.005924043139650256 -0.0014144679672556692 0.0006951767654138545 -0.004561758293088834" pbc="T T T"
Si       4.45430417       1.65338666       2.11168907       1.82556113      -0.35147561      -1.05322855
Si       2.46794751       9.88655775       9.69805360      -1.82556113       0.35147561       1.05322855
Si       3.43665825       9.12580372       4.35788644      -0.63311622       0.09214884       0.06724269
Si       3.48559343       2.41414069       7.45185622       0.63311622      -0.09214884      -0.06724269
Si       4.97404214       4.35809874       9.31752016       0.00374944      -0.31119203       0.17398573
Si       1.94820954       7.18184567       2.49222250      -0.00374944       0.31119203      -0.17398573
Si       2.05290741       3.83245227       6.28872397       1.82174644       0.85268444       0.95314335
Si       4.86934426       7.70749214       5.52101870      -1.82174644      -0.85268444      -0.95314335
Si       2.06587341       7.26426027       9.54413388       0.11174857       0.97943683      -1.15716495
Si       4.85637827       4.27568415       2.26560878      -0.11174857      -0.97943683       1.15716495
Si       2.95006641       1.81788836       3.67122410      -1.02020639       1.66175101       1.20609556
Si       3.97218527       9.72205605       8.13851857       1.02020639      -1.66175101      -1.20609556
Si       2.49885149       7.65617897       7.06165913       2.27147236       0.25807691       1.42631680
Si       4.42340019       3.88376544       4.74808354      -2.27147236      -0.25807691      -1.42631680
14
Lattice="3.8099952861966067 0.08116646442770958 -0.030148921534121142 2.0348600577907145 8.746506579910504 0.02274624276025368 1.0619514028266641 2.640133912276918 12.069942086985058" Properties=species:S:1:pos:R:3:forces:R:3 unique_starting_index=296 config_type=initial n_minim_iter=7 energy=-2268.530592541433 stress="0.009334231488702651 0.0038003656786580672 -0.0009373911958049649 0.0014779244841668585 -0.002466444251158144 -0.0032084214302406074" pbc="T T T"
Si       4.38905748       1.68455519       2.13573214       1.56150457      -0.17619493      -0.91339445
Si       2.51774927       9.78325177       9.92680726      -1.56150457       0.17619493       0.91339445
Si       3.47605496       9.02588020       4.47354442      -1.01968486       0.26683347      -0.15189384
Si       3.43075179       2.44192675       7.58899498       1.01968486      -0.26683347       0.15189384
Si       4.90270009       4.37546846       9.49732186      -0.23561441       0.09878813       0.18015024
Si       2.00410666       7.09233849       2.56521755       0.23561441      -0.09878813      -0.18015024
Si       2.06753289       3.82088819       6.42660768       1.26441438       1.22552381       0.43274955
Si       4.83927386       7.64691877       5.63593172      -1.26441438      -1.22552381      -0.43274955
Si       2.10700195       7.20585370       9.73197512       0.51953711       0.62153234      -1.06574989
Si       4.79980479       4.26195325       2.33056429      -0.51953711      -0.62153234       1.06574989
Si       2.89000774       1.84706532       3.75421857      -0.62952960       1.74787982       0.72367692
Si       4.01679900       9.62074164       8.30832084       0.62952960      -1.74787982      -0.72367692
Si       2.56263271       7.58261146       7.23628441       1.75837985       0.33587889       1.10672298
Si       4.34417404       3.88519550       4.82625500      -1.75837985      -0.33587889      -1.10672298
14
Lattice="3.6780601218053373 0.12039342917495775 0.006876199581218096 2.081401576810477 8.64320168016023 -0.015070657070276388 1.1641830514551934 2.5574500146377885 12.106847985874536" Properties=species:S:1:pos:R:3:forces:R:3 unique_starting_index=296 config_type=initial n_minim_iter=8 energy=-2269.202951284513 stress="0.010386908403872104 0.002758874703643326 0.00014528869231451153 0.003324336918852004 -0.0032548660461812736 -0.00221267866945623" pbc="T T T"
Si       4.29687976       1.69639701       2.16119765       1.82166009      -0.02528211      -1.19823005
Si       2.62676500       9.62464811       9.93745588      -1.82166009       0.02528211       1.19823005
Si       3.50162743       8.91474808       4.46202934      -1.40777063       0.30616909      -0.34042053
Si       3.42201732       2.40629704       7.63662418       1.40777063      -0.30616909       0.34042053
Si       4.86927849       4.32132076       9.55419400      -0.34322079       0.45479218       0.14399504
Si       2.05436626       6.99972436       2.54445952       0.34322079      -0.45479218      -0.14399504
Si       2.11879038       3.76984675       6.45182871       0.82259117       1.51519037      -0.09706955
Si       4.80485437       7.55119838       5.64682482      -0.82259117      -1.51519037       0.09706955
Si       2.22097157       7.08578326       9.72361153       0.91409684       0.38018682      -0.90115136
Si       4.70267318       4.23526187       2.37504200      -0.91409684      -0.38018682       0.90115136
Si       2.83937772       1.84866677       3.79571162      -0.69058770       1.78205984       0.72653873
Si       4.08426703       9.47237835       8.30294191       0.69058770      -1.78205984      -0.72653873
Si       2.65971725       7.47193072       7.25493270       1.37789890       0.16324930       0.87005551
Si       4.26392750       3.84911440       4.84372083      -1.37789890      -0.16324930      -0.87005552
14
Lattice="3.6294462579719875 0.1288620319627377 0.022908808042160052 2.0818914426898454 8.617762438463734 -0.04959118675748437 1.2038513885678281 2.5072285732433146 12.097026825793403" Properties=species:S:1:pos:R:3:forces:R:3 unique_starting_index=296 config_type=initial n_minim_iter=9 energy=-2269.439585222295 stress="0.008468089892535117 0.0011269184997867669 -0.0008351255087004589 0.003862883187859304 -0.0027893187015539484 -0.0019562817258226613" pbc="T T T"
Si       4.26129660       1.69342688       2.16498344       1.89222483      -0.00018782      -1.31787790
Si       2.65389249       9.56042617       9.90536101      -1.89222483       0.00018782       1.31787790
Si       3.49539267       8.87608554       4.42981302      -1.48754441       0.23379344      -0.32337460
Si       3.41979642       2.37776751       7.64053143       1.48754441      -0.23379344       0.32337460
Si       4.85410560       4.28442319       9.55339651      -0.33404086       0.52211762       0.13303548
Si       2.06108349       6.96942986       2.51694793       0.33404086      -0.52211762      -0.13303548
Si       2.13177931       3.74307547       6.44057832       0.74640547       1.50318107      -0.17633310
Si       4.78340978       7.51077757       5.62976613      -0.74640547      -1.50318107       0.17633310
Si       2.25616376       7.03223012       9.69092217       0.95008547       0.30070545      -0.80853969
Si       4.65902533       4.22162292       2.37942227      -0.95008547      -0.30070545       0.80853969
Si       2.81978768       1.84046233       3.80251133      -0.74493512       1.79846704       0.77764319
Si       4.09540141       9.41339071       8.26783311       0.74493512      -1.79846704      -0.77764319
Si       2.68278527       7.42644995       7.23266089       1.23756380       0.13106743       0.85623003
Si       4.23240382       3.82740309       4.83768355      -1.23756380      -0.13106743      -0.85623003
14
Lattice="3.528980994480278 0.1479340164322375 0.05755912158753754 2.087275893173002 8.598413382450772 -0.16067901029134427 1.2915254429910914 2.3713341992761237 12.106019565275426" Properties=species:S:1:pos:R:3:forces:R:3 unique_starting_index=296 config_type=initial n_minim_iter=10 energy=-2269.96376041492 stress="0.002910660038142677 -0.0014270618509805053 -0.001343329933851897 0.0035836468412778714 0.0006611389084852142 2.88909447029303e-05" pbc="T T T"
Si       4.19328571       1.68854018       2.16914271       1.96306040       0.04362373      -1.55621745
Si       2.71449662       9.42914142       9.83375697      -1.96306040      -0.04362373       1.55621745
Si       3.48500398       8.81491928       4.33681047      -1.46085964       0.05543803      -0.22423041
Si       3.42277835       2.30276231       7.66608921       1.46085964      -0.05543803       0.22423041
Si       4.82798560       4.19392689       9.56630756      -0.29997761       0.60704674       0.09663144
Si       2.07979673       6.92375470       2.43659212       0.29997761      -0.60704674      -0.09663144
Si       2.16389834       3.68284966       6.42070920       0.53568377       1.36828391      -0.27147558
Si       4.74388399       7.43483194       5.58219047      -0.53568377      -1.36828391       0.27147558
Si       2.33799053       6.91560104       9.62236419       0.95307684       0.16133881      -0.63864748
Si       4.56979180       4.20208055       2.38053549      -0.95307684      -0.16133881       0.63864748
Si       2.78028195       1.82088365       3.82476540      -0.82009619       1.67841869       0.85748394
Si       4.12750038       9.29679795       8.17813427       0.82009619      -1.67841869      -0.85748394
Si       2.73818351       7.33619427       7.18010803       0.86151294       0.02776019       0.75707148
Si       4.16959882       3.78148733       4.82279165      -0.86151294      -0.02776019      -0.75707148
14
Lattice="3.4870274848971143 0.1468458674379877 0.04582969182346566 2.0643281093833643 8.651459842324458 -0.3156693957123664 1.244688628946414 2.2311805294759792 12.129254371183904" Properties=species:S:1:pos:R:3:forces:R:3 unique_starting_index=296 config_type=initial n_minim_iter=11 energy=-2270.4474140052475 stress="0.006057524177668718 0.0015555446568271702 0.003475488468023643 0.0012700767146833032 -0.001573075034054985 0.0004738565759472802" pbc="T T T"
Si       4.16342974       1.67328238       2.11223586       1.64097179       0.13490664      -1.26497751
Si       2.63261448       9.35620386       9.74717880      -1.64097179      -0.13490664       1.26497751
Si       3.41437489       8.81079522       4.19458223      -1.14717493      -0.01720846      -0.04938222
Si       3.38166934       2.21869101       7.66483244       1.14717493       0.01720846       0.04938222
Si       4.74292750       4.10156059       9.53563789      -0.22284384       0.63169894       0.08552974
Si       2.05311672       6.92792564       2.32377678       0.22284384      -0.63169894      -0.08552974
Si       2.13027550       3.63721257       6.38132363       0.60898095       1.12817824      -0.20632064
Si       4.66576873       7.39227367       5.47809104      -0.60898095      -1.12817824       0.20632064
Si       2.29849064       6.83711416       9.53866214       1.00097654       0.12854478      -0.66581794
Si       4.49755358       4.19237208       2.32075253      -1.00097654      -0.12854478       0.66581794
Si       2.72880479       1.79772682       3.82189517      -0.55573830       1.31759610       0.55549626
Si       4.06723943       9.23175942       8.03751950       0.55573830      -1.31759610      -0.55549626
Si       2.69967064       7.28865374       7.10081170       0.71266962      -0.06087667       0.67552877
Si       4.09637359       3.74083250       4.75860297      -0.71266962       0.06087667      -0.67552877
14
Lattice="3.4016481981136346 0.13773517208618652 0.06892135460789862 1.9984325771728175 8.593540342360418 -0.35180800699796594 1.2798970666566052 2.163639727109404 11.95233669949947" Properties=species:S:1:pos:R:3:forces:R:3 unique_starting_index=296 config_type=initial n_minim_iter=12 energy=-2270.7755919074925 stress="-0.0039916024115815765 -0.00437955811408383 -0.009226402461602331 0.0039333808920311705 0.0016242694510036453 -0.0018391240080271405" pbc="T T T"
Si       4.09131224       1.64865397       2.07802777       1.58476099       0.08102052      -1.41304182
Si       2.58866560       9.24626127       9.59142228      -1.58476099      -0.08102052       1.41304182
Si       3.32625264       8.72869052       4.10180028      -1.28768348      -0.29812329       0.02222232
Si       3.35372520       2.16622472       7.56764977       1.28768347       0.29812329      -0.02222232
Si       4.67255413       4.03114949       9.40909365      -0.16889618       0.67082173      -0.07134940
Si       2.00742371       6.86376575       2.26035640       0.16889618      -0.67082173       0.07134940
Si       2.11756690       3.59504305       6.27825511       0.40868516       1.03609162       0.09175571
Si       4.56241095       7.29987219       5.39119494      -0.40868516      -1.03609161      -0.09175571
Si       2.29846277       6.75192394       9.36426463       0.77812934      -0.09931189      -0.32188130
Si       4.38151508       4.14299130       2.30518541      -0.77812934       0.09931189       0.32188130
Si       2.67543015       1.77645652       3.78457292      -0.42720682       1.35663435       0.52041483
Si       4.00454769       9.11845872       7.88487712       0.42720682      -1.35663435      -0.52041483
Si       2.67196716       7.20630695       6.98604848       0.59645029      -0.23890389       0.69694478
Si       4.00801069       3.68860829       4.68340157      -0.59645029       0.23890389      -0.69694478
14
Lattice="3.423117580735891 0.14794896928447568 0.05933554690290265 2.03705471589153 8.660363593550093 -0.42257394722174263 1.2666120590910936 2.1158932217129918 12.10666504284205" Properties=species:S:1:pos:R:3:forces:R:3 unique_starting_index=296 config_type=initial n_minim_iter=13 energy=-2270.919023173638 stress="0.0047617733029402 0.0012894455225838403 0.0027830124961230308 0.0006062527917922669 -5.942260399857066e-05 0.0003794806412071437" pbc="T T T"
Si       4.12452123       1.66169347       2.07475916       1.45448845       0.13167082      -1.14434098
Si       2.60226312       9.26251232       9.66866748      -1.45448845      -0.13167082       1.14434098
Si       3.35674328       8.77379339       4.09086323      -1.03661018      -0.11405440       0.03694499
Si       3.37004107       2.15041240       7.65256341       1.03661018       0.11405440      -0.03694499
Si       4.69123447       4.02267536       9.50308619      -0.17146278       0.65604569       0.00353212
Si       2.03554988       6.90153043       2.24034045       0.17146278      -0.65604569      -0.00353212
Si       2.12930872       3.59530843       6.33835536       0.43905072       0.91852329      -0.13722811
Si       4.59747564       7.32889735       5.40507128      -0.43905072      -0.91852329       0.13722811
Si       2.31481433       6.75308061       9.44399089       0.92278151      -0.01679631      -0.56617055
Si       4.41197002       4.17112517       2.29943575      -0.92278151       0.01679631       0.56617055
Si       2.68711410       1.78037532       3.82257720      -0.42697618       1.04411246       0.38184229
Si       4.03967026       9.14383046       7.92084944       0.42697618      -1.04411246      -0.38184229
Si       2.69673362       7.22373377       7.03474404       0.43746906      -0.18807739       0.53548600
Si       4.03005073       3.70047202       4.70868260      -0.43746906       0.18807739      -0.53548600
14
Lattice="3.4025495779548094 0.14580228619506685 0.05931363399635037 2.0213142528622723 8.645496093370225 -0.42911725563744063 1.258935479050301 2.1043751708216947 12.06227847384342" Properties=species:S:1:pos:R:3:forces:R:3 unique_starting_index=296 config_type=initial n_minim_iter=14 energy=-2271.004302483448 stress="0.0024769505423446747 2.6468237329168316e-05 -0.00018847261109144136 0.0013324978739161467 -6.683238313608461e-05 -4.1046071228611815e-05" pbc="T T T"
Si       4.10484203       1.65682025       2.05963845       1.41007361       0.12461959      -1.14684954
Si       2.57795728       9.23885330       9.63283640      -1.41007361      -0.12461959       1.14684954
Si       3.32924344       8.75455190       4.06861048      -1.06520028      -0.15139119       0.03644333
Si       3.35355587       2.14112165       7.62386437       1.06520028       0.15139119      -0.03644333
Si       4.66163571       4.00984130       9.46609290      -0.15890732       0.66667329      -0.03935915
Si       2.02116360       6.88583225       2.22638195       0.15890732      -0.66667329       0.03935915
Si       2.11748839       3.58759292       6.31177867       0.41274245       0.90811551      -0.05841200
Si       4.56531092       7.30808063       5.38069619      -0.41274245      -0.90811551       0.05841200
Si       2.30233862       6.73557839       9.40141889       0.86731657      -0.07237951      -0.48052384
Si       4.38046069       4.16009516       2.29105597      -0.86731657       0.07237951       0.48052384
Si       2.66924722       1.77675173       3.80952323      -0.38108554       1.03307697       0.35143245
Si       4.01355209       9.11892182       7.88295163       0.38108554      -1.03307697      -0.35143245
Si       2.67982798       7.20559338       7.00677381       0.44353515      -0.22859787       0.55060488
Si       4.00297133       3.69008017       4.68570104      -0.44353515       0.22859787      -0.55060488
14
Lattice="3.388102700775672 0.14563922805463203 0.05944637429203072 2.0140011827703157 8.646065684541655 -0.45213988289132223 1.2550814264298968 2.0804640002565087 12.060628508614966" Properties=species:S:1:pos:R:3:forces:R:3 unique_starting_index=296 config_type=initial n_minim_iter=15 energy=-2271.107226863812 stress="0.002221585190863455 0.00011285822676067218 -0.0003836606108024865 0.0012272426162414627 -0.00011084331948132708 -4.1183056153060814e-05" pbc="T T T"
Si       4.09520182       1.65446106       2.04727997       1.34291650       0.12272146      -1.09463463
Si       2.56198349       9.21770785       9.62065503      -1.34291650      -0.12272146       1.09463463
Si       3.31106869       8.74506506       4.04708208      -1.03372785      -0.15578064       0.04702250
Si       3.34611662       2.12710386       7.62085292       1.03372785       0.15578064      -0.04702250
Si       4.64277540       3.99386095       9.45829041      -0.14759035       0.66815023      -0.06102761
Si       2.01440991       6.87830796       2.20964459       0.14759035      -0.66815023       0.06102761
Si       2.11223537       3.57921328       6.30355677       0.38019768       0.86388148      -0.03368090
Si       4.54494994       7.29295563       5.36437823      -0.38019768      -0.86388148       0.03368090
Si       2.29900840       6.71710354       9.38294364       0.84047725      -0.10596060      -0.46156300
Si       4.35817691       4.15506537       2.28499136      -0.84047725       0.10596060       0.46156299
Si       2.65701470       1.77333948       3.80857633      -0.34380338       0.95473416       0.29816313
Si       4.00017061       9.09882943       7.85935867       0.34380338      -0.95473416      -0.29816313
Si       2.67260035       7.19037500       6.99477811       0.39896456      -0.25719687       0.52039205
Si       3.98458496       3.68179391       4.67315689      -0.39896456       0.25719687      -0.52039205
14
Lattice="3.230007173209539 0.14376623867123914 0.06501308053342923 1.9337259370358844 8.640003793077925 -0.7174631784588458 1.2247651660973367 1.7991656839027113 12.102328583121663" Properties=species:S:1:pos:R:3:forces:R:3 unique_starting_index=296 config_type=initial n_minim_iter=16 energy=-2271.9056296777007 stress="-0.003992384066867209 0.005446565644158008 0.0017395220971747635 -8.885239126906888e-05 -0.00020630535197430162 -0.0027653345393104873" pbc="T T T"
Si       3.99430319       1.62853788       1.91347150       0.59968022      -0.12342587      -0.63719207
Si       2.39419509       8.95439784       9.53640699      -0.59968022       0.12342587       0.63719207
Si       3.11284914       8.62063232       3.82426992      -0.57436781      -0.23864352       0.03447932
Si       3.27564914       1.96230340       7.62560857       0.57436781       0.23864352      -0.03447932