22
Lattice="6.140698982941874 -1.1224169287551542 1.574752061772348 -3.6218164114804754 9.468526322186284 -2.0623971343512153 1.3242159140093859 -3.5336823102042847 8.67543896105449" Properties=species:S:1:pos:R:3:forces:R:3 unique_starting_index=18 config_type=initial n_minim_iter=1 energy=-3583.497628160757 stress="-0.001689987698971531 -0.0004258260932314631 0.0006661611859377943 -0.0004258260932314631 -0.0033360706320472743 0.0011541067776119041 0.0006661611859377943 0.0011541067776119041 -0.0002027977043699112" free_energy=-3583.497628160757 pbc="T T T"
Si       1.09981994       7.74294391       0.88757566      -0.03245842       0.02242949      -0.14521204
Si       3.05788127      -0.20276670       6.01279849      -0.02258470       0.07377984      -0.02405879
Si       0.16499868      -2.70025598       8.19187190      -0.04781019      -0.02073407      -0.12546515
Si       7.10240393      -1.68372439      10.30840809       0.01138105       0.02619910       0.05375666
Si      -0.56968728       0.44487903       7.16302977      -0.08387990      -0.12462413       0.12805659
Si       4.56149222       2.08425876       3.69551951       0.10937642       0.01733556      -0.09050795
Si       2.56344938       0.06413004       1.37953350      -0.14803548       0.00593216       0.09974177
Si       2.73169295       1.98064347       6.86275578      -0.07661446       0.04677033       0.00946019
Si       2.82638121      -3.42720414       7.98008794       0.08632202      -0.09918280      -0.05358543
Si       0.68065639       1.03694297       4.26847983      -0.17160899      -0.01607362      -0.04766756
Si       4.86320799      -0.07380214       4.58720941       0.14961683      -0.12469063       0.19179008
Si       0.70686671       4.71443529       4.58673974       0.05604644      -0.03303825       0.06535482
Si       1.32650698      -1.17964140       4.73993339       0.09755455       0.02956675       0.03092704
Si      -2.13666250       6.18726541      -0.87925269       0.02829579       0.16232598      -0.11263598
Si       4.21440956       3.40062332       5.65425214      -0.17314585       0.13856419       0.09546888
Si       1.74361676       5.52777967       0.59353662       0.09317019       0.04393730      -0.10119603
Si       2.39927755      -1.86758390       2.77199405       0.01159240      -0.05702002      -0.08153206
Si       6.49957223      -4.14309905       7.41659002      -0.03723548       0.03002915       0.15306105
Si       2.28716319       1.97859168       2.75319056       0.06597875       0.02658487      -0.02307289
Si       0.64941996       2.70770426       5.93071849       0.00922283       0.02785199       0.02998287
Si       0.97981933       3.98618185       2.30328779       0.02346159      -0.06208668      -0.15838597
Si       3.29437716      -1.14935336       8.07575519       0.05135461      -0.11385652       0.10571989
22
Lattice="6.149744878031673 -1.1254279475051991 1.5722221867131048 -3.622536831984424 9.501699384983063 -2.0715395143763335 1.3190522364492774 -3.555409635241885 8.680514298035085" Properties=species:S:1:pos:R:3:forces:R:3 unique_starting_index=18 config_type=initial n_minim_iter=2 energy=-3583.5021600460086 stress="0.0004133698027475586 -0.00028103565761091934 0.0001963492940203132 -0.00028103565761091934 0.0008160047288934883 0.000255095345596047 0.0001963492940203132 0.000255095345596047 0.0015415505045215305" free_energy=-3583.5021600460086 pbc="T T T"
Si       1.10441664       7.76885824       0.87752169      -0.03937777       0.02181131      -0.18014859
Si       3.05892584      -0.20904763       6.01214827      -0.00268916       0.08261390      -0.00932774
Si       0.15841134      -2.71912281       8.19635279      -0.05248238       0.01373201      -0.08208845
Si       7.10694439      -1.69848168      10.30783106      -0.00004091      -0.00747089       0.04839898
Si      -0.57555738       0.43739197       7.16468884      -0.09034365      -0.09070733       0.14396620
Si       4.56802626       2.08904144       3.69050383       0.11221445      -0.03626975      -0.06332576
Si       2.56661208       0.06385231       1.37823695      -0.13149823      -0.02308137       0.12818608
Si       2.73241853       1.98060421       6.86000658      -0.05897389       0.04307832      -0.01743891
Si       2.82453905      -3.44732877       7.98374190       0.10146136      -0.05135416      -0.07893127
Si       0.67896698       1.03570056       4.26756631      -0.14614123      -0.01664759      -0.05460933
Si       4.86880979      -0.07764752       4.58539613       0.12331208      -0.08407273       0.18458976
Si       0.70715453       4.72533990       4.58180168       0.05197524      -0.05846387       0.09467872
Si       1.32528838      -1.18861502       4.74148239       0.08054349       0.02630318       0.04699631
Si      -2.13698695       6.20887887      -0.88555544       0.02231949       0.12636306      -0.14239309
Si       4.21890858       3.40772423       5.64877006      -0.21384126       0.13963994       0.11598316
Si       1.74885964       5.54681279       0.58570340       0.10270587       0.05373919      -0.07890189
Si       2.40074709      -1.87632091       2.77294717       0.03265519      -0.01299274      -0.10103767
Si       6.50385154      -4.16309030       7.41896315      -0.01103361       0.03001225       0.12288029
Si       2.29026015       1.98315591       2.74981382       0.04187164       0.01247709      -0.01044630
Si       0.64770561       2.71029330       5.92838416       0.01368788       0.05254115       0.01637041
Si       0.98173875       3.99734720       2.29801474       0.03260875      -0.07146188      -0.17679115
Si       3.29418839      -1.16164756       8.07680096       0.03106665      -0.14978911       0.09339025
22
Lattice="6.1487470680220095 -1.122441400288629 1.5631400164680513 -3.612877397052601 9.505509080491981 -2.0743440752644147 1.308430581231365 -3.5675108959153987 8.655732675613779" Properties=species:S:1:pos:R:3:forces:R:3 unique_starting_index=18 config_type=initial n_minim_iter=3 energy=-3583.505208945691 stress="-0.000652621349437844 0.0003109513437634725 -0.0002772973480383673 0.0003109513437634725 0.0003509500733299305 -0.0008800699506726493 -0.0002772973480383673 -0.0008800699506726493 -0.0012784086576878102" free_energy=-3583.505208945691 pbc="T T T"
Si       1.11072461       7.77237739       0.86205544      -0.03971894       0.00121120      -0.18942141
Si       3.05407025      -0.21389698       5.98995977       0.02009838       0.09159385      -0.02325110
Si       0.14836677      -2.73121140       8.17243904      -0.05357743       0.02967982      -0.03413966
Si       7.09792852      -1.70664044      10.27042558       0.01377894      -0.01931825       0.05760131
Si      -0.58223799       0.42674713       7.14211545      -0.09493963      -0.09376825       0.12469063
Si       4.56847274       2.08903864       3.67109653       0.09161559      -0.06608225      -0.05630077
Si       2.56512590       0.06425507       1.37218403      -0.10475960      -0.04940714       0.15147340
Si       2.72835585       1.97506417       6.83239825      -0.04472790       0.06124445      -0.03655621
Si       2.81564244      -3.45748940       7.95926907       0.08009111      -0.02605122      -0.11468417
Si       0.67526224       1.03093490       4.25125438      -0.10935268      -0.03579575      -0.06358636
Si       4.86667521      -0.08004721       4.56743258       0.08538784      -0.04559802       0.17436934
Si       0.70792502       4.72161299       4.56041181       0.06709336      -0.06868091       0.11403173
Si       1.32088412      -1.19414598       4.72668371       0.03989197       0.01084734       0.06990283
Si      -2.13087248       6.21186571      -0.89003637       0.00971406       0.09935735      -0.15893472
Si       4.21660783       3.40646497       5.62270549      -0.22538237       0.13170178       0.15258482
Si       1.75448226       5.55050028       0.57419938       0.09925550       0.05024453      -0.04228473
Si       2.39732439      -1.87887201       2.76362487       0.06055692       0.00784430      -0.09012350
Si       6.49487241      -4.16883504       7.39540151      -0.01018624       0.05149688       0.05390472
Si       2.29048403       1.98255685       2.73602483       0.02917531       0.01885833       0.00481408
Si       0.64516310       2.70445527       5.90489494       0.01062706       0.09565982       0.01073270
Si       0.98378253       3.99650604       2.28308608       0.04740410      -0.07189281      -0.21618375
Si       3.28697870      -1.17100200       8.04966907       0.02795464      -0.17314506       0.11136083
22
Lattice="6.175333822456516 -1.114253925818843 1.5524926183137449 -3.620043853779315 9.49215683683725 -2.0538898034890596 1.3033009898998469 -3.5518754907322374 8.632206773144313" Properties=species:S:1:pos:R:3:forces:R:3 unique_starting_index=18 config_type=initial n_minim_iter=4 energy=-3583.5174682408915 stress="0.0016613842491310278 0.0008685736209152203 -0.0007700520604664232 0.0008685736209152203 -0.00020943235016759437 0.0007678328992110605 -0.0007700520604664232 0.0007678328992110605 -0.0013938858429845475" free_energy=-3583.5174682408915 pbc="T T T"
Si       1.12026228       7.76883097       0.86349408      -0.08744750       0.01247052      -0.10824436
Si       3.06268518      -0.20007279       5.97401331       0.04958580       0.07722524      -0.04711272
Si       0.13710347      -2.71732426       8.14979309      -0.09061040       0.09564088       0.01281855
Si       7.12036177      -1.68567812      10.24232303       0.04131034      -0.04032878       0.04425950
Si      -0.59473645       0.43219689       7.13347074      -0.13861798      -0.06161046       0.10504346
Si       4.59184452       2.09479231       3.65982441       0.04204596      -0.02976796       0.00122565
Si       2.57165760       0.06715411       1.37163164      -0.04151821      -0.02328650       0.09451632
Si       2.73435555       1.98683655       6.81786043      -0.07768411       0.05296149      -0.04844673
Si       2.82156053      -3.44324853       7.93271532       0.07433992      -0.08236065      -0.13402410
Si       0.67051423       1.03558485       4.24144424      -0.04147283      -0.01366651      -0.01373880
Si       4.88903591      -0.07227276       4.55960817      -0.01758836      -0.07979906       0.11066296
Si       0.71282383       4.72259223       4.56024830       0.12679118      -0.00872214       0.06313680
Si       1.32387428      -1.18498072       4.71611618       0.08181574      -0.00172105       0.03856952
Si      -2.13426208       6.20816895      -0.88284318      -0.02642421       0.06190905      -0.16103442
Si       4.22647331       3.41966111       5.61625290      -0.18281745       0.06899865       0.12429859
Si       1.77032254       5.55017219       0.57645812       0.15437996       0.03535206      -0.02770571
Si       2.40587109      -1.87197649       2.74995705       0.08463187      -0.01366670      -0.00428524
Si       6.51443539      -4.14871006       7.37195343      -0.07350931       0.06506647      -0.02542173
Si       2.30170121       1.98722816       2.73072373       0.04015986       0.01280679       0.03774339
Si       0.64517767       2.71319673       5.89651850       0.02296933       0.04411405      -0.00018170
Si       0.99086739       3.99484457       2.27632301       0.03844733      -0.05269864      -0.18706126
Si       3.29487134      -1.16180301       8.03219580       0.02121304      -0.11891675       0.12498204
22
Lattice="6.181209130050295 -1.1325450449911072 1.5658084547862772 -3.6450679494325637 9.506316269637184 -2.087148084116953 1.3244467103717892 -3.5792608504604857 8.649573704555603" Properties=species:S:1:pos:R:3:forces:R:3 unique_starting_index=18 config_type=initial n_minim_iter=5 energy=-3583.535775027733 stress="-0.0010967212185202984 -3.0411604051473165e-05 -3.070462407907463e-05 -3.0411604051473165e-05 0.00015212377802170971 -0.0004091544741096539 -3.070462407907463e-05 -0.0004091544741096539 0.0001379328075538361" free_energy=-3583.535775027733 pbc="T T T"
Si       1.10043111       7.76530425       0.82993333      -0.01065865       0.05237660      -0.00320280
Si       3.07346632      -0.21674305       5.98112289       0.05489862      -0.03069537       0.21106890
Si       0.15054815      -2.73842284       8.15792664      -0.14749221       0.10392058       0.10368966
Si       7.14171631      -1.73167851      10.26847088       0.06380512      -0.00928043      -0.03633643
Si      -0.59347705       0.40558704       7.14683743      -0.09545173      -0.02541372       0.14642033
Si       4.60144762       2.07097963       3.65855516      -0.01945251      -0.05638708       0.20650546
Si       2.56450655       0.05506778       1.38681105      -0.03010643      -0.04533186      -0.07408037
Si       2.73554628       1.96579770       6.81862826      -0.12144261       0.03213699      -0.00179421
Si       2.84920972      -3.47656526       7.94363129       0.06756831      -0.16636818      -0.04243475
Si       0.66432530       1.02025661       4.23804697       0.17556867      -0.03033132       0.11241972
Si       4.90474923      -0.10265003       4.58433490      -0.15010097      -0.03251753      -0.16510099
Si       0.71496061       4.70385469       4.55874751       0.16693277      -0.01986407      -0.07811873
Si       1.33974380      -1.19983323       4.72865523       0.02354333       0.00264247      -0.02706996
Si      -2.14886787       6.22519651      -0.91627185      -0.00452093      -0.04394419      -0.14346023
Si       4.21026568       3.40500909       5.62710833      -0.07148765       0.03314960       0.02414369
Si       1.76820090       5.54884953       0.55868639       0.07216789       0.04284692      -0.03243602
Si       2.41858995      -1.88615269       2.75377273      -0.00306714       0.00070317       0.10160891
Si       6.53392588      -4.18073838       7.40484570      -0.05972982       0.10467519      -0.12576395
Si       2.30515728       1.97577475       2.73032089       0.02437406       0.04955482       0.07129877
Si       0.64918169       2.70041270       5.89476043       0.04845073      -0.00483432      -0.07318350
Si       0.98864954       3.98065077       2.25232802       0.03810757      -0.01985055      -0.05901413
Si       3.31269150      -1.20450707       8.05433763      -0.02190639       0.06281226      -0.11515937
22
Lattice="6.239606184406168 -1.1435883528211357 1.5737484794579297 -3.6976282301745718 9.50202001620643 -2.0963610074004544 1.3601196096794694 -3.585441632873231 8.623692232368992" Properties=species:S:1:pos:R:3:forces:R:3 unique_starting_index=18 config_type=initial n_minim_iter=6 energy=-3583.545785457019 stress="0.0031771688459550675 -0.0004979072889877661 0.0019277334402866865 -0.0004979072889877661 -0.0006683218436076285 -0.00013221576600095847 0.0019277334402866865 -0.00013221576600095847 -0.000966653876840158" free_energy=-3583.545785457019 pbc="T T T"
Si       1.09460915       7.75454377       0.81226519      -0.11188913      -0.00873343       0.02283467
Si       3.11505826      -0.22428947       5.97045915       0.01943969      -0.06687799       0.12530905
Si       0.16549380      -2.73815298       8.13063655      -0.24056262       0.14899080       0.12046758
Si       7.23026179      -1.75340199      10.24828249       0.07015444       0.05360399      -0.06403594
Si      -0.59329970       0.39307704       7.13026984      -0.13946631      -0.05601497       0.14410126
Si       4.64950921       2.05261566       3.65575920      -0.08834174      -0.03797265       0.20863001
Si       2.58228134       0.04623224       1.39136064       0.05925614      -0.05333778      -0.14909265
Si       2.76230554       1.95522326       6.79540170      -0.19993305       0.03456083       0.00326119
Si       2.90356034      -3.49333443       7.91684381       0.07595038      -0.23884100      -0.07402552
Si       0.67580537       1.01138581       4.22347980       0.08782529      -0.07565502       0.05280525
Si       4.95679653      -0.12139334       4.58168228      -0.06681931      -0.01308783      -0.07913733
Si       0.73160660       4.68843590       4.54105209       0.27260465       0.06585800      -0.10367306
Si       1.36821405      -1.20430791       4.71682081       0.06754303       0.07193670       0.00574989
Si      -2.17993673       6.22646103      -0.93599133      -0.08429823      -0.04033664      -0.06495006
Si       4.23817483       3.39507516       5.61885913      -0.05896177       0.08417497       0.01667572
Si       1.78341813       5.54163986       0.55018047       0.14468483       0.05044624      -0.00397575
Si       2.45108531      -1.89146219       2.74934226       0.07048008      -0.04198167       0.09928976
Si       6.60934377      -4.18850299       7.39533562      -0.08812906       0.02147052      -0.18520112
Si       2.33027506       1.96863105       2.72516155       0.08112542       0.07729370       0.09342772
Si       0.66453516       2.69270840       5.86994519       0.11296393      -0.03487273      -0.05600531
Si       0.99798479       3.96698646       2.22995939       0.03886255      -0.03454509      -0.02287283
Si       3.36106748      -1.22297002       8.03479272      -0.02248921       0.09392104      -0.08958252
22
Lattice="6.277515825367458 -1.1447660112824947 1.5302955926022972 -3.719002241195946 9.497899170092257 -2.053312503861262 1.320006766233795 -3.5711231368172203 8.585452163335745" Properties=species:S:1:pos:R:3:forces:R:3 unique_starting_index=18 config_type=initial n_minim_iter=7 energy=-3583.5671833830497 stress="0.0035885288966445218 -0.00018399913472595317 -0.0017875952793641131 -0.00018399913472595317 5.045737623173077e-05 0.0034602874626673747 -0.0017875952793641131 0.0034602874626673747 0.000150597655345221" free_energy=-3583.5671833830497 pbc="T T T"
Si       1.08429504       7.75823074       0.79607968      -0.04767567      -0.11672985       0.20737701
Si       3.10765207      -0.20953476       5.94822733       0.13019911      -0.00968063      -0.06512779
Si       0.09730769      -2.71104928       8.10418591      -0.30973391       0.21746504       0.04275520
Si       7.23019880      -1.74256615      10.17610200       0.10344916       0.06114270       0.05976315
Si      -0.66329709       0.39128035       7.14215061      -0.17349291       0.06641390       0.13140058
Si       4.66961057       2.04586634       3.63176684      -0.12079684       0.09238005       0.22800563
Si       2.57793338       0.03973279       1.38012643       0.15257672       0.06509510      -0.15185434
Si       2.72081544       1.97273428       6.75971984      -0.10844605      -0.05227901       0.01662086
Si       2.89658595      -3.50321895       7.85613642       0.07186217      -0.27427849      -0.19734948
Si       0.65345979       1.01182975       4.21197644       0.13957621       0.00217430       0.01018446
Si       4.96511325      -0.12947739       4.54676015      -0.18957954      -0.01977706      -0.02477621
Si       0.73090369       4.68729897       4.53515741       0.22621997       0.16608705      -0.29159662
Si       1.36229158      -1.19398505       4.69732023       0.10319827       0.00258185      -0.08934675
Si      -2.19479696       6.23451917      -0.93915835       0.05920439      -0.10866218       0.03666329
Si       4.20127396       3.41880107       5.60002921       0.06512399      -0.00687615      -0.01407852
Si       1.81091613       5.54912960       0.53668013       0.01421815       0.06298191       0.05044029
Si       2.46058036      -1.89018108       2.72309343      -0.03458244      -0.12649014       0.17289544
Si       6.60749256      -4.16636750       7.32689723      -0.03697800       0.10039744      -0.16700235
Si       2.33773151       1.97725127       2.71292941       0.05297522      -0.04837484       0.07816206
Si       0.63860293       2.70725139       5.84932929      -0.01851500      -0.11827793      -0.08193154
Si       0.99714533       3.95872452       2.19705046       0.01672450       0.03641370       0.07423389
Si       3.33989532      -1.22381533       7.99370813      -0.09552751       0.00829323      -0.02543825
22
Lattice="6.28761131183558 -1.1240267121936418 1.5501493073390007 -3.6914991444154985 9.471030865669533 -2.10423183505614 1.3244506770581275 -3.593992705968376 8.623149710185306" Properties=species:S:1:pos:R:3:forces:R:3 unique_starting_index=18 config_type=initial n_minim_iter=8 energy=-3583.589371882344 stress="0.0026345934787133365 0.003228340002535827 -0.00024290346340999334 0.003228340002535827 -0.0016621225454951706 0.0009682851186564737 -0.00024290346340999334 0.0009682851186564737 0.0024819600734848333" free_energy=-3583.589371882344 pbc="T T T"
Si       1.11455740       7.74410859       0.76013397      -0.04332612      -0.04741490       0.17388742
Si       3.12936649      -0.21927949       5.97957138       0.07796297      -0.12586106      -0.13773043
Si       0.08397578      -2.72774985       8.13845346      -0.30647923       0.17469711      -0.02977483
Si       7.26235137      -1.75263961      10.22211930       0.05792916       0.09659386       0.12890813
Si      -0.66402631       0.35098997       7.17508803      -0.16619974      -0.01207284       0.12719102
Si       4.69602099       2.03951663       3.65283155      -0.11294759       0.12128140       0.15875329
Si       2.57931641       0.03991548       1.38861601       0.12780557       0.02628150      -0.18728043
Si       2.73329375       1.95531430       6.77151369       0.00360333       0.02871916       0.08621946
Si       2.91377904      -3.53441016       7.88394929       0.05685919      -0.17757752      -0.13519658
Si       0.67150805       0.99060619       4.22235300       0.04278879       0.05237624      -0.16579682
Si       4.97747143      -0.13495949       4.56790372      -0.01490316       0.00988804       0.09344336
Si       0.77869434       4.65913601       4.52490900       0.23643437       0.09948532      -0.33328740
Si       1.37615074      -1.20364427       4.71668134       0.10401998      -0.04656326       0.03912808
Si      -2.17473094       6.21903758      -0.98751640       0.14319192      -0.01504521       0.14636962
Si       4.21707227       3.41474012       5.61585369       0.10541675      -0.09823086       0.02834534
Si       1.84952233       5.54847451       0.51342689      -0.08480408      -0.04029467       0.05661944
Si       2.46547190      -1.89028763       2.74508606      -0.06693089      -0.16451434      -0.00459535
Si       6.61153074      -4.15229222       7.36836196      -0.00771246       0.19264740      -0.09142180
Si       2.36052148       1.97453582       2.72089921       0.07066434      -0.09948477       0.08835418
Si       0.66628357       2.68145840       5.84869037      -0.07631439      -0.03238005      -0.10180932
Si       1.02436256       3.93980697       2.17412024      -0.00615323       0.11755944       0.12007150
Si       3.35568037      -1.24618103       8.02271472      -0.14090549      -0.06008999      -0.06039786
22
Lattice="6.299444291504176 -1.1796964758934987 1.561149825772771 -3.7673905402813737 9.538593817886209 -2.1364876568437263 1.3717877734656114 -3.6471501678318408 8.596145656351423" Properties=species:S:1:pos:R:3:forces:R:3 unique_starting_index=18 config_type=initial n_minim_iter=9 energy=-3583.621394287119 stress="-0.0022305600169734226 -0.0003239323640206535 0.0015891229303596247 -0.0003239323640206535 0.0022265078427808616 -0.0003251522240684828 0.0015891229303596247 -0.0003251522240684828 -0.0007431013571302979" free_energy=-3583.621394287119 pbc="T T T"
Si       1.05098373       7.76262091       0.72188333       0.06617622      -0.19568004       0.12157612
Si       3.15446415      -0.26307962       5.97435379      -0.06443425       0.00853718      -0.19356509
Si       0.09141368      -2.74780305       8.11383410      -0.33077783       0.11102582      -0.14140525
Si       7.30988707      -1.84703031      10.19715158       0.01631180       0.16614983       0.16502104
Si      -0.67386648       0.32079156       7.16670846      -0.11505093       0.04069207       0.20345007
Si       4.69080577       1.99209024       3.66062264      -0.09835221       0.13598780       0.11196378
Si       2.57465442       0.00986884       1.38514701       0.11099451       0.01861974      -0.07346812
Si       2.71332365       1.92502779       6.73632695       0.05892465      -0.12327704       0.12078711
Si       2.97632297      -3.62598300       7.84670160       0.07278909      -0.07391681      -0.22260710
Si       0.68385384       0.96800904       4.20330623      -0.13937522      -0.04237438      -0.29683517
Si       4.97974176      -0.19703302       4.55712045       0.29455250       0.12876216       0.22561661
Si       0.78679365       4.65161684       4.47780796       0.03693103       0.02131207      -0.34294400
Si       1.40775355      -1.23233208       4.70185206       0.01208098       0.09353861       0.08114488
Si      -2.22078240       6.26333456      -1.03331260       0.17105157      -0.07276612       0.31392286
Si       4.18105840       3.39028785       5.59858112       0.10821211       0.11092061      -0.00717622
Si       1.82523612       5.56217103       0.48860011      -0.24239137       0.06359290       0.09977840
Si       2.48897439      -1.93045171       2.74978181      -0.10529162      -0.14584589      -0.17085859
Si       6.65131107      -4.22416559       7.35125402       0.27802806       0.05125632       0.09649970
Si       2.36071963       1.95924367       2.71533586       0.10241409      -0.12478766      -0.04731169
Si       0.66599071       2.66761505       5.80254017      -0.07601872       0.03911466      -0.17975561
Si       1.00784832       3.93208588       2.13275559       0.01637684       0.06588949       0.16907488
Si       3.38052936      -1.31058171       7.99056884      -0.17315131      -0.27675131      -0.03290864
22
Lattice="6.324428345037368 -1.1998751892870068 1.5468191955938697 -3.8062005967193904 9.517625925943344 -2.160115964496102 1.3608363985664214 -3.667151741568195 8.611934762967882" Properties=species:S:1:pos:R:3:forces:R:3 unique_starting_index=18 config_type=initial n_minim_iter=10 energy=-3583.6337615820566 stress="-0.0008323991244634918 -0.001729885559610897 -0.0005665876367396706 -0.001729885559610897 -0.0007915845937747767 -0.002664058843826159 -0.0005665876367396706 -0.002664058843826159 0.0007161504762307458" free_energy=-3583.6337615820566 pbc="T T T"
Si       1.02639064       7.72327609       0.68924897       0.01566172      -0.15755541       0.04389001
Si       3.15162375      -0.29247369       5.97387441       0.05888907      -0.02426923      -0.20207870
Si       0.06016447      -2.75837124       8.13068022      -0.39205735      -0.01264857      -0.15193172
Si       7.31656436      -1.89718037      10.19169006       0.02975839       0.26986385       0.24790844
Si      -0.71076200       0.29201782       7.18566902      -0.11250293      -0.01493080       0.20556189
Si       4.69222184       1.95468731       3.64981714      -0.08875541       0.15602627       0.06058370
Si       2.57896628      -0.00501756       1.37733142       0.13438635      -0.05623786      -0.09171983
Si       2.68978894       1.88566174       6.72723883       0.07179883      -0.06700430       0.10793907
Si       2.98127520      -3.65884851       7.84885410       0.09987171      -0.15766185      -0.28096507
Si       0.67145087       0.94439931       4.20015397      -0.12955811      -0.06424479      -0.39564259
Si       4.98582547      -0.23059833       4.54846122       0.25825340       0.15969941       0.35538622
Si       0.77216271       4.61285331       4.45718574      -0.03164287       0.03512713      -0.30448687
Si       1.40651091      -1.24704642       4.70684858       0.00552885       0.06111146      -0.01465240
Si      -2.24403726       6.24837821      -1.05515067       0.09441264      -0.03545581       0.19890216
Si       4.16183336       3.34865734       5.58294949       0.07385910       0.11916888       0.04411460
Si       1.81775391       5.53501712       0.46194794      -0.16358759      -0.01299054       0.12440783
Si       2.49686696      -1.94309680       2.75154795      -0.05038644      -0.05352821      -0.09465667
Si       6.66749505      -4.24718856       7.34889931       0.33299167       0.04223677       0.16393068
Si       2.35946520       1.93436586       2.70613693       0.06448400      -0.09636179      -0.01176425
Si       0.64271050       2.63456420       5.79171228      -0.11395822       0.07278269      -0.07435139
Si       0.99556966       3.90289812       2.11186129       0.03180990       0.04861016       0.13799526
Si       3.37028005      -1.34943974       7.99037448      -0.18925674      -0.21173745      -0.06837038
22
Lattice="6.432233613812818 -1.1872341088158727 1.5105974676973741 -3.855844982980232 9.459777880921298 -2.1322597021931795 1.349499992879346 -3.6487273772559417 8.532012196665073" Properties=species:S:1:pos:R:3:forces:R:3 unique_starting_index=18 config_type=initial n_minim_iter=11 energy=-3583.748417157259 stress="0.0017878369136136607 0.0011395307656897914 -0.0019328563913324768 0.0011395307656897914 -0.002743394261942596 -0.0006920234625251244 -0.0019328563913324768 -0.0006920234625251244 -3.972763277656147e-05" free_energy=-3583.748417157259 pbc="T T T"
Si       1.03521684       7.66904594       0.65693961      -0.16562426       0.23655268       0.21167723
Si       3.20866829      -0.28210157       5.92086855       0.00993287       0.03775636      -0.26995922
Si      -0.08571442      -2.69398466       8.05569496      -0.04777738       0.07725855      -0.12036070
Si       7.43671769      -1.86237383      10.10286030      -0.09816425       0.06059417       0.35664459
Si      -0.82508467       0.25978026       7.21545819      -0.22458383      -0.05774140       0.26013406
Si       4.76471458       1.94565222       3.65215822      -0.14380767       0.31629727      -0.03328716