6
Lattice="3.8506148572032157 0.42679332383367546 0.005389728858067575 -0.4984112603178915 4.50144938018509 -0.29910622809104026 -0.4081908239279403 -1.1435251149362438 11.770855672510406" Properties=species:S:1:pos:R:3:forces:R:3 unique_starting_index=148 config_type=initial n_minim_iter=17 energy=-974.415086850735 stress="3.9533031813569177e-05 1.804866736158814e-05 -1.813028042840076e-06 1.804866736158814e-05 2.5748806689743628e-05 -3.567746871219924e-07 -1.813028042840076e-06 -3.567746871219924e-07 2.5699103136214747e-05" free_energy=-974.415086850735 pbc="T T T"
Si       2.02986411       2.26012010       4.03832254      -0.00055323      -0.00109756      -0.00376024
Si       2.05636932       2.04097289       1.60353701       0.00198203       0.00150415       0.00241963
Si       0.07682657       2.24605673       7.64328863       0.00216366      -0.00560134       0.00283824
Si       2.13286052       1.29885615       6.45462205      -0.00595816       0.00563537      -0.00517981
Si       0.35650928      -0.26547477       6.71798282       0.00374675       0.00260400       0.00190775
Si       0.23101397       0.91666977       2.83511686      -0.00138107      -0.00304462       0.00177443
