22
Lattice="9.08103379895962 -1.6634433330986315e-13 -8.174701644170992e-14 4.540516899479953 7.864405962524059 5.1770499714189044e-14 4.540516899479942 2.62146865417452 9.382601638945834" Properties=species:S:1:pos:R:3:forces:R:3 unique_starting_index=186 config_type=initial n_minim_iter=8 energy=-3575.5296829781623 stress="-1.8536332103535793e-05 -3.86811919070116e-13 -4.691107511855503e-12 -3.86811919070116e-13 -1.853633077286188e-05 2.9786326691925916e-12 -4.691107511855503e-12 2.9786326691925916e-12 -1.523057173400119e-05" free_energy=-3575.5296829781623 pbc="T T T"
Si      12.41290292       5.27235156       2.34239897      -0.00064755      -0.00047590      -0.00190126
Si       7.44057273       2.34274688       2.34239897      -0.00008837       0.00079874      -0.00190126
Si       7.38962575       8.11371348       2.34239897       0.00073591      -0.00032284      -0.00190126
Si       5.74092450       6.63313287       3.14915511       0.00412059      -0.00383544      -0.00083452
Si      11.95503312       7.44045903       3.14915511      -0.00538189      -0.00165082      -0.00083452
Si       9.54714378       1.65522002       3.14915511       0.00126129       0.00548626      -0.00083452
Si       3.11464665       3.10311097       4.31151022      -0.00364275       0.00039189      -0.00309414
Si       5.67056650       3.61548736       4.31151022       0.00216076       0.00295877      -0.00309414
Si       4.83633755       1.14580764       4.31151022       0.00148199      -0.00335066      -0.00309414
Si       5.57258936       5.76863549       5.45683298      -0.00401649       0.00374830       0.00207509
Si      11.29052400       8.01849023       5.45683298       0.00525437       0.00160423       0.00207509
Si      10.37998804       1.94168620       5.45683298      -0.00123788      -0.00535253       0.00207509
Si       5.61451577       4.49092991       2.09683045      -0.00096916       0.00429347      -0.00238369
Si       5.62251840       0.75662772       2.09683045       0.00420283      -0.00130742      -0.00238369
Si       2.38451652       2.61684834       2.09683045      -0.00323368      -0.00298605      -0.00238369
Si       3.05285538       4.02579596       0.34971744      -0.00172848      -0.00016903       0.00470249
Si       6.50053078       3.20765767       0.34971744       0.00071785       0.00158143       0.00470249
Si       4.06816454       0.63095234       0.34971744       0.00101063      -0.00141239       0.00470249
Si       7.23334897       7.94436119       4.77020830      -0.00030435      -0.00379666      -0.00015755
Si      12.34437792       5.49236736       4.77020830      -0.00313583       0.00216190      -0.00015755
Si       7.66537450       2.29208337       4.77020830       0.00344018       0.00163476      -0.00015755
Si      13.62155070       7.86440596       8.55350683       0.00000000      -0.00000000       0.00478074
