8
Lattice="7.296851905816147 -1.6944908282596662 0.38471193497555706 -3.00795684513263 6.860578876471632 -0.38471193497554335 -2.317355428369243 -2.4394955938658405 3.8673091744982853" Properties=species:S:1:pos:R:3:forces:R:3 unique_starting_index=38 config_type=initial n_minim_iter=19 energy=-1304.1722575105773 stress="2.1153437903522284e-05 -8.738253259017312e-07 2.774306260344434e-05 -8.738253259017312e-07 2.082634783696383e-05 -2.303233328525209e-05 2.774306260344434e-05 -2.303233328525209e-05 1.1215489401389755e-05" free_energy=-1304.1722575105773 pbc="T T T"
Si       3.64827415       2.89397208       2.06648085       0.00635124      -0.00187237      -0.00073983
Si      -0.14394369       1.67890976       1.80082824      -0.00300884       0.00589839       0.00073983
Si      -1.67673598      -0.16737928       1.80082824      -0.00635124       0.00187237       0.00073983
Si       2.11548186       1.04768303       2.06648085       0.00300884      -0.00589839      -0.00073983
Si       2.34538487      -0.38738471       3.92786936       0.00264759      -0.00005659       0.00035250
Si       1.15928994       4.96068131      -0.06056027      -0.00054269       0.00259199      -0.00035250
Si      -0.37384670       3.11397750      -0.06056027      -0.00264759       0.00005659      -0.00035250
Si       0.81224823      -2.23408852       3.92786936       0.00054269      -0.00259199       0.00035250
