20
Lattice="5.91582823299509 -3.6029943660073723e-16 -6.580221548382053e-14 3.3541892147544435e-16 5.507310098133374 3.1888167971521767e-14 2.498894912552188e-13 -1.2389829673488736e-13 22.465859190712226" Properties=species:S:1:pos:R:3:forces:R:3 unique_starting_index=4 config_type=initial n_minim_iter=19 energy=-3249.935544120316 stress="-2.597748565414208e-06 -6.855788667394472e-12 -2.953700209163489e-12 -6.855788667394472e-12 -2.8256890756939595e-06 -5.052126423276542e-14 -2.953700209163489e-12 -5.052126423276542e-14 -1.7756164991559397e-05" free_energy=-3249.935544120316 pbc="T T T"
Si       4.10465157       2.84652914      14.39253633       0.00286292      -0.00213113       0.00124750
Si       4.10465157       2.66078096       8.07332286       0.00286292       0.00213113      -0.00124750
Si       3.18765304       2.84184825      12.25482878       0.00239904       0.00419660       0.00042177
Si       3.18765304       2.66546185      10.21103042       0.00239904      -0.00419660      -0.00042177
Si       1.81117666       0.09287409      19.30625246      -0.00286292      -0.00213113      -0.00124750
Si       1.81117666       5.41443601       3.15960673      -0.00286292       0.00213113       0.00124750
Si       2.72817519       5.59550329      21.44396001      -0.00239904       0.00419660      -0.00042177
Si       2.72817519      -0.08819320       1.02189918      -0.00239904      -0.00419660       0.00042177
Si       2.76948030       3.82425565       4.53307694      -0.00260348      -0.00463103       0.00504132
Si       2.76948030       1.68305445      17.93278225      -0.00260348       0.00463103      -0.00504132
Si       2.81794584       3.96141332      17.97624272       0.00983684       0.00061389       0.00138889
Si       2.81794584       1.54589678       4.48961648       0.00983684      -0.00061389      -0.00138889
Si       3.14634794       1.07060060       6.69985265       0.00260348      -0.00463103      -0.00504132
Si       3.14634794       4.43670950      15.76600654       0.00260348       0.00463103       0.00504132
Si       3.09788239       1.20775827      15.72254607      -0.00983684       0.00061389      -0.00138890
Si       3.09788239       4.29955183       6.74331312      -0.00983684      -0.00061389       0.00138889
Si       5.05344832       3.16188193      20.83058483      -0.00050582      -0.00087635       0.00181868
Si       5.05344832       2.34542817       1.63527436      -0.00050582       0.00087635      -0.00181868
Si       0.86237991       5.09908321       9.59765524       0.00050582       0.00087635       0.00181868
Si       0.86237991       0.40822688      12.86820395       0.00050582      -0.00087635      -0.00181868
