10
Lattice="7.973706689849699 -1.0672337908041538 -3.680474044547251e-15 -3.932185713151679 7.018326143552602 7.235269070910599e-15 -2.0207604883490116 -2.9755461763742277 7.034324825930726" Properties=species:S:1:pos:R:3:forces:R:3 unique_starting_index=26 config_type=initial n_minim_iter=16 energy=-1625.4432824500523 stress="-2.171812200456205e-05 1.953146270788817e-05 3.5263098720310657e-14 1.953146270788817e-05 -6.222528325071066e-06 -1.6961530596852082e-14 3.5263098720310657e-14 -1.6961530596852082e-14 -3.031203490214747e-05" free_energy=-1625.4432824500523 pbc="T T T"
Si       1.64798972       5.40277796       1.16662355      -0.00381502       0.00101628      -0.00765205
Si       2.39353086       0.54831380       1.16662355       0.00381502      -0.00101628      -0.00765205
Si       2.39365178       0.54849186       5.86770128       0.00235138      -0.00317147       0.00765205
Si      -2.39365218      -0.54849246       5.86770128      -0.00235138       0.00317147       0.00765205
Si       4.53645452       3.44226364       0.93111475      -0.00386829      -0.00495566      -0.00012800
Si      -0.49493394       2.50882812       0.93111475       0.00386829       0.00495567      -0.00012800
Si      -0.49378379       2.51052170       6.10321008      -0.00318011      -0.00542302       0.00012800
Si       0.49378339      -2.51052229       6.10321008       0.00318011       0.00542302       0.00012800
Si       5.63922172      -1.65577794       3.51716242      -0.00036982       0.00025115       0.00000000
Si       2.33448457       0.58854356       3.51716242       0.00036982      -0.00025115      -0.00000000
