10
Lattice="6.579941415846409 -5.44224961636638e-34 -2.3627253972377614e-31 4.958716846088326e-34 5.995327051345163 -6.021252072580732e-14 4.5244255516658025e-31 1.2654533889603617e-13 12.600048700167994" Properties=species:S:1:pos:R:3:forces:R:3 unique_starting_index=404 config_type=initial n_minim_iter=1 energy=-1621.7003781629694 stress="-4.880246358233497e-05 -1.429698789080677e-12 -4.6156877828584674e-14 -1.429698789080677e-12 4.003615731303928e-05 1.0486594016688033e-12 -4.6156877828584674e-14 1.0486594016688033e-12 7.59695456089926e-05" free_energy=-1621.7003781629694 pbc="T T T"
Si       1.09471194       2.23616637       9.28603542      -0.02401578      -0.01096509      -0.00068517
Si       1.09471194       3.75916068       3.31401328      -0.02401578       0.01096509       0.00068517
Si       5.48522947       3.75916068       9.28603542       0.02401578       0.01096509      -0.00068517
Si       5.48522947       2.23616637       3.31401328       0.02401578      -0.01096509       0.00068517
Si       4.35637763       3.72236086      11.64264911       0.02193361       0.02094609      -0.00192723
Si       4.35637763       2.27296619       0.95739959       0.02193361      -0.02094609       0.00192723
Si       2.22356378       2.27296619      11.64264911      -0.02193361      -0.02094609      -0.00192723
Si       2.22356378       3.72236086       0.95739959      -0.02193361       0.02094609       0.00192723
Si       3.28997071       2.99766353       9.49422998       0.00000000       0.00000000       0.00872949
Si       3.28997071       2.99766353       3.10581872       0.00000000       0.00000000      -0.00872949
10
Lattice="6.582222010567885 -5.443876327057098e-34 -2.3669724560874977e-31 4.95754383390266e-34 5.9936228824864175 -6.019988786092303e-14 4.515420910236869e-31 1.2646767217165036e-13 12.593253477251464" Properties=species:S:1:pos:R:3:forces:R:3 unique_starting_index=404 config_type=initial n_minim_iter=2 energy=-1621.700425251513 stress="0.00021247084743196992 -6.634491958839791e-13 -6.574887601751366e-13 -6.634491958839791e-13 9.65844183848939e-06 -3.3011212402982524e-13 -6.574887601751366e-13 -3.3011212402982524e-13 -0.0002446851948928206" free_energy=-1621.700425251513 pbc="T T T"
Si       1.09474817       2.23537414       9.28101766      -0.01114049      -0.00548220      -0.00215778
Si       1.09474817       3.75824874       3.31223581      -0.01114049       0.00548220       0.00215778
Si       5.48747384       3.75824874       9.28101766       0.01114049       0.00548220      -0.00215778
Si       5.48747384       2.23537414       3.31223581       0.01114049      -0.00548220       0.00215778
Si       4.35820099       3.72160193      11.63634269       0.01429241       0.02445063      -0.01395060
Si       4.35820099       2.27202096       0.95691078       0.01429241      -0.02445063       0.01395060
Si       2.22402102       2.27202096      11.63634269      -0.01429241      -0.02445063      -0.01395060
Si       2.22402102       3.72160193       0.95691078      -0.01429241       0.02445063       0.01395060
Si       3.29111101       2.99681144       9.48923437       0.00000000      -0.00000000      -0.00637536
Si       3.29111101       2.99681144       3.10401911       0.00000000      -0.00000000       0.00637536
10
Lattice="6.579095131025402 -5.440713876330468e-34 -2.3642409694291553e-31 4.954904618141405e-34 5.989797167366193 -6.016396792162335e-14 4.51967102731866e-31 1.2649513146156455e-13 12.59651055253251" Properties=species:S:1:pos:R:3:forces:R:3 unique_starting_index=404 config_type=initial n_minim_iter=3 energy=-1621.70053538472 stress="-0.00046676580901735447 -2.5697253301596136e-14 -3.5388354261308223e-13 -2.5697253301596136e-14 -0.00013109090650392186 -9.644259983597916e-13 -3.5388354261308223e-13 -9.644259983597916e-13 -0.0002949016234770681" free_energy=-1621.70053538472 pbc="T T T"
Si       1.09339743       2.23356393       9.28337370       0.00856302      -0.00582054      -0.00750133
Si       1.09339743       3.75623324       3.31313685       0.00856302       0.00582054       0.00750133
Si       5.48569770       3.75623324       9.28337370      -0.00856302       0.00582054      -0.00750133
Si       5.48569770       2.23356393       3.31313685      -0.00856302      -0.00582054       0.00750133
Si       4.35693562       3.72011586      11.63913886      -0.00115621       0.02306667      -0.00314927
Si       4.35693562       2.26968131       0.95737170      -0.00115621      -0.02306667       0.00314927
Si       2.22215951       2.26968131      11.63913886       0.00115621      -0.02306667      -0.00314927
Si       2.22215951       3.72011586       0.95737170       0.00115621       0.02306667       0.00314927
Si       3.28954757       2.99489858       9.49187329      -0.00000000       0.00000000      -0.00562324
Si       3.28954757       2.99489858       3.10463726      -0.00000000      -0.00000000       0.00562324
10
Lattice="6.57967970725103 -5.4412521926604495e-34 -2.3636068316768455e-31 4.9544857338539035e-34 5.989350870044127 -6.015043360262225e-14 4.522170889349025e-31 1.2653896721569237e-13 12.598974019952975" Properties=species:S:1:pos:R:3:forces:R:3 unique_starting_index=404 config_type=initial n_minim_iter=4 energy=-1621.7005652151106 stress="-9.041193229766615e-05 1.6413484895743909e-12 1.824333031085101e-13 1.6413484895743909e-12 -5.7041931306829925e-05 -1.0105351728577635e-12 1.824333031085101e-13 -1.0105351728577635e-12 2.3150525878071626e-05" free_energy=-1621.7005652151106 pbc="T T T"
Si       1.09333129       2.23331368       9.28517342       0.01650811       0.00040420      -0.00199238
Si       1.09333129       3.75603719       3.31380060       0.01650811      -0.00040420       0.00199238
Si       5.48634842       3.75603719       9.28517342      -0.01650811      -0.00040420      -0.00199238
Si       5.48634842       2.23331368       3.31380060      -0.01650811       0.00040420       0.00199238
Si       4.35748764       3.72004298      11.64136701      -0.00251969       0.01548437       0.00058048
Si       4.35748764       2.26930789       0.95760701      -0.00251969      -0.01548437      -0.00058048
Si       2.22219207       2.26930789      11.64136701       0.00251969      -0.01548437       0.00058047
Si       2.22219207       3.72004298       0.95760701       0.00251969       0.01548437      -0.00058048
Si       3.28983985       2.99467544       9.49376149      -0.00000000      -0.00000000       0.00574521
Si       3.28983985       2.99467544       3.10521253      -0.00000000      -0.00000000      -0.00574521
10
Lattice="6.580270136783841 -5.442387311079189e-34 -2.3653031576306813e-31 4.957272230866368e-34 5.993432285181731 -6.019429199306296e-14 4.518270761453509e-31 1.2650336523765745e-13 12.596028953166458" Properties=species:S:1:pos:R:3:forces:R:3 unique_starting_index=404 config_type=initial n_minim_iter=5 energy=-1621.7006098269358 stress="0.00011372152872709927 1.389206224495051e-12 1.8837983124941475e-12 1.389206224495051e-12 7.48892764978838e-05 -2.0610192904031693e-12 1.8837983124941475e-12 -2.0610192904031693e-12 1.851065492690512e-05" free_energy=-1621.7006098269358 pbc="T T T"
Si       1.09391743       2.23486859       9.28295876       0.00451090      -0.00296127      -0.00166431
Si       1.09391743       3.75856370       3.31307020       0.00451090       0.00296127       0.00166431
Si       5.48635271       3.75856370       9.28295876      -0.00451090       0.00296127      -0.00166431
Si       5.48635271       2.23486859       3.31307020      -0.00451090      -0.00296127       0.00166431
Si       4.35781740       3.72303856      11.63861778      -0.00299394       0.00939137       0.00072620
Si       4.35781740       2.27039373       0.95741118      -0.00299394      -0.00939137      -0.00072620
Si       2.22245273       2.27039373      11.63861778       0.00299394      -0.00939137       0.00072620
Si       2.22245273       3.72303856       0.95741118       0.00299394       0.00939137      -0.00072620
Si       3.29013507       2.99671614       9.49169154      -0.00000000       0.00000000       0.00458557
Si       3.29013507       2.99671614       3.10433741       0.00000000      -0.00000000      -0.00458557
