22
Lattice="6.094461469353217 -1.0517741323596201 1.5798833310937244 -3.5044385988143887 9.466746279939649 -1.9969998660251638 1.303390757155122 -3.4746325321400677 8.629601810436187" Properties=species:S:1:pos:R:3:forces:R:3 unique_starting_index=18 config_type=initial n_minim_iter=1 energy=-3583.295955565194 stress="0.0008057423246743636 -0.00021933675643042336 -0.0005521822562850614 -0.00021933675643042336 -0.0012284514435956663 0.00044683515156467035 -0.0005521822562850614 0.00044683515156467035 4.504766298564114e-05" free_energy=-3583.295955565194 pbc="T T T"
Si       1.20889410       7.75666947       0.93928376      -0.06172432      -0.05417304       0.01546762
Si       3.04645934      -0.13091953       6.02339004       0.03466427       0.00049143      -0.15219816
Si       0.26110611      -2.75744025       8.11347911      -0.00592396       0.12461424       0.05018446
Si       6.96764289      -1.59658706      10.16124550      -0.02184202       0.00722640      -0.00323943
Si      -0.52903600       0.55426265       7.01243309      -0.02486525       0.04244683      -0.11186236
Si       4.68416352       2.05632660       3.65668383      -0.09841530      -0.05054673       0.14488304
Si       2.49812067       0.11775681       1.54799087       0.00479881       0.03220157      -0.05931109
Si       2.81962751       2.12690502       6.78710709       0.06816978       0.03345293      -0.16052108
Si       2.75591355      -3.28362838       8.08849632       0.17067527      -0.06527888       0.05391667
Si       0.49477649       0.97514057       4.60468968       0.17484520       0.10703408       0.10191224
Si       4.89080223      -0.10585333       4.63499784      -0.22505789       0.10377467      -0.12067199
Si       0.61467448       4.99691406       4.46183261       0.11737215      -0.03086141       0.21494990
Si       1.37093500      -1.23713427       4.77418434      -0.01221760       0.27335045      -0.08362185
Si      -1.98550675       6.27339387      -0.94672030       0.06441930      -0.07904897       0.04980662
Si       4.25660597       3.52157839       5.45345095       0.00929136      -0.07995769       0.08192908
Si       1.83353786       5.55124256       0.55318403      -0.09588591       0.13208539       0.14480866
Si       2.40470704      -1.89550553       2.76651327      -0.10206510       0.00641134       0.12875020
Si       6.34548980      -4.06623053       7.35705452       0.03122698       0.01840199      -0.05510031
Si       2.23451320       1.97669116       3.00896491       0.06853386      -0.09594701      -0.03351687
Si       0.79586192       3.07075260       5.88451357      -0.09176309      -0.39989104      -0.06125738
Si       1.07582525       4.00382832       2.32409689      -0.12122636       0.04342604      -0.17342282
Si       3.25170638      -1.01707460       8.12879207       0.11698982      -0.06921259       0.02811484
22
Lattice="6.0818521365189175 -1.0537460260308065 1.5910125002757283 -3.493217854065334 9.501605992434442 -2.014990806153083 1.3121155698322533 -3.497872127764225 8.635197904885247" Properties=species:S:1:pos:R:3:forces:R:3 unique_starting_index=18 config_type=initial n_minim_iter=2 energy=-3583.300786318469 stress="-0.0007266904719467462 -5.027450629989368e-06 0.0005326501801308089 -5.027450629989368e-06 0.001795774330067842 -0.0006846714923367579 0.0005326501801308089 -0.0006846714923367579 -4.570170333561747e-05" free_energy=-3583.300786318469 pbc="T T T"
Si       1.21215132       7.78408964       0.93096958      -0.01689305      -0.04442405      -0.00975648
Si       3.04918977      -0.13739173       6.02668825      -0.02524162       0.01471907      -0.06305803
Si       0.27189464      -2.77719173       8.11683979      -0.00797543       0.14482337       0.06474005
Si       6.96645202      -1.61128987      10.17337298      -0.04531618      -0.02017544      -0.03928638
Si      -0.51614941       0.54695031       7.00913960       0.00411484       0.05845183      -0.07475657
Si       4.67963435       2.06165935       3.66212933      -0.09958712      -0.09182619       0.17249931
Si       2.49480979       0.11798084       1.55129596      -0.00718602      -0.01098135      -0.03054464
Si       2.82583998       2.12772974       6.78688779       0.07110008       0.00228981      -0.13901169
Si       2.76160467      -3.30496840       8.09665715       0.18176598       0.01970820       0.07033161
Si       0.50295670       0.97366240       4.60431054       0.15358041       0.08787950       0.08470884
Si       4.88509607      -0.10848178       4.64166900      -0.13291821       0.13203846      -0.16681407
Si       0.62454661       5.00939220       4.45712783       0.12782295      -0.08619191       0.22881354
Si       1.37457510      -1.24516848       4.77685027      -0.06557147       0.24420615      -0.02279995
Si      -1.97781173       6.29566331      -0.95779515       0.08411350      -0.10735489       0.08145193
Si       4.25772117       3.52938892       5.45558767       0.00126930      -0.05849254       0.08218598
Si       1.83301414       5.57284095       0.54975554      -0.14378739       0.15305456       0.13681057
Si       2.40156308      -1.90447183       2.77347642      -0.12298860       0.03858557       0.04611534
Si       6.33997007      -4.08654216       7.37144509       0.07143277       0.03735755      -0.07241853
Si       2.23585988       1.98068913       3.00936792       0.05244722      -0.07675128      -0.04905300
Si       0.80492188       3.07187769       5.88055211      -0.07231099      -0.34628770      -0.11761813
Si       1.07881145       4.01633830       2.31904046      -0.10281016       0.02320556      -0.16150279
Si       3.25738077      -1.02991676       8.13457571       0.09493919      -0.11383428      -0.02103692
22
Lattice="6.072074990343745 -1.0403595384430868 1.595172326231203 -3.47384662602227 9.476677566960538 -2.0096698802483877 1.3116578591023118 -3.481874318696629 8.632828525203944" Properties=species:S:1:pos:R:3:forces:R:3 unique_starting_index=18 config_type=initial n_minim_iter=3 energy=-3583.3176529654957 stress="-0.002094127499640959 0.0006760429896462715 0.0014832221111966094 0.0006760429896462715 -0.0014578352606229767 -0.0004585785504378056 0.0014832221111966094 -0.0004585785504378056 -0.000541749427256605" free_energy=-3583.3176529654957 pbc="T T T"
Si       1.22261320       7.77105748       0.93876670      -0.03505183       0.05086082       0.02339978
Si       3.04961407      -0.12668341       6.02527424      -0.06883482      -0.00907075       0.01145483
Si       0.27359344      -2.76043468       8.11602949      -0.01074619       0.07730571       0.01323688
Si       6.96066325      -1.58821118      10.17671186      -0.03272328       0.01567797      -0.00648639
Si      -0.50886511       0.55269195       7.00577173       0.01209294       0.00552971      -0.05645054
Si       4.67581956       2.06657777       3.67264347      -0.09151281      -0.01473397       0.08326566
Si       2.49244986       0.12364068       1.55195783       0.00099547      -0.01204282      -0.02242402
Si       2.83294098       2.13497505       6.78596821       0.06040099      -0.01978814      -0.03616313
Si       2.76431309      -3.28822416       8.09767189       0.13949579       0.00620326       0.06762469
Si       0.51293284       0.97980570       4.60831793       0.02129429       0.11143043      -0.05601397
Si       4.87552915      -0.09249642       4.64095676       0.02593586       0.04761440      -0.09547030
Si       0.63951327       5.00330683       4.46874292       0.12835028      -0.11779420       0.14797906
Si       1.37333315      -1.22823453       4.77488902      -0.06963593       0.14510168       0.03029556
Si      -1.96286560       6.27711218      -0.95196398       0.02088410      -0.05294898       0.12271672
Si       4.26179820       3.53243644       5.46453286       0.03912642      -0.04471229       0.05905677
Si       1.83617774       5.57063385       0.56052639      -0.07996915       0.06944145       0.05082050
Si       2.39356393      -1.89396335       2.77660771      -0.10487768      -0.00317752      -0.00106583
Si       6.33125351      -4.06134556       7.37091038       0.08366761       0.08987871      -0.03801345
Si       2.24015966       1.98058611       3.01152558       0.04717632      -0.03870250      -0.05748793
Si       0.81109669       3.06068705       5.88081145      -0.05676643      -0.27743660      -0.10209420
Si       1.08217610       4.01384991       2.31794488      -0.10540355       0.02947936      -0.09138746
Si       3.26093771      -1.01847433       8.13620695       0.07610161      -0.05811574      -0.04679323
22
Lattice="6.085002854040586 -1.0407111154515063 1.582430830509388 -3.4776729109212647 9.504006640086125 -1.9913933861126087 1.296029209912961 -3.4809823682915804 8.635552748566408" Properties=species:S:1:pos:R:3:forces:R:3 unique_starting_index=18 config_type=initial n_minim_iter=4 energy=-3583.3293823661465 stress="0.0016730699912794172 0.0003232562735390405 8.396082927585609e-05 0.0003232562735390405 0.001976128708234649 0.00048565365388672727 8.396082927585609e-05 0.00048565365388672727 0.003002698777774727" free_energy=-3583.3293823661465 pbc="T T T"
Si       1.22338374       7.79627569       0.94829650      -0.07338898       0.11580683       0.00528781
Si       3.04474808      -0.11820403       6.02214030      -0.03988017       0.02401004       0.04318570
Si       0.25609927      -2.75340466       8.12324179      -0.00469550       0.05620729      -0.00089607
Si       6.95613737      -1.57837870      10.17100990      -0.00798604      -0.00560251       0.04862314
Si      -0.52571598       0.56569359       7.01272327       0.01590397       0.03250542      -0.02219441
Si       4.67722668       2.07669964       3.67515447      -0.06467438       0.04251425       0.00674626
Si       2.49588365       0.12690005       1.54694813       0.04293287      -0.02885611       0.06024058
Si       2.82873291       2.15217205       6.78594867       0.04294732      -0.06145376       0.02011571
Si       2.76012859      -3.28815921       8.09916217       0.10349313       0.04039893      -0.01257790
Si       0.50982142       0.99321005       4.61679777      -0.08107473       0.08652219      -0.16135537
Si       4.87297992      -0.08180955       4.63085023       0.07541004      -0.00784097       0.00074829
Si       0.63678093       5.02335353       4.48748327       0.10165279      -0.17267399       0.10241459
Si       1.36510222      -1.21628900       4.77427683      -0.08485422       0.03195456       0.03989790
Si      -1.96290647       6.29260741      -0.93745534      -0.05191416      -0.04050777       0.07340332
Si       4.26241906       3.54944437       5.46965975       0.02267833      -0.01415645       0.04424449
Si       1.83663442       5.59447312       0.56967678       0.03369970       0.02470782      -0.01790019
Si       2.38972969      -1.89531689       2.77509422      -0.04152479       0.03527394      -0.01608183
Si       6.33392698      -4.06206057       7.35820242       0.15352643       0.10611765      -0.00486972
Si       2.24219100       1.98842798       3.01143741       0.00874890      -0.01099090      -0.08994522
Si       0.79795326       3.06522320       5.88711988      -0.05675526      -0.19698577      -0.04618552
Si       1.07645655       4.03141321       2.31810298      -0.11388844       0.01019626      -0.00533063
Si       3.25583688      -1.01317242       8.13748760       0.01964318      -0.06714691      -0.06757093
22
Lattice="6.079547944292065 -1.0471294465582606 1.565690215950859 -3.4804217536658957 9.51289363922212 -1.980071967104004 1.2831052867114994 -3.48662281287488 8.59982764456882" Properties=species:S:1:pos:R:3:forces:R:3 unique_starting_index=18 config_type=initial n_minim_iter=5 energy=-3583.3345332117005 stress="0.00015490341325018986 -0.000238723587546408 -0.0008624786426034849 -0.000238723587546408 0.0011508863553554528 2.2743339261452867e-05 -0.0008624786426034849 2.2743339261452867e-05 -0.0005200476055568282" free_energy=-3583.3345332117005 pbc="T T T"
Si       1.21310153       7.79912810       0.94031445      -0.06516819       0.09515708      -0.00299857
Si       3.03221606      -0.12263040       5.99126889      -0.01002175       0.07420609       0.04318377
Si       0.24390030      -2.75513373       8.09202202      -0.00666879       0.03303422       0.01648952
Si       6.93492490      -1.58841887      10.11856218       0.03068474       0.00128657       0.07049141
Si      -0.53834203       0.56520784       6.98377762       0.02660543       0.03408768      -0.01711464
Si       4.66414868       2.07177503       3.65422301      -0.06164458       0.05050614      -0.03191164
Si       2.49175913       0.12438819       1.53577038       0.08664899      -0.05098610       0.13436252
Si       2.81465059       2.14883191       6.75101084       0.03161201      -0.07728001       0.03781573
Si       2.75058991      -3.29515007       8.06402569       0.05016306       0.04397044      -0.09016554
Si       0.50269721       0.99418339       4.59770356      -0.09579328       0.04489174      -0.18602779
Si       4.85968690      -0.08574034       4.60146326       0.07678963       0.00219556       0.03275106
Si       0.62676666       5.02232275       4.47114758       0.08242684      -0.18248757       0.08546083
Si       1.35591273      -1.21506412       4.75256917      -0.13157391      -0.00785087       0.02715398
Si      -1.96469662       6.29641878      -0.93041145      -0.10133413      -0.06499047       0.05358335
Si       4.24752692       3.54470587       5.44088223       0.00028537       0.03506679       0.05553553
Si       1.82785806       5.59814642       0.56471405       0.06503712       0.01988162      -0.01928482
Si       2.38293411      -1.89892907       2.76171961      -0.00306822       0.05371197       0.00272577
Si       6.32238302      -4.07092570       7.31780848       0.18347134       0.09616332      -0.03721914
Si       2.23496295       1.98514911       2.99375210      -0.02048524       0.02666695      -0.09343048
Si       0.78275943       3.05700239       5.85957815      -0.05010743      -0.13512428      -0.03628953
Si       1.06570919       4.03266620       2.30297248      -0.08746026      -0.02177775      -0.01227018
Si       3.24243303      -1.02076033       8.09927775      -0.00039876      -0.07032912      -0.03284114
22
Lattice="6.086864143872261 -1.0483448908891793 1.5792471513344701 -3.4891788239356782 9.502869295742236 -1.9936124550944099 1.302641861376414 -3.48787593913596 8.606389607674236" Properties=species:S:1:pos:R:3:forces:R:3 unique_starting_index=18 config_type=initial n_minim_iter=6 energy=-3583.3407423040944 stress="0.0006181885410471557 -0.000489395238652132 0.0006691747038879125 -0.000489395238652132 -0.0010102530014973847 -0.0005338882735432936 0.0006691747038879125 -0.0005338882735432936 -0.0004733479124008379" free_energy=-3583.3407423040944 pbc="T T T"
Si       1.21145796       7.78966138       0.93847708      -0.08951855       0.11631656      -0.02008288
Si       3.04604359      -0.12585210       5.99759799      -0.04237176       0.02449892       0.08609607
Si       0.26124919      -2.75332982       8.09706499      -0.01856447      -0.01841592      -0.01767757
Si       6.96035786      -1.59436562      10.13690829       0.02730099       0.06347638       0.03968651
Si      -0.52409991       0.56166022       6.98127167       0.03032942      -0.04700650       0.02593099
Si       4.67064904       2.06543910       3.66597594      -0.06131076       0.07080228      -0.07912878
Si       2.49791262       0.12203792       1.54228788       0.07456314      -0.07072401       0.07141897
Si       2.83204418       2.14003976       6.75470092      -0.02517069      -0.05897926       0.09642899
Si       2.77490096      -3.29658159       8.07353675       0.02949060       0.00988766      -0.05587214
Si       0.51349534       0.99345994       4.59687598      -0.15033125       0.01186717      -0.27430114
Si       4.87062563      -0.08760264       4.61010470       0.15368680      -0.01955742       0.08773448
Si       0.63963916       5.00796567       4.47651223       0.10729711      -0.20186380       0.06854955
Si       1.36376990      -1.21135077       4.75676163      -0.10088337       0.00499683       0.05255346
Si      -1.96988284       6.28654523      -0.93563157      -0.14780881      -0.01194939       0.07334955
Si       4.26106671       3.53455225       5.45131631       0.00873388       0.08188711       0.04968791
Si       1.82743005       5.59331158       0.56746498       0.10944567      -0.01378656      -0.06043692
Si       2.38788479      -1.89774540       2.77011691       0.02412363       0.03030834      -0.03135886
Si       6.34711222      -4.06900720       7.33310902       0.16511724       0.05411940       0.00986565
Si       2.24320475       1.97871679       2.99500703      -0.02344755       0.08259917      -0.08552436
Si       0.79177595       3.03797489       5.85775882       0.00355191      -0.06990464       0.00904435
Si       1.06567711       4.02637282       2.29945467      -0.07100597      -0.04000743       0.01955077
Si       3.26398476      -1.02838757       8.10742580      -0.00322722       0.00143511      -0.06551460
22
Lattice="6.060978371677575 -1.0299164493154727 1.5790025044640084 -3.451672108069931 9.492037381837363 -1.9773548760192519 1.2884474541726663 -3.468192563080022 8.611027411939423" Properties=species:S:1:pos:R:3:forces:R:3 unique_starting_index=18 config_type=initial n_minim_iter=7 energy=-3583.347820690902 stress="-0.002310174191335364 0.00038313141763626985 0.0004196974331304821 0.00038313141763626985 -0.002315947049322551 0.0008599121592711986 0.0004196974331304821 0.0008599121592711986 0.00015290173218653007" free_energy=-3583.347820690902 pbc="T T T"
Si       1.22244352       7.79948371       0.95521263       0.00171921       0.13220945       0.03164562
Si       3.03272175      -0.10429710       6.00459346      -0.05957267       0.00637624       0.09901088
Si       0.25230223      -2.73267766       8.10399477      -0.00259634      -0.03445730      -0.07506618
Si       6.92930823      -1.55591657      10.14880792       0.04033042       0.04051503       0.06655766
Si      -0.52028361       0.57573828       6.98882202       0.03580929      -0.05101496       0.03537006
Si       4.65259774       2.08555982       3.67751016      -0.04625200       0.13909257      -0.09437449
Si       2.49148237       0.12984085       1.54688657       0.03966123      -0.01991493       0.03097900
Si       2.82908052       2.15894917       6.76600918      -0.01365380      -0.06966367       0.16314555
Si       2.76278267      -3.27380620       8.07726641       0.02208102       0.00533022      -0.02006773
Si       0.51383594       1.00900492       4.59892518      -0.13416439       0.02779157      -0.28653565
Si       4.85113030      -0.06325640       4.61363312       0.13404032      -0.07632673       0.03313064
Si       0.65707278       5.01041838       4.50183317       0.08859935      -0.21150348      -0.01813729
Si       1.34984369      -1.19114114       4.76086383      -0.03925773      -0.03684426       0.04233341
Si      -1.94860793       6.27684305      -0.91956146      -0.04789680       0.01588939       0.09311319
Si       4.25436515       3.55648740       5.46977656       0.06250824       0.02792491       0.01018344
Si       1.83420177       5.60449122       0.58172892       0.02486935      -0.03208046      -0.10866438
Si       2.37042929      -1.88461966       2.77196272      -0.06348365      -0.03177146      -0.04375005
Si       6.32045095      -4.03454035       7.33229255       0.10701555       0.06931669       0.08734213
Si       2.24083413       1.98981371       2.99809753      -0.04519830       0.07439152      -0.10078238
Si       0.79241228       3.03615794       5.86799903      -0.02093129      -0.01054948       0.04993186
Si       1.06495273       4.03476655       2.30566845      -0.06454394       0.00532176       0.07973511
Si       3.25187276      -1.00834372       8.11423175      -0.01908305       0.02996740      -0.07510042
22
Lattice="6.077198515714813 -1.0133191459501798 1.5816845760979967 -3.43142302084596 9.495255659628315 -1.9932411859109882 1.2858845751076602 -3.483927196131955 8.601967852790462" Properties=species:S:1:pos:R:3:forces:R:3 unique_starting_index=18 config_type=initial n_minim_iter=8 energy=-3583.358302737396 stress="-4.212233549140832e-05 0.002016202670401639 0.0006096140780564032 0.002016202670401639 -0.0023762375443122452 -0.0005097633468579027 0.0006096140780564032 -0.0005097633468579027 -0.0007900260381830816" free_energy=-3583.358302737396 pbc="T T T"
Si       1.24844695       7.81720644       0.94002938      -0.01888580       0.09733115      -0.03574735
Si       3.04329605      -0.10246029       5.99675315      -0.03736236      -0.05122167       0.00661460
Si       0.24799486      -2.74596925       8.09444736       0.01955241      -0.01287358      -0.03546130
Si       6.95241225      -1.55134469      10.14002233       0.04342223       0.02533900       0.02800323
Si      -0.51419558       0.56259503       6.97202150      -0.00678059      -0.11282349       0.04448210
Si       4.66980116       2.10004323       3.67051892      -0.06166332       0.08822809      -0.10967994
Si       2.50482092       0.13297485       1.54947206       0.02413030      -0.05293321      -0.04389188
Si       2.85161874       2.15469135       6.75205672      -0.03189888       0.01754401       0.13698733
Si       2.77288986      -3.28217102       8.06798686       0.00394263       0.03064597       0.00251167
Si       0.51854931       1.00861637       4.57649542      -0.09050217      -0.00865073      -0.26989027
Si       4.87100189      -0.05348985       4.60689186       0.03101166      -0.01990854       0.03987445
Si       0.68802989       4.99615999       4.49444289       0.13792300      -0.20719847       0.00524018
Si       1.34560106      -1.19007330       4.75600238       0.02029280      -0.02454178       0.09319390
Si      -1.93809363       6.27486895      -0.92418981      -0.03631453       0.06199077       0.05430789
Si       4.28431437       3.56581530       5.46052723       0.03258299      -0.01145760       0.07742656
Si       1.86003300       5.62031603       0.57206157       0.02345331      -0.06005983      -0.06260203
Si       2.36903459      -1.88167831       2.77279524       0.00286822      -0.03248774      -0.06479108
Si       6.34237209      -4.02513694       7.32855095       0.02115702       0.05030049       0.06431421
Si       2.25652118       1.99499338       2.98309881      -0.04487113       0.10393804      -0.05417954
Si       0.80433298       3.01479107       5.84892364       0.01124130       0.05389176       0.11997872
Si       1.07494692       4.03877682       2.29108792      -0.03423424       0.02150054       0.03894724
Si       3.26612952      -1.01782618       8.09931846      -0.00906484       0.04344681      -0.03563870
22
Lattice="6.09170713891616 -1.053489673153341 1.5965635037158943 -3.4957367320931487 9.54868197068989 -2.0012747775229953 1.3288678827102995 -3.503177896604965 8.60493006262755" Properties=species:S:1:pos:R:3:forces:R:3 unique_starting_index=18 config_type=initial n_minim_iter=9 energy=-3583.3675384894987 stress="0.0007504764656397963 -0.0014141390120342278 0.0012675082952816657 -0.0014141390120342278 0.00041139829958656226 0.0006970793130311152 0.0012675082952816657 0.0006970793130311152 -0.0001497332107903585" free_energy=-3583.3675384894987 pbc="T T T"
Si       1.19669421       7.84897036       0.94286942       0.07329140      -0.13191965      -0.07186952
Si       3.05697142      -0.11641342       6.00757410      -0.02674599      -0.04899807      -0.02136826
Si       0.28364535      -2.75015179       8.09512808      -0.00111892       0.01114502      -0.05538081
Si       6.99439218      -1.59532737      10.16329025       0.04873317       0.06312637      -0.09445595
Si      -0.49806514       0.56796752       6.96843945      -0.00020172      -0.13959691       0.15000559
Si       4.65831903       2.08621502       3.68062235      -0.04089169       0.02683111      -0.01151041
Si       2.51786401       0.11245438       1.56333492      -0.03951895       0.00037046      -0.20311826
Si       2.86066578       2.13823657       6.76414620      -0.17705273       0.05105796       0.10204867
Si       2.82658307      -3.30674153       8.07046573       0.03537158      -0.07379866       0.04415643
Si       0.51605141       1.01703804       4.55150087       0.12562417      -0.14436299      -0.12911699
Si       4.89182812      -0.08072749       4.61858178      -0.17378528       0.09291969      -0.06582775
Si       0.68708558       4.98146768       4.51211956       0.11590972      -0.14268371       0.03307698
Si       1.35296446      -1.19294341       4.76289547       0.14287506       0.21682266      -0.05848431
Si      -1.98776696       6.30166691      -0.91760583       0.02218822       0.02590533       0.01151333
Si       4.28231511       3.55429592       5.48052451       0.01756112       0.08017091       0.03315886
Si       1.83203128       5.63348790       0.57590180      -0.06952831       0.08601666      -0.01623758
Si       2.38299324      -1.89857136       2.77876901      -0.03971449      -0.04769559       0.00880612
Si       6.40985058      -4.06570366       7.34311423      -0.08714469      -0.24762310       0.19055599
Si       2.25244917       1.99209205       2.97563532      -0.07946374       0.13617482      -0.07907049
Si       0.79465751       2.99554803       5.84857153       0.10528398       0.07741028       0.22370175
Si       1.04307741       4.04596251       2.28979542       0.04636117      -0.01783868       0.05145970
Si       3.29809842      -1.04727638       8.10063458       0.00196693       0.12656607      -0.04204310
22
Lattice="6.075489024469602 -1.049894907128903 1.5851044733388935 -3.472530630508398 9.53765070398495 -2.0261381872907798 1.295179569073764 -3.524318612613093 8.636933039976606" Properties=species:S:1:pos:R:3:forces:R:3 unique_starting_index=18 config_type=initial n_minim_iter=10 energy=-3583.3727695625294 stress="-0.0004944886321202227 -0.0004000030888447505 -0.0011004312017650572 -0.0004000030888447505 -0.00013643892641437085 -0.0017389144854651705 -0.0011004312017650572 -0.0017389144854651705 0.0016902889381407418" free_energy=-3583.3727695625294 pbc="T T T"
Si       1.20261024       7.83468817       0.91617597       0.08545908      -0.03912597      -0.12375264
Si       3.03274596      -0.13279711       6.01554685       0.07426633      -0.07287544       0.03059489
Si       0.25443219      -2.77278276       8.12573891      -0.02531400      -0.05262220      -0.01540805
Si       6.94947573      -1.61713245      10.17466082       0.03389604       0.08321385      -0.00504907
Si      -0.51904269       0.54236535       6.99081877       0.03002052      -0.12521407       0.10542745
Si       4.64211570       2.07747806       3.66881517      -0.01443508      -0.00928027      -0.03683107
Si       2.50803616       0.11052169       1.55711721      -0.03016663      -0.05751729      -0.15533683
Si       2.83468213       2.11799449       6.76980857      -0.07459555       0.10177334       0.08272943
Si       2.79102969      -3.32517672       8.09582596       0.03248576      -0.07137562       0.02379715
Si       0.50289954       0.99909110       4.55941092       0.15265630      -0.07243437      -0.11354023
Si       4.86733495      -0.08936008       4.61664096      -0.22233844       0.12111774      -0.06536229
Si       0.67716442       4.96092987       4.50547915       0.07446584      -0.17133584       0.05837487
Si       1.33681724      -1.20488426       4.77598999       0.06118656       0.06492591      -0.05954547
Si      -1.97354447       6.29478154      -0.93481809       0.05963286       0.02560018      -0.06643806
Si       4.26207968       3.53757776       5.47128437      -0.00997084       0.01248629       0.10195377
Si       1.83323484       5.62565408       0.55306598      -0.09557525       0.01284394      -0.00001101
Si       2.36849061      -1.90295636       2.78476885      -0.04998860       0.03154131       0.01708491
Si       6.36864008      -4.07913479       7.35940872      -0.02765102      -0.10305193       0.14546614
Si       2.24035943       1.98427666       2.97098470      -0.10542062       0.10720322      -0.04955706
Si       0.78000741       2.97828202       5.85703376       0.02145591       0.07397505       0.21185310
Si       1.04072771       4.03412289       2.28207057       0.04787423       0.01827300       0.01863577
Si       3.26485884      -1.06573605       8.11719712      -0.01794341       0.12187918      -0.10508572
22
Lattice="6.079265226926221 -1.0314053057063128 1.5803463521056442 -3.4520527435311883 9.530310103008878 -2.0015904785061744 1.289226624018253 -3.504392558366607 8.609623623323323" Properties=species:S:1:pos:R:3:forces:R:3 unique_starting_index=18 config_type=initial n_minim_iter=11 energy=-3583.3800167034183 stress="7.36698470294586e-05 0.001151071954136491 -0.0008451981223060533 0.001151071954136491 0.0006272662955075255 -0.00015344347009214882 -0.0008451981223060533 -0.00015344347009214882 -0.00024655813751890525" free_energy=-3583.3800167034183 pbc="T T T"
Si       1.22682704       7.84191279       0.92960423       0.02488619       0.00512768      -0.06815594
Si       3.03755602      -0.11367692       6.00159030       0.02242252      -0.00306516      -0.02744689
Si       0.24936608      -2.75771212       8.10013109       0.01011593       0.01898547       0.01896921
Si       6.95511204      -1.57738547      10.14749864       0.04388804      -0.00559770       0.00864974
Si      -0.51698863       0.55399666       6.97853911      -0.01508081      -0.05152071       0.05153423
Si       4.65414885       2.09855606       3.66467719      -0.03830240       0.03588469      -0.02599184