16
Lattice="6.932989999999998 -6.280818773132846e-16 5.804690540616104e-16 1.1673443920277988 6.834007419552692 1.7836536671305186e-16 1.1673443920277988 0.9848531986707442 6.762671187302338" Properties=species:S:1:pos:R:3:forces:R:3 unique_starting_index=52 config_type=initial n_minim_iter=1 energy=-2553.2069482113807 stress="-0.294630696219321 -0.3109802861809593 -0.32115175886053693 0.03492212107443892 0.04139311548501059 0.04785786436922932" pbc="T T T"
Si       5.06045678       2.22996325       2.81803754       2.32554677     -11.26884523      -3.22935865
Si       3.91763778       4.46456404       1.80057675      -4.35923534       3.10384817     -10.68583135
Si       3.05018199       3.45336628       4.15847877     -10.71639479      -2.59186310       4.61139092
Si       1.32937197       2.70504570       2.25365679       0.21297531       0.29938253       0.22945464
Si       2.80638623       0.86925621       2.35203336       0.30220578       0.16443902       0.26319060
Si       2.89025908       2.35333663       0.52122950       0.33096802       0.25004889       0.12479397
Si       6.76438365       5.27308314       6.70357356      -3.48615125      23.68076980      12.13258933
Si       8.42690411       5.42292431       4.25198419      14.61148149      -6.03249019      21.68514476
Si       6.33675436       7.46655134       4.75356137      22.75569666      10.93611926      -9.09458067
Si       7.58541568       5.78616128       2.93991576     -15.33875940       3.72281131       2.08018855
Si       4.96683185       6.84687694       5.30208975      -0.02474560     -15.55669644       3.38417374
Si       6.98074879       3.84636071       6.01131880       1.08699210      -0.21077752     -15.88200458
Si       7.15571791       2.28594135       6.31884857       2.37562884     -24.32078252       4.58923433
Si       7.69318851       5.94525551       1.35146640       1.42164626       2.16719990     -24.72826951
Si       3.45815114       7.21391457       5.68843574     -23.57355646       5.46893147       5.70818456
Si       4.64574929       3.91947833       3.39002630      12.07570161      10.18790465       8.81169938
16
Lattice="6.998764780558391 -0.010729809506443776 -0.009280402495645625 1.1678426220042266 6.900649765973266 -0.009280402495645343 1.1678426220042273 0.9852735402505809 6.829955297758502" Properties=species:S:1:pos:R:3:forces:R:3 unique_starting_index=52 config_type=initial n_minim_iter=2 energy=-2556.6466564931075 stress="-0.2580339052731564 -0.27382233937098205 -0.2836447034980895 0.03372351281709468 0.03997240767766752 0.046215271408703386" pbc="T T T"
Si       5.10147999       2.24014598       2.83757223       2.01971403     -10.50177358      -2.93306537
Si       3.94504637       4.50149966       1.80783803      -4.01275065       2.73440135      -9.96946573
Si       3.06712664       3.47827746       4.19398241     -10.01176934      -2.36071990       4.14256463
Si       1.33480227       2.72756694       2.27215933       0.47887520       0.32684316       0.02240963
Si       2.82854778       0.87097966       2.37165310       0.14891898       0.46037370       0.32020197
Si       2.91337311       2.37187096       0.52010754       0.40280758       0.08227071       0.40942361
Si       6.81106744       5.31024959       6.75913500      -3.32950337      21.51194189      11.27137412
Si       8.49424061       5.45878224       4.28075569      13.48971002      -5.68195914      19.66306627
Si       6.38125058       7.52726255       4.78489873      20.64420884      10.15877201      -8.45630558
Si       7.64294063       5.82943360       2.95385241     -14.01681146       3.43871720       1.65249244
Si       4.99625888       6.90020851       5.34290195      -0.25970781     -14.17546679       3.16468068
Si       7.03308909       3.86727349       6.05821221       1.02953741      -0.43932881     -14.48356150
Si       7.21185258       2.28816933       6.37252219       2.20696401     -21.97543241       4.14015042
Si       7.75531175       5.99159170       1.34593618       1.28836017       2.01885929     -22.34268337
Si       3.46979900       7.27494797       5.73508522     -21.29009000       4.94366676       5.21760405
Si       4.68043699       3.94874330       3.41533808      11.21153639       9.45883456       8.18111373
16
Lattice="7.6819200114229895 -0.13913686129544608 -0.12034193841252831 1.156295321775223 7.595672139903936 -0.12034193841252874 1.1562953217752232 0.9755314318854643 7.533727886276302" Properties=species:S:1:pos:R:3:forces:R:3 unique_starting_index=52 config_type=initial n_minim_iter=3 energy=-2578.5386946309222 stress="-0.0698352709030869 -0.07742419146858981 -0.08214544126492354 0.0162096543885657 0.019213268692475253 0.022213984061208794" pbc="T T T"
Si       5.51650130       2.32917050       3.02947605      -0.19382560      -4.06486901      -1.55301520
Si       4.21476135       4.87646096       1.86827789      -2.12492613       0.16633427      -3.79863218
Si       3.22475949       3.72497305       4.55631968      -4.03947015      -1.46570499       0.71202133
Si       1.38016873       2.95654165       2.45951812       1.65563089       1.64529210      -0.17468494
Si       3.05146900       0.87892512       2.57123728       0.34209278       1.62117651       1.65329181
Si       3.14671732       2.55816246       0.49920786       1.90056957       0.02240363       1.36599705
Si       7.26765225       5.67385445       7.32255496      -3.23456291       8.57832356       5.27406805
Si       9.17234819       5.80614985       4.55937027       5.81846052      -4.27528648       7.72873009
Si       6.81654185       8.14083787       5.08848904       7.91122993       4.55138498      -5.34445151
Si       8.21875124       6.26056421       3.07631374      -6.39614378       1.12853564       0.61529326
Si       5.27390753       7.43693278       5.75188426      -0.31646298      -6.43472810       1.02808521
Si       7.55501672       4.05979100       6.53039522       0.03547075      -0.32710547      -6.51571773
Si       7.77658586       2.28258277       6.92001389       0.40260422      -7.76866722       2.79380053
Si       8.38364709       6.45717599       1.26150856       1.68939165       0.11986366      -8.09019100
Si       3.55937935       7.89708243       6.20797646      -7.58996503       3.01033306       1.28449510
Si       5.02467758       4.23916869       3.66653216       4.13990627       3.49271386       3.02091014
16
Lattice="8.12476815493614 -0.28858529652364906 -0.2496025399571588 1.083545264680077 8.05736115016718 -0.2496025399571613 1.0835452646800765 0.9141544064566834 8.009225421558082" Properties=species:S:1:pos:R:3:forces:R:3 unique_starting_index=52 config_type=initial n_minim_iter=4 energy=-2584.3688832992416 stress="-0.011921941171662606 -0.018762293051347342 -0.023017840307361936 0.014610739318093155 0.01731807808614443 0.02002280385743208" pbc="T T T"
Si       5.73984902       2.32427246       3.11027767       0.52852612      -1.71722848      -0.86523657
Si       4.33048842       5.08327580       1.85178660      -0.99892779       0.70681208      -1.57461354
Si       3.25753762       3.83677732       4.76335227      -1.60372079      -0.73945806       0.92635265
Si       1.36844032       3.08885928       2.56230149      -0.56338026       1.39370208      -0.47106256
Si       3.16854871       0.84702799       2.68736155      -0.35636976      -0.51066721       1.44703916
Si       3.27517108       2.65499624       0.45090894       1.27894480      -0.57999309      -0.71387039
Si       7.45086433       5.82018680       7.63464579      -1.89959299       3.54979611       2.05765959
Si       9.52840743       5.93119563       4.65919953       2.19152545      -2.30144967       3.21621120
Si       6.99163339       8.47214611       5.19784308       3.17927095       1.68020302      -2.74091644
Si       8.50746153       6.46704986       3.06924328      -2.99232193       1.11323725       0.39452757
Si       5.34495439       7.71768890       5.95723345       0.03914116      -3.04234806       1.04476120
Si       7.80716605       4.08879624       6.77862768       0.59351036      -0.06167183      -3.16115197
Si       8.06882547       2.17108145       7.23783662      -0.63098165      -1.64473354       1.19448967
Si       8.72702887       6.69499392       1.10536950       0.82526398      -0.78108735      -1.79970380
Si       3.49867588       8.25580670       6.46581325      -1.72749335       1.13229707      -0.51357756
Si       5.18302478       4.37276144       3.78207889       2.13660569       1.80258968       1.55909177
16
Lattice="8.27312102149449 -0.5098530250018163 -0.44098092168346403 0.8904155455676552 8.240852000831524 -0.44098092168346686 0.8904155455676552 0.7512166967925746 8.218380579369498" Properties=species:S:1:pos:R:3:forces:R:3 unique_starting_index=52 config_type=initial n_minim_iter=5 energy=-2586.3992631549654 stress="0.0034007370947492406 -0.001896114174185167 -0.005191412572786591 0.011313878887834274 0.013410316466104714 0.015504730658682051" pbc="T T T"
Si       5.70275545       2.16238165       3.02602822       1.16458898      -0.95211716      -0.65018066
Si       4.21906594       5.06467749       1.70372692      -0.57337127       1.27939654      -0.84848061
Si       3.09171249       3.75206628       4.76628508      -0.74243571      -0.45485744       1.38831675
Si       1.24600815       3.08669328       2.54856530      -1.74144056       1.52390076      -0.93864839
Si       3.13422773       0.72868503       2.68719769      -0.99232982      -1.59715942       1.64326287
Si       3.25242144       2.62406411       0.33382491       1.20892837      -1.21320449      -1.81729927
Si       7.23152461       5.63270826       7.59465498      -1.72431641       2.12381041       1.88426103
Si       9.42583573       5.72619972       4.47944107       1.84933314      -2.06518316       1.83009912
Si       6.76990010       8.40596395       5.02089210       1.80315636       1.56811414      -2.30736268
Si       8.39200806       6.34942845       2.84286724      -2.45273027       0.71250246      -0.20579309
Si       5.08799160       7.64445607       5.87346302      -0.51250350      -2.40071240       0.73472204
Si       7.67178441       3.85123674       6.71823150       0.28935080      -0.56935168      -2.48153402
Si       7.97367907       1.86160392       7.24035553      -0.60155399       0.40406140       0.93233549
Si       8.66950333       6.60829560       0.79875942       0.86554269      -0.75811363       0.26548418
Si       3.17759646       8.25229284       6.42420570       0.29700576       0.82734631      -0.78845922
Si       5.06965646       4.27711601       3.69935347       1.86277542       1.57156735       1.35927647
16
Lattice="8.251896205075884 -0.7460232881613185 -0.6452487698970409 0.6540433596669362 8.259695455009242 -0.6452487698970447 0.6540433596669362 0.5517966242322079 8.266464508484862" Properties=species:S:1:pos:R:3:forces:R:3 unique_starting_index=52 config_type=initial n_minim_iter=6 energy=-2587.9634666614597 stress="0.005008573736429395 0.0008693419315269172 -0.0017057736023017708 0.008841246443571482 0.010479510518081861 0.012116193420724383" pbc="T T T"
Si       5.53611509       1.93361289       2.86282713       1.36124177      -0.61898093      -0.30783769
Si       3.99931867       4.93315946       1.50086516      -0.15900390       1.40811786      -0.56815706
Si       2.83815175       3.57244796       4.66537442      -0.38094420      -0.09623627       1.47529681
Si       1.07425665       3.01810619       2.47289714      -1.10832449       1.35823404      -0.57393499
Si       3.02175675       0.57365754       2.63023112      -0.55350849      -1.02983025       1.42676637
Si       3.15589486       2.52645221       0.18862515       1.15222799      -0.75834213      -1.22469267
Si       6.81999753       5.29218886       7.37975133      -1.87512617       1.48720318       1.89918608
Si       9.09854864       5.36461738       4.17344606       1.74806682      -2.20087952       1.19798620
Si       6.36495131       8.14310743       4.70718125       1.15024535       1.57690747      -2.35054838
Si       8.07246887       6.07434669       2.52308264      -2.20473714       0.36090464      -0.78870240
Si       4.68318422       7.38943552       5.64733704      -1.08928247      -2.05060544       0.47079777
Si       7.34682750       3.49607339       6.49846011      -0.01547133      -1.10241672      -2.09704733
Si       7.68512501       1.48154383       7.07902095      -0.42532180       0.67240248       0.57850208
Si       8.40955804       6.35996448       0.44591659       0.58819356      -0.53195380       0.58201535
Si       2.75437713       8.06087436       6.22931517       0.59118887       0.49572949      -0.61027565
Si       4.82759011       4.07289194       3.52271645       1.22055563       1.02974591       0.89064550
16
Lattice="8.135045598959158 -1.2923246057849445 -1.1177544661448968 0.09586685029555655 8.236496787522974 -1.1177544661448997 0.09586685029555664 0.08087996550534426 8.311601097781521" Properties=species:S:1:pos:R:3:forces:R:3 unique_starting_index=52 config_type=initial n_minim_iter=7 energy=-2590.3214481275954 stress="0.011183510074868919 0.010872380442286052 0.010678819202742534 0.0006645614399158031 0.0007877032572117418 0.0009107262212593255" pbc="T T T"
Si       5.10974333       1.38075686       2.45819504       0.84820865      -0.27209266       0.21126671
Si       3.45430151       4.59370879       1.01209186       0.31024242       0.80750020      -0.29969822
Si       2.22139839       3.12488700       4.39990451      -0.12539058       0.33615438       0.84226088
Si       0.66462948       2.83949988       2.27663509      -0.13250951       0.44111890      -0.27262378
Si       2.73597345       0.20691320       2.48177263      -0.22557538      -0.09589731       0.47580230
Si       2.91086742       2.27838381      -0.15289651       0.41250969      -0.29930502      -0.16346447
Si       5.78702278       4.45319871       6.82871972      -1.69596926       0.78623008       0.89691627
Si       8.26794525       4.45855992       3.42262316       0.70100936      -1.84027562       0.64876791
Si       5.36401200       7.47144820       3.91878317       0.48944568       0.62755846      -1.91456041
Si       7.25571656       5.38543927       1.74734376      -0.82788033       0.21951384      -0.84660113
Si       3.69112006       6.73031199       5.07741296      -0.93401514      -0.68032831       0.33922670
Si       6.53023471       2.62912586       5.92834892       0.07698522      -0.96069341      -0.72211293
Si       6.94545306       0.58688041       6.64190890       0.36235395       0.63369074      -0.18152759
Si       7.73155201       5.72539220      -0.37641546      -0.02603886       0.37205003       0.65323607
Si       1.74794436       7.54496104       5.71987362       0.68565497      -0.14353550       0.27402814
Si       4.21674629       3.55754147       3.07698068       0.08096910       0.06831119       0.05908356
16
Lattice="7.729050426712244 -1.2577807383591175 -1.0878768627004571 0.06155796751559295 7.830481690233566 -1.0878768627004576 0.06155796751559528 0.05193459755786978 7.905518475537111" Properties=species:S:1:pos:R:3:forces:R:3 unique_starting_index=52 config_type=initial n_minim_iter=8 energy=-2590.5698833727265 stress="-0.010719154436901296 -0.014333110617381486 -0.016581439595514565 0.007719277120549229 0.009149642680480477 0.010578627712171967" pbc="T T T"
Si       4.84481416       1.27738862       2.31728383       0.75530857      -0.64951736       0.14828777
Si       3.25756067       4.35854853       0.93010943       0.17955418       0.73557795      -0.66410727
Si       2.07489841       2.95032085       4.17901350      -0.51306886       0.26979418       0.82360461
Si       0.60903245       2.69581875       2.15049910       0.03371711      -0.02064144      -0.18789956
Si       2.58316465       0.17661280       2.35776884      -0.18053859       0.06504399       0.00665235
Si       2.75987646       2.14915313      -0.16501035      -0.01466961      -0.18064770       0.06340636
Si       5.42500596       4.20202891       6.47720208      -1.55533889       2.17232030       0.72592536
Si       7.82842898       4.16637526       3.22473261       0.75479627      -1.70679594       2.04503114
Si       5.05547347       7.07826876       3.65816659       1.87942532       0.44469639      -1.98369044
Si       6.84983399       5.09128461       1.61140742      -1.33381358       0.81202415       0.05411742
Si       3.44839698       6.36001120       4.80591867      -0.05644273      -1.34349109       0.79574901
Si       6.17193910       2.44408914       5.60103870       0.57584956      -0.15562343      -1.44414307
Si       6.56790914       0.51723277       6.28672905       0.53094299      -1.66665200       0.20858155
Si       7.31163491       5.41410773      -0.39415089       0.05610194       0.52905008      -1.67931361
Si       1.61572200       7.14154737       5.41439433      -1.55345945       0.32226719       0.76553459
Si       3.97691453       3.35520265       2.90197426       0.44163575       0.37259474       0.32226380
16
Lattice="7.885691933178782 -1.39205062142795 -1.2040092653469114 -0.04442037559212251 8.007494553719717 -1.204009265346915 -0.0444203755921222 -0.037476128970017064 8.097419519738962" Properties=species:S:1:pos:R:3:forces:R:3 unique_starting_index=52 config_type=initial n_minim_iter=9 energy=-2591.2299016361403 stress="0.004154731626442994 0.0023272492412421608 0.0011903285320662461 0.0039034349732380695 0.004626733129755036 0.005349333191899141" pbc="T T T"
Si       4.87435517       1.19896645       2.29489981       0.84079340      -0.22954732       0.22021501
Si       3.22956040       4.39330025       0.85573164       0.32376604       0.79766752      -0.25888654
Si       2.00256985       2.93426976       4.22412109      -0.08470121       0.34292357       0.82664944
Si       0.54832812       2.71906927       2.16346582      -0.01664646       0.06941680      -0.24064137
Si       2.58889452       0.11405049       2.37890802      -0.22767164       0.02200195       0.10337118
Si       2.77257392       2.15279709      -0.22996599       0.06562288      -0.24217851       0.00687540
Si       5.34900140       4.14428819       6.51826957      -1.42054491       0.89406883       0.76251164
Si       7.84748804       4.08601431       3.16167634       0.63160006      -1.54900599       0.77485013
Si       4.98575982       7.10951195       3.58773156       0.64211948       0.53106503      -1.64450097
Si       6.85128871       5.07964418       1.50212991      -0.77823101       0.53731559      -0.23493848
Si       3.34039541       6.37993517       4.81014781      -0.28387440      -0.74101304       0.56556400
Si       6.16070980       2.33644142       5.62014523       0.39860942      -0.35607407      -0.81478183
Si       6.58358487       0.34671837       6.34835538       0.48841108      -0.48403687      -0.25890400
Si       7.35016459       5.42342909      -0.57176641      -0.23906625       0.53632101      -0.44167347
Si       1.45028144       7.20889468       5.44921468      -0.39488988      -0.17507611       0.59437251
Si       3.94984827       3.33236767       2.88222387       0.05470341       0.04615161       0.03991735
16
Lattice="7.8543944824882574 -1.4468399567400145 -1.2513975329447191 -0.10369719952859882 7.985869109731962 -1.2513975329447249 -0.10369719952859802 -0.08748619460238105 8.082848964875275" Properties=species:S:1:pos:R:3:forces:R:3 unique_starting_index=52 config_type=initial n_minim_iter=10 energy=-2591.4524502298095 stress="0.004070002439470734 0.00228781142397012 0.0011790675916016134 0.003806694254060032 0.004512066574838591 0.005216758089462629" pbc="T T T"
Si       4.81859392       1.13601122       2.24739879       0.82348705      -0.18362165       0.23952401
Si       3.16489450       4.34777720       0.80027896       0.34621062       0.77627666      -0.21622289
Si       1.93112462       2.88087110       4.18706455      -0.04234518       0.35845822       0.79933358
Si       0.50557816       2.69146441       2.13712186      -0.03930609       0.04306918      -0.24308587
Si       2.55207834       0.07697007       2.35538776      -0.23761418       0.00071245       0.07765086
Si       2.73816514       2.12132517      -0.26326983       0.03583610      -0.24717705      -0.01048530
Si       5.22167100       4.04811540       6.44537450      -1.34256361       0.78706192       0.77072711
Si       7.74128280       3.97498102       3.07701241       0.63754316      -1.47091039       0.66777626
Si       4.86952080       7.02162370       3.49005826       0.54977043       0.55286872      -1.55179008
Si       6.74764202       4.99689035       1.41615628      -0.69329002       0.54253093      -0.19678619
Si       3.22732685       6.29410098       4.74064751      -0.23161655      -0.66376815       0.56522675
Si       6.06168591       2.23864986       5.54522274       0.41805227      -0.30638044      -0.73829465
Si       6.49327737       0.24677953       6.28421525       0.51362142      -0.58641244      -0.24789754
Si       7.25819798       5.34752279      -0.66141877      -0.23862816       0.56182166      -0.54456655
Si       1.33656388       7.13502059       5.38702058      -0.49155904      -0.15811922       0.63443496
Si       3.87405439       3.26842266       2.82691670      -0.00759821      -0.00641039      -0.00554446
16
Lattice="7.590651779406691 -1.9589638523786423 -1.6943425709074642 -0.6529172428151374 7.812120895452817 -1.6943425709074658 -0.6529172428151344 -0.5508465534637699 7.974747501162467" Properties=species:S:1:pos:R:3:forces:R:3 unique_starting_index=52 config_type=initial n_minim_iter=11 energy=-2591.1858757138502 stress="-0.01786676609159677 -0.010544507180612945 -0.005989154003508132 -0.015640074923536897 -0.018538147394525577 -0.021433422768089364" pbc="T T T"
Si       4.32040315       0.55322910       1.81474078       0.83822266       0.67972993       0.10127289
Si       2.57619629       3.94292864       0.28593079       0.33647878       0.79288804       0.65804012
Si       1.27277987       2.39610081       3.86056502       0.81116141       0.20279452       0.68978095
Si       0.11146229       2.44519027       1.89895439      -0.58737023      -0.26998443      -1.22888586
Si       2.21841839      -0.26586031       2.14600680      -1.33594732      -0.36767905      -0.09007069
Si       2.42904768       1.83563414      -0.57234758      -0.36502850      -1.29294496      -0.35086092
Si       4.05160325       3.17358393       5.80046822      -3.69699797      -1.75306828      -0.71060821
Si       6.79097907       2.95029143       2.30454752      -1.56466321      -3.48327820      -1.63236282
Si       3.81046452       6.23845761       2.58738522      -2.35052286      -1.18582322      -3.21167744
Si       5.80832966       4.25312366       0.62510470      -0.94499870       0.54491943       0.47272898
Si       2.19189715       5.51804970       4.11864352       0.37940879      -1.02349424       0.47110605
Si       5.17038098       1.34047057       4.86690961       0.37802514       0.32033208      -1.08070197
Si       5.68683908      -0.68788121       5.71052745       2.89847646       1.36650872       3.17217119
Si       6.43004781       4.67086386      -1.50364861       3.77639106       2.29539690       0.89510090
Si       0.27946303       6.47544331       4.83879918       1.83503091       3.51763862       2.14244302
Si       3.18381684       2.68609009       2.32324693      -0.40766642      -0.34393584      -0.29747621
16
Lattice="7.799019816933282 -1.5992335178622417 -1.3832054260960194 -0.2632387584659963 7.956944344760308 -1.3832054260960227 -0.2632387584659941 -0.22208658820813731 8.073221048858546" Properties=species:S:1:pos:R:3:forces:R:3 unique_starting_index=52 config_type=initial n_minim_iter=12 energy=-2592.586527361539 stress="0.008015798332602716 0.006783185982294911 0.006016348206049655 0.0026328144980756127 0.0031206694106778884 0.0036080534475120317" pbc="T T T"
Si       4.71792060       0.95623881       2.12745942       0.53900354       0.08609024       0.15916481
Si       3.00541348       4.27288735       0.63966763       0.25823898       0.50269953       0.06225425
Si       1.73696792       2.75224487       4.13610223       0.17561602       0.23198159       0.48848064
Si       0.39283876       2.63386268       2.05367228      -0.09384017       0.03704706      -0.33283404
Si       2.44351378      -0.01885788       2.31041327      -0.33519521      -0.03794329       0.08462528
Si       2.66240326       2.02412937      -0.35161619       0.02071777      -0.34358901      -0.04974263
Si       4.81317881       3.83962145       6.32002918      -0.89175931      -0.12744323       0.56025824
Si       7.52061954       3.59826468       2.88875839       0.37824072      -0.96928422      -0.20685210
Si       4.59522352       6.84461822       3.14440365      -0.27577397       0.43082516      -0.92935684
Si       6.45516619       4.83089732       1.19200935      -0.18480547       0.35130078       0.04159306
Si       2.93586087       6.04717545       4.60868914       0.05935798      -0.19762133       0.34163975
Si       5.84881705       1.97932333       5.31989134       0.31516856       0.00638249      -0.24479240
Si       6.31289699      -0.05336775       6.14707394       0.27587115      -0.06127892      -0.14284992
Si       7.05141726       5.19985086      -0.93866946      -0.10159558       0.29722077      -0.04005307
Si       1.01033022       6.98097020       5.28084488      -0.01395414      -0.10068350       0.29989033
Si       3.68274618       3.10702171       2.68731815      -0.12529087      -0.10570412      -0.09142537
16
Lattice="7.663008383315171 -1.6340282541372015 -1.4133000104563058 -0.3204376971851082 7.828733326681887 -1.4133000104563114 -0.32043769718510595 -0.2703436048544714 7.950685300976877" Properties=species:S:1:pos:R:3:forces:R:3 unique_starting_index=52 config_type=initial n_minim_iter=13 energy=-2592.764464267965 stress="-0.0010790623138897944 -0.0019435650739016578 -0.002481393000429613 0.0018465459698257436 0.002188707004099142 0.0025305377813857805" pbc="T T T"
Si       4.59729940       0.88022239       2.04987592       0.57873594       0.08429413       0.19049911
Si       2.89862791       4.16875957       0.57562531       0.29523832       0.53668740       0.05596128
Si       1.64172716       2.66018110       4.04229056       0.18053551       0.26867650       0.52302062
Si       0.34380975       2.57119341       1.99788692      -0.28903013      -0.17653876      -0.35047642
Si       2.37194123      -0.05637142       2.25643743      -0.41560990      -0.22222439      -0.12418859
Si       2.59237344       1.96348225      -0.38095965      -0.22268385      -0.38359199      -0.20200782
Si       4.61964942       3.68497370       6.16389145      -1.13244606      -0.08697858       0.27687742
Si       7.31376378       3.43726612       2.75822603       0.06704398      -1.16030027      -0.12597164
Si       4.41019811       6.66637134       3.00389676      -0.27641275       0.11523022      -1.13003472
Si       6.26444370       4.68125168       1.08905748      -0.47596522       0.39616640       0.41296631
Si       2.78206757       5.87996063       4.47544203       0.37895710      -0.54759020       0.33251821
Si       5.66919495       1.85398449       5.17362430       0.31036952       0.33143038      -0.58979364
Si       6.13551293      -0.15347752       5.99901574       0.65786018      -0.30908671       0.47557651
Si       6.86290831       5.05209757      -1.01639748       0.53075397       0.57672828      -0.37439597
Si       0.88178262       6.81168865       5.14583534      -0.19390645       0.57156326       0.62466259
Si       3.55554320       2.99970440       2.59449751       0.00655985       0.00553435       0.00478676
16
Lattice="7.693829569661958 -1.6735466143017415 -1.4474801408747062 -0.35420232507804583 7.865768394133812 -1.447480140874712 -0.3542023250780426 -0.2988298013954298 7.992259501428811" Properties=species:S:1:pos:R:3:forces:R:3 unique_starting_index=52 config_type=initial n_minim_iter=14 energy=-2592.8476370462104 stress="0.0007594521735315711 0.00025657796917439034 -5.627215692190473e-05 0.0010741207651180362 0.0012731530525098085 0.0014719932381746306" pbc="T T T"
Si       4.59664404       0.85209886       2.03694037       0.55407876       0.17494165       0.10880228
Si       2.88190477       4.17095125       0.54965949       0.22427360       0.52379487       0.15743597
Si       1.61389480       2.64796990       4.04820132       0.26573719       0.18213030       0.49563908
Si       0.32244305       2.57217338       1.99528385      -0.28707677      -0.16310621      -0.43504862
Si       2.36594369      -0.07702312       2.25778231      -0.49586742      -0.20653362      -0.09870850
Si       2.58974180       1.95784736      -0.40158959      -0.20911418      -0.46732984      -0.19015279
Si       4.57776575       3.65504261       6.16497326      -1.11265221      -0.23539690       0.29775390
Si       7.30351503       3.39652644       2.72845147       0.06965711      -1.14066608      -0.27584924
Si       4.37364217       6.66221841       2.96787317      -0.41937930       0.14230188      -1.08900652
Si       6.24548217       4.66691300       1.05328750      -0.32287958       0.40737882       0.26847445
Si       2.74194681       5.86757766       4.46640785       0.26538349      -0.37288733       0.36443640
Si       5.65186833       1.81624226       5.16267251       0.34719770       0.20992102      -0.42151414
Si       6.12701305      -0.21085511       6.00508882       0.64124539      -0.10033062       0.45223099
Si       6.85925036       5.04409941      -1.07405134       0.53483890       0.55917508      -0.16445463
Si       0.82379304       6.81788315       5.14622920       0.00907170       0.54103584       0.57703784