14
Lattice="3.7529340079560227 -0.36678005234389016 0.2839230088260599 -1.2956099283899154 5.3990077404423635 -0.8784176792400054 2.4740590734866466 -2.0420712772558396 19.667321716585235" Properties=species:S:1:pos:R:3:forces:R:3 unique_starting_index=252 config_type=initial n_minim_iter=1 energy=-2278.742069301065 stress="7.658396148008677e-06 -4.661187426737843e-05 6.180140325905225e-05 -4.661187426737843e-05 -4.773615114820461e-05 -2.861749058890792e-05 6.180140325905225e-05 -2.861749058890792e-05 -2.5503180107212903e-05" free_energy=-2278.742069301065 pbc="T T T"
Si       4.10665528       4.22751538      13.69095317       0.00769393       0.00750459      -0.00121990
Si       2.29786257      -0.83557903       4.00259071       0.00365207       0.00807449       0.00440305
Si       0.52573178      -0.68504076       2.44862448       0.00617826       0.00196957       0.00673696
Si       1.82363859       2.24657582      16.24516118      -0.00804381       0.01277051      -0.00237978
Si       4.11530392       2.20187295      10.58622540       0.00739610      -0.00473777       0.00944532
Si       5.53480254       1.18607830      18.42836475       0.00247930      -0.00634410       0.00574705
Si       1.61739268      -0.13320331       8.82668863       0.00517634       0.01704257      -0.00046681
Si       4.30156658       2.56430011       8.25527805      -0.00413989      -0.01192121      -0.00369257
Si       5.25186477       0.16247258      20.44157839      -0.00879899      -0.00877560      -0.00422680
Si       0.73537455       1.45568030       1.63952193       0.00592550       0.00225664      -0.00827716
Si       2.06566243       1.04173131      10.80038607      -0.01348312       0.00442382      -0.00092733
Si       2.30953527       1.29175753       5.02943124      -0.01155085       0.00560455      -0.01232937
Si       0.60195108       2.38986280       3.84531058       0.00449930      -0.01694969      -0.00250229
Si       2.37130952       1.53125476       7.34679833       0.00301587      -0.01091838       0.00968962
14
Lattice="3.7528031223045284 -0.3664380825437121 0.2834371762398977 -1.2949574537334694 5.399363515291153 -0.8779794087693449 2.4713125471963995 -2.0408718386272096 19.667921494564816" Properties=species:S:1:pos:R:3:forces:R:3 unique_starting_index=252 config_type=initial n_minim_iter=2 energy=-2278.742082900615 stress="8.612531264775375e-07 4.3827879445228676e-05 -3.250057838782952e-05 4.3827879445228676e-05 7.963667224047534e-05 2.0666395153132378e-05 -3.250057838782952e-05 2.0666395153132378e-05 7.49231441667166e-05" free_energy=-2278.742082900615 pbc="T T T"
Si       4.10529140       4.22917782      13.69139360       0.00549690       0.00857629       0.00154968
Si       2.29725465      -0.83515969       4.00248279       0.00684255       0.00611077       0.00618989
Si       0.52537847      -0.68490224       2.44868250       0.00253817       0.00263375       0.00478095
Si       1.82170847       2.24800268      16.24590426      -0.00651767       0.01037660      -0.00227482
Si       4.11413958       2.20308640      10.58643933       0.00343801      -0.00360166       0.00747014
Si       5.53249010       1.18778310      18.42873055       0.00179508      -0.00662354       0.00345272
Si       1.61625558      -0.13244632       8.82693685       0.00564531       0.01483102      -0.00062110
Si       4.30066910       2.56539040       8.25529542      -0.00408645      -0.01029011      -0.00261630
Si       5.24913995       0.16415498      20.44197170      -0.01096434      -0.00590948      -0.00477110
Si       0.73532598       1.45600385       1.63955551       0.00892700       0.00097508      -0.00532725
Si       2.06427801       1.04269542      10.80074802      -0.00943852       0.00474814      -0.00093246
Si       2.30891832       1.29243505       5.02941079      -0.00722596       0.00327370      -0.00980778
Si       0.60170521       2.39029166       3.84556402       0.00088104      -0.01420437      -0.00580266
Si       2.37049793       1.53200907       7.34702589       0.00266887      -0.01089618       0.00871008
14
Lattice="3.7526852522867427 -0.3663977401778528 0.28308423854412984 -1.2948636952962664 5.398738174168313 -0.8776296056815596 2.469684051804774 -2.0402727489119195 19.664455876571562" Properties=species:S:1:pos:R:3:forces:R:3 unique_starting_index=252 config_type=initial n_minim_iter=3 energy=-2278.742102560295 stress="-0.00010906177182177249 4.940984561028936e-05 -8.005078150790382e-05 4.940984561028936e-05 -9.033453124271065e-05 6.571608957912281e-05 -8.005078150790382e-05 6.571608957912281e-05 -0.00018966686736613647" free_energy=-2278.742102560295 pbc="T T T"
Si       4.10419360       4.22908251      13.68890132       0.00353906       0.00928576      -0.00426369
Si       2.29696439      -0.83487861       4.00171303       0.00895564       0.00226924       0.00699697
Si       0.52524065      -0.68474164       2.44831852       0.00022270       0.00083986       0.00298852
Si       1.82024423       2.24824023      16.24309592      -0.00420529       0.01060152      -0.00033114
Si       4.11327300       2.20296303      10.58455122      -0.00052968      -0.00151888       0.00640266
Si       5.53091113       1.18788261      18.42535941       0.00136936      -0.00350476       0.00244323
Si       1.61559854      -0.13200851       8.82534697       0.00346526       0.00644891      -0.00095785
Si       4.29982937       2.56506890       8.25359425      -0.00243636      -0.00541408      -0.00260878
Si       5.24721359       0.16439586      20.43812582      -0.01004001      -0.00635095      -0.00011458
Si       0.73529555       1.45589477       1.63914545       0.00790629      -0.00140121      -0.00666217
Si       2.06317679       1.04285303      10.79881436      -0.00472671       0.00345117       0.00391301
Si       2.30830461       1.29245149       5.02824599      -0.00369559       0.00241674      -0.00601541
Si       0.60142157       2.38984051       3.84486126      -0.00236792      -0.00890846      -0.00626296
Si       2.36989468       1.53179342       7.34580852       0.00254327      -0.00821488       0.00447220
14
Lattice="3.7533433881928757 -0.36678047635311717 0.2832162475172663 -1.2956149758347784 5.398857395062878 -0.8782347270316294 2.470670608569284 -2.042311064406443 19.666414184602157" Properties=species:S:1:pos:R:3:forces:R:3 unique_starting_index=252 config_type=initial n_minim_iter=4 energy=-2278.742135095399 stress="7.38833001906269e-05 -1.6133563679567808e-05 -7.225416105545214e-05 -1.6133563679567808e-05 -3.9505270197432566e-05 -5.918777775924243e-05 -7.225416105545214e-05 -5.918777775924243e-05 4.081486740035533e-06" free_energy=-2278.742135095399 pbc="T T T"
Si       4.10492167       4.22760531      13.68976902       0.00191562       0.00686550      -0.00305980
Si       2.29768851      -0.83525826       4.00236414       0.00720430      -0.00532006       0.00237497
Si       0.52555765      -0.68494288       2.44877588       0.00107792       0.00044534       0.00470359
Si       1.82042676       2.24687765      16.24427837      -0.00342542       0.00683263       0.00962638
Si       4.11408461       2.20142415      10.58561081      -0.00319417       0.00010628       0.00414877
Si       5.53212947       1.18541946      18.42710315       0.00144199       0.00069885      -0.00503312
Si       1.61621251      -0.13252426       8.82614315       0.00015382      -0.00537042      -0.00030130
Si       4.30032687       2.56351722       8.25406342       0.00114996       0.00069559       0.00168583
Si       5.24814168       0.16175328      20.43987840      -0.00202407      -0.00398960      -0.00198629
Si       0.73554912       1.45568331       1.63895225       0.00071161      -0.00279333      -0.00761629
Si       2.06329543       1.04177133      10.79969648      -0.00044518       0.00287827       0.00518492
Si       2.30838821       1.29186953       5.02828325      -0.00065277       0.00471211       0.00206631
Si       0.60142368       2.38892226       3.84484172      -0.00408851      -0.00153180      -0.00738481
Si       2.37036888       1.53052004       7.34662427       0.00017490      -0.00422936      -0.00440916
14
Lattice="3.7531209644146872 -0.3667857142235747 0.28362195292968695 -1.2956312607803608 5.399098218509535 -0.8780481908717185 2.4727297276660747 -2.0411589755392314 19.666887448594778" Properties=species:S:1:pos:R:3:forces:R:3 unique_starting_index=252 config_type=initial n_minim_iter=5 energy=-2278.74214351282 stress="-3.211627470225396e-05 -3.2232892223104466e-05 1.2414249620489558e-06 -3.2232892223104466e-05 1.639447764868359e-05 2.017295660658318e-05 1.2414249620489558e-06 2.017295660658318e-05 1.4316264758688179e-05" free_energy=-2278.74214351282 pbc="T T T"
Si       4.10624601       4.22881055      13.69071602       0.00267560       0.00772937      -0.00248453
Si       2.29806317      -0.83501703       4.00269218       0.00370429      -0.00541226       0.00324490
Si       0.52583419      -0.68480421       2.44889416       0.00439950      -0.00117255       0.00293643
Si       1.82206930       2.24816659      16.24491887      -0.00381959       0.00564166       0.00942239
Si       4.11502508       2.20219231      10.58647662      -0.00346269       0.00055326       0.00292201
Si       5.53385995       1.18661891      18.42812536       0.00199939       0.00118607      -0.00750735
Si       1.61714450      -0.13186619       8.82645719      -0.00043107      -0.00958555       0.00289284
Si       4.30093906       2.56410374       8.25483284       0.00036224       0.00298214       0.00203772
Si       5.25000737       0.16299868      20.44078111       0.00143603      -0.00257921       0.00047793
Si       0.73574870       1.45586640       1.63907048      -0.00360317      -0.00341911      -0.00574564
Si       2.06428870       1.04256998      10.80019458      -0.00007630       0.00349230       0.00442973
Si       2.30872673       1.29231456       5.02863398      -0.00183004       0.00252733       0.00443828
Si       0.60181490       2.38917415       3.84506052      -0.00288236       0.00017927      -0.00927810
Si       2.37106157       1.53097135       7.34716518       0.00152817      -0.00212271      -0.00778660
14
Lattice="3.753442232174602 -0.3661330849499789 0.2840997510353794 -1.2949248895271943 5.398773965534273 -0.8783380149499653 2.4751327626032706 -2.041316043351103 19.666123467201448" Properties=species:S:1:pos:R:3:forces:R:3 unique_starting_index=252 config_type=initial n_minim_iter=6 energy=-2278.742151716015 stress="5.379672243242461e-05 6.393684499142329e-05 4.1600912338256735e-05 6.393684499142329e-05 -3.0527405947643313e-06 -4.1799409343314135e-06 4.1600912338256735e-05 -4.1799409343314135e-06 -2.781476298187761e-05" free_energy=-2278.742151716015 pbc="T T T"
Si       4.10923122       4.22920774      13.69025353       0.00156831       0.00588795      -0.00187451
Si       2.29879103      -0.83476653       4.00289389       0.00037012      -0.00588200       0.00194501
Si       0.52618289      -0.68476966       2.44895755       0.00785675      -0.00211039       0.00275407
Si       1.82458055       2.24813143      16.24429226      -0.00411780       0.00810932       0.00479607
Si       4.11713107       2.20248586      10.58645821      -0.00706300       0.00115409       0.00232302
Si       5.53700505       1.18691911      18.42763388       0.00289319       0.00131808      -0.00272435
Si       1.61845187      -0.13188604       8.82618803      -0.00108861      -0.00741204       0.00407849
Si       4.30281854       2.56446994       8.25482788      -0.00289406       0.00201158       0.00159922
Si       5.25306390       0.16312157      20.44021732       0.00212416      -0.00175058       0.00081592
Si       0.73630785       1.45585637       1.63883768      -0.00406123      -0.00533964      -0.00730884
Si       2.06594471       1.04266288      10.79988186       0.00440546       0.00168328       0.00332778
Si       2.30969982       1.29262221       5.02856713      -0.00013422       0.00254279       0.00272341
Si       0.60273880       2.38895002       3.84462406      -0.00481876       0.00176919      -0.00708847
Si       2.37254317       1.53095635       7.34694347       0.00495971      -0.00198162      -0.00536681
14
Lattice="3.752630816027151 -0.366479284918957 0.2839355643284883 -1.295084718334842 5.398602067311101 -0.8788200289362824 2.4736114783002043 -2.043155918285458 19.667901452435178" Properties=species:S:1:pos:R:3:forces:R:3 unique_starting_index=252 config_type=initial n_minim_iter=7 energy=-2278.742184263997 stress="-0.00011788758802788107 9.837663759000584e-06 -4.436632514124152e-06 9.837663759000584e-06 -2.9726153043274508e-05 -5.402391424352126e-05 -4.436632514124152e-06 -5.402391424352126e-05 5.397801897907718e-05" free_energy=-2278.742184263997 pbc="T T T"
Si       4.10748783       4.22815891      13.69062786      -0.00287173       0.00253468       0.00429264
Si       2.29856697      -0.83557683       4.00357820       0.00206572      -0.00190343       0.00250565
Si       0.52651561      -0.68503475       2.44962624       0.00606796      -0.00530886      -0.00149577
Si       1.82248632       2.24725310      16.24605714       0.00129099       0.01279713      -0.00451476
Si       4.11512731       2.20096471      10.58743834      -0.00390152       0.00721103      -0.00366657
Si       5.53482934       1.18461511      18.42846785       0.00050763      -0.00293593       0.01005209
Si       1.61768263      -0.13311493       8.82710694       0.00030953      -0.00337913       0.00250232
Si       4.30098984       2.56307430       8.25514921       0.00269241      -0.00201951       0.00590795
Si       5.25049488       0.16038468      20.44161218       0.00562640       0.00800994      -0.00780358
Si       0.73586316       1.45523713       1.63805694      -0.00668331      -0.01074200      -0.00420163
Si       2.06456968       1.04180836      10.80098113       0.00171313      -0.00509834       0.00078151
Si       2.30843851       1.29223624       5.02877568      -0.00080754      -0.00135400      -0.00092783
Si       0.60189394       2.38801335       3.84387275      -0.00411661       0.00295716      -0.00397516
Si       2.37172833       1.52947436       7.34699632      -0.00189305      -0.00076874       0.00054314
14
Lattice="3.753244805235702 -0.3667909978845413 0.2838063758144854 -1.2957334496488337 5.398890891656851 -0.8782014419968667 2.4737975576865012 -2.041547218725197 19.666163265907656" Properties=species:S:1:pos:R:3:forces:R:3 unique_starting_index=252 config_type=initial n_minim_iter=8 energy=-2278.7421970139494 stress="1.2516069970682014e-05 -3.9861390210212304e-05 -1.5670200173931664e-05 -3.9861390210212304e-05 1.5008046057591486e-05 2.6436264273744516e-05 -1.5670200173931664e-05 2.6436264273744516e-05 -7.442296423886705e-07" free_energy=-2278.7421970139494 pbc="T T T"
Si       4.10763618       4.22970296      13.68986222      -0.00478921       0.00188189       0.00505330
Si       2.29911238      -0.83555338       4.00332172       0.00424466       0.00207243       0.00049109
Si       0.52686217      -0.68492410       2.44952533       0.00380455      -0.00773020      -0.00073920
Si       1.82206385       2.24923262      16.24523289       0.00310177       0.01406367      -0.01284628
Si       4.11524961       2.20177684      10.58694489      -0.00234379       0.00668002      -0.00241500
Si       5.53534489       1.18594995      18.42699912       0.00054130      -0.00247647       0.01228178
Si       1.61782084      -0.13253335       8.82649737       0.00024457      -0.00348839       0.00410719
Si       4.30123715       2.56358526       8.25475468       0.00606876      -0.00504824       0.00349181
Si       5.25086880       0.16181626      20.43989233       0.00546339       0.00789613      -0.00211509
Si       0.73576427       1.45521680       1.63773023      -0.00628751      -0.01005665      -0.00431288
Si       2.06453326       1.04285426      10.80037166       0.00009285      -0.00366649       0.00002399
Si       2.30845268       1.29273162       5.02847197      -0.00062702      -0.00373990      -0.00559244
Si       0.60157832       2.38831744       3.84344108      -0.00448178       0.00016364      -0.00174552
Si       2.37193378       1.52985294       7.34642227      -0.00503256       0.00344858       0.00431726
14
Lattice="3.7532860417350773 -0.36602532323197706 0.28455410045599944 -1.2948156767293932 5.398433578339976 -0.8788651155426499 2.4773419196455957 -2.042821571877603 19.664314301814738" Properties=species:S:1:pos:R:3:forces:R:3 unique_starting_index=252 config_type=initial n_minim_iter=9 energy=-2278.7422532702785 stress="5.8782656787737045e-05 5.736367582303065e-05 2.5598192888754646e-05 5.736367582303065e-05 -3.4718581137012375e-05 -8.606915839776264e-07 2.5598192888754646e-05 -8.606915839776264e-07 -8.872602736602745e-06" free_energy=-2278.7422532702785 pbc="T T T"
Si       4.11169324       4.23091790      13.68848930      -0.01021985       0.00222205      -0.00088583
Si       2.30098934      -0.83591614       4.00424439       0.00288654       0.00389271      -0.00372972
Si       0.52872883      -0.68571147       2.45017904       0.00581621      -0.00884296      -0.00350692
Si       1.82492701       2.25101721      16.24359753       0.00707527      -0.00043644       0.01245277
Si       4.11708857       2.20198037      10.58695875       0.00026767       0.00627080      -0.00351313
Si       5.53991811       1.18485636      18.42596896       0.00091275       0.01724313      -0.00823287
Si       1.61982537      -0.13383491       8.82645562       0.00130880       0.00520438       0.00243672
Si       4.30355643       2.56293624       8.25479222       0.00247202      -0.01025948       0.00083812
Si       5.25511400       0.16073501      20.43774504      -0.00184032       0.00400703       0.00236064
Si       0.73579088       1.45361333       1.63557515       0.00032638      -0.01253478      -0.00404025
Si       2.06660571       1.04258101      10.80002094      -0.00042806      -0.00385413      -0.00293245
Si       2.30899879       1.29315710       5.02774034      -0.00254296      -0.00615843      -0.00908177
Si       0.60191955       2.38721201       3.84092723      -0.00313230      -0.00025179       0.00414764
Si       2.37402087       1.52866861       7.34551322      -0.00290215       0.00349790       0.01368705
14
Lattice="3.7526894364177004 -0.3667207549193646 0.2842999937095661 -1.2953131271952276 5.400422492199414 -0.8794359348396129 2.4759283096527174 -2.0469422496854333 19.659877492456015" Properties=species:S:1:pos:R:3:forces:R:3 unique_starting_index=252 config_type=initial n_minim_iter=10 energy=-2278.742292969963 stress="-5.191231866464392e-05 -3.057081590159686e-05 -7.299575806760091e-06 -3.057081590159686e-05 0.00017254123686611598 -6.936646355163176e-05 -7.299575806760091e-06 -6.936646355163176e-05 -0.00010876935602449722" free_energy=-2278.742292969963 pbc="T T T"
Si       4.10931369       4.23061505      13.68435815      -0.01055803       0.00135471      -0.00087514
Si       2.30128853      -0.83731328       4.00368532       0.00578869      -0.00298829      -0.00089469
Si       0.52964766      -0.68716822       2.44998070       0.00258802      -0.00209827      -0.00751520
Si       1.82303244       2.25069387      16.23984678       0.00836393      -0.00210957       0.01280498
Si       4.11491966       2.20096294      10.58411374       0.00707139       0.00160903       0.00177757
Si       5.53795006       1.18182548      18.42110730      -0.00038907       0.02283526      -0.00455114
Si       1.61916179      -0.13593374       8.82486255       0.00183436      -0.00346599      -0.00492359
Si       4.30215483       2.56111431       8.25255216       0.00397918      -0.00070172      -0.00215512
Si       5.25294700       0.15692122      20.43232824      -0.00544039      -0.00267754       0.00087998
Si       0.73489571       1.45229203       1.63366237       0.00345780      -0.01399240      -0.00502172
Si       2.06521159       1.04092465      10.79752632      -0.00662536       0.00441347       0.00036057
Si       2.30758825       1.29244428       5.02568709      -0.00688808      -0.00598690      -0.00575445
Si       0.60054971       2.38688870       3.83862020       0.00209385       0.00350613       0.00356269
Si       2.37288811       1.52730823       7.34365315      -0.00527629       0.00030209       0.01230526
14
Lattice="3.7523246225514297 -0.3671164704623917 0.28396161696721767 -1.2959098228957553 5.398457318778444 -0.8789005978933169 2.4740882684513736 -2.044324111528416 19.66380946715236" Properties=species:S:1:pos:R:3:forces:R:3 unique_starting_index=252 config_type=initial n_minim_iter=11 energy=-2278.7423338769145 stress="-0.00011346258256676996 -0.00011195927129774695 -5.0300785765693075e-05 -0.00011195927129774695 -9.4826597501174e-05 7.33982446978448e-05 -5.0300785765693075e-05 7.33982446978448e-05 0.0001454866716994574" free_energy=-2278.7423338769145 pbc="T T T"
Si       4.10646821       4.23200966      13.68750871      -0.01071041       0.00372506       0.00322065
Si       2.30233875      -0.83724028       4.00496060       0.01315777      -0.00447459      -0.00971634
Si       0.53139759      -0.68810427       2.45083965      -0.00519874      -0.00581541       0.00052203
Si       1.82068203       2.25461211      16.24468086       0.01008843      -0.00762124       0.01088043
Si       4.11240834       2.20172680      10.58682795       0.01214867       0.00091370       0.00252120
Si       5.53602271       1.18351545      18.42476566      -0.00415401       0.01989906      -0.00570875
Si       1.61849170      -0.13590868       8.82757966       0.00251929      -0.00376272      -0.00451269
Si       4.30096757       2.55920140       8.25490979       0.00114574       0.00122674      -0.00193554
Si       5.25045377       0.15856471      20.43595722      -0.01244473      -0.00832561       0.00100920
Si       0.73369904       1.44914324       1.63182369       0.01221068       0.00530978      -0.00173438
Si       2.06336520       1.04157886      10.80046249      -0.01220230       0.00761075       0.00115258
Si       2.30566454       1.29213632       5.02573181      -0.00877760      -0.00152429       0.01639413
Si       0.59859362       2.38571352       3.83798134       0.00495006      -0.00553406      -0.00413995
Si       2.37158696       1.52660939       7.34586827      -0.00273286      -0.00162716      -0.00795257
14
Lattice="3.7528107257541037 -0.3663099334605509 0.2846601890511485 -1.294901122176166 5.399596168150057 -0.8798051342742369 2.477741758750466 -2.047648339357867 19.658047748352658" Properties=species:S:1:pos:R:3:forces:R:3 unique_starting_index=252 config_type=initial n_minim_iter=12 energy=-2278.7423977425765 stress="3.1169912853172446e-05 3.3136106221282484e-05 1.8933497775276222e-05 3.3136106221282484e-05 5.878432022882499e-05 -3.53982540720324e-05 1.8933497775276222e-05 -3.53982540720324e-05 -6.066336340747654e-05" free_energy=-2278.7423977425765 pbc="T T T"
Si       4.11056382       4.23235547      13.68294710      -0.01016269      -0.00092867       0.00629017
Si       2.30389328      -0.83777949       4.00425795       0.00573324      -0.00836960      -0.00626862
Si       0.53221033      -0.68889784       2.45044072       0.00221200      -0.00159722      -0.00390988
Si       1.82465650       2.25346643      16.23978576       0.00687542       0.00255940      -0.00841076
Si       4.11567459       2.20156946      10.58404161       0.00356292      -0.00006911       0.00424490
Si       5.54078841       1.18259743      18.41926492      -0.00282129       0.01554683       0.01674142
Si       1.62056987      -0.13723465       8.82503570       0.00086956      -0.00561282      -0.00540394
Si       4.30380304       2.55917553       8.25254346      -0.00268238       0.00542245      -0.00418177
Si       5.25478028       0.15598828      20.43000954      -0.00514621      -0.00656282      -0.00227421
Si       0.73469451       1.44889986       1.63043807       0.00569646      -0.00335822      -0.00553960
Si       2.06559633       1.04079338      10.79726589      -0.00221614       0.00747751       0.00120594
Si       2.30678133       1.29222712       5.02428259      -0.00439879      -0.00255399       0.00689925
Si       0.59986671       2.38538617       3.83583058       0.00101094       0.00053539       0.00097857
Si       2.37378716       1.52593234       7.34363673       0.00146695      -0.00248912      -0.00037149
14
Lattice="3.752555131485398 -0.36645880668219216 0.28447636230113604 -1.2949644715420954 5.399403666116824 -0.8803123156185744 2.476829330105135 -2.0505862012594407 19.652423019038977" Properties=species:S:1:pos:R:3:forces:R:3 unique_starting_index=252 config_type=initial n_minim_iter=13 energy=-2278.742509592242 stress="4.5007466614747856e-05 3.6055197970470935e-05 1.569225733110624e-05 3.6055197970470935e-05 -6.831502281562611e-05 1.3952724449714052e-05 1.569225733110624e-05 1.3952724449714052e-05 1.7117638946014284e-05" free_energy=-2278.742509592242 pbc="T T T"
Si       4.10765499       4.23450302      13.67859358      -0.00331507       0.00198031       0.01103542
Si       2.30787598      -0.83996474       4.00376600       0.00532719      -0.00895734      -0.00402524
Si       0.53616636      -0.69242372       2.45068743       0.00192876       0.00402388      -0.00431068
Si       1.82391127       2.25756305      16.23679564      -0.00072852      -0.00233770      -0.01165177
Si       4.11406860       2.20171931      10.58205282      -0.00513233      -0.00136883       0.00474190
Si       5.54055114       1.18318586      18.41416613      -0.00731408       0.00791674       0.02659002
Si       1.62099593      -0.14066932       8.82372835       0.00109609      -0.00179401      -0.00586206
Si       4.30365264       2.55545647       8.25040744      -0.00510305       0.00880871      -0.00563888
Si       5.25257068       0.15201071      20.42262361       0.00431719      -0.00805246      -0.00902014
Si       0.73405587       1.44314022       1.62426619       0.00005377       0.00696800      -0.00167404
Si       2.06332699       1.04032713      10.79527974       0.00522822       0.00948242       0.00124013
Si       2.30350444       1.29119813       5.02165517       0.00300761      -0.00316645       0.00590131
Si       0.59741536       2.38290413       3.83041591      -0.00303109      -0.00793170      -0.00025939
Si       2.37324103       1.52291483       7.34192049       0.00366532      -0.00557158      -0.00706657
14
Lattice="3.7521306013953195 -0.3670384302937749 0.28383137331294067 -1.2953122372118462 5.400964310104832 -0.8807886508904497 2.473595699130815 -2.055016770655751 19.645233300398356" Properties=species:S:1:pos:R:3:forces:R:3 unique_starting_index=252 config_type=initial n_minim_iter=14 energy=-2278.742583421635 stress="-1.5735016799497117e-05 -1.5430402693572992e-05 -4.6288593675783e-06 -1.5430402693572992e-05 -1.699140392879266e-05 1.585971115243216e-05 -4.6288593675783e-06 1.585971115243216e-05 1.7599638628883187e-05" free_energy=-2278.742583421635 pbc="T T T"
Si       4.10257596       4.23526977      13.67313849       0.00636156       0.00726549       0.00850563
Si       2.31020412      -0.84275831       4.00194589       0.00134069      -0.00470125       0.00778441
Si       0.53827070      -0.69504787       2.44997716       0.00473191       0.00936097      -0.01076568
Si       1.82135591       2.25868637      16.23101564      -0.01057818      -0.01169626       0.01116217
Si       4.11130591       2.20101475      10.57838294      -0.01209487      -0.00019007       0.00126007
Si       5.53691017       1.18284736      18.40819796      -0.00858378       0.00689963       0.00886353
Si       1.62003663      -0.14409409       8.82059771       0.00218627       0.00641531      -0.00393942
Si       4.30169213       2.55322876       8.24638024       0.00039685       0.00453213      -0.00399461
Si       5.24787484       0.14665604      20.41327189       0.01501055      -0.00367990      -0.00960035
Si       0.73360822       1.43996770       1.61981119      -0.00962669       0.00415244       0.00262375
Si       2.06015875       1.03977303      10.79175003       0.00921764       0.00673901      -0.00155162
Si       2.30039445       1.28989688       5.01933178       0.00917853      -0.00923511      -0.01413599
Si       0.59516073       2.38136998       3.82621352      -0.00592332      -0.01106102       0.00164971
Si       2.37163045       1.52036996       7.33878384      -0.00161714      -0.00480138       0.00213840
14
Lattice="3.75187423835085 -0.36704351431054966 0.28358469439279294 -1.2949251036402711 5.402930531375102 -0.881529453907535 2.4719987239412067 -2.0592598614084103 19.641576225796015" Properties=species:S:1:pos:R:3:forces:R:3 unique_starting_index=252 config_type=initial n_minim_iter=15 energy=-2278.742682299794 stress="-2.3118860015338212e-05 -2.7943512703129514e-05 -1.9113963024771105e-05 -2.7943512703129514e-05 9.263772880086669e-05 -2.7196047308056976e-05 -1.9113963024771105e-05 -2.7196047308056976e-05 -1.3270119588637277e-05" free_energy=-2278.742682299794 pbc="T T T"
Si       4.10150510       4.23464361      13.67055394       0.00506515       0.00072701       0.00741208
Si       2.31012986      -0.84459271       4.00117270      -0.00318803      -0.00842389       0.00616042
Si       0.53817828      -0.69483513       2.44847256       0.00763139      -0.00220541      -0.01266264
Si       1.81987377       2.25519233      16.22737396      -0.00930194      -0.00209587       0.01847072
Si       4.10981273       2.19979521      10.57595655      -0.00017009       0.00558894      -0.00447538
Si       5.53432034       1.18149479      18.40594285      -0.00414949       0.01093471      -0.01152520
Si       1.61952561      -0.14545710       8.81792615       0.00130234       0.00751902       0.00209751