18
Lattice="5.268571934390884 0.20626897802849928 -6.7994086284367814e-15 -0.3643601935204968 8.854207061937814 -3.65535953362754e-16 1.6053431163993188e-14 1.1756234232837804e-15 12.474783640538224" Properties=species:S:1:pos:R:3:forces:R:3 unique_starting_index=242 config_type=initial n_minim_iter=1 energy=-2925.275606581807 stress="-0.0009256833144392335 -0.00019354643391635113 2.0698603077096788e-13 -0.00019354643391635113 -0.0012011538886079127 1.0492911781187996e-12 2.0698603077096788e-13 1.0492911781187996e-12 -0.0006687332158774348" free_energy=-2925.275606581807 pbc="T T T"
Si       2.11044861       5.50536049       0.69198182       0.05007743       0.02902351      -0.06889772
Si       0.15947716       3.45198105       6.92937364      -0.05007743      -0.02902351      -0.06889772
Si       2.79376313       3.55511554      11.78280182      -0.05007743      -0.02902351       0.06889772
Si       4.74473458       5.60849498       5.54541000       0.05007743       0.02902351       0.06889772
Si       3.68802524       3.60299166       1.86699273       0.04793393       0.03415727       0.01214315
Si       3.85047247       5.56061887       8.10438455      -0.04793393      -0.03415727       0.01214315
Si       1.21618650       5.45748438      10.60779091      -0.04793393      -0.03415727      -0.01214315
Si       1.05373927       3.49985717       4.37039909       0.04793393       0.03415727      -0.01214315
Si       3.93366871       6.84950453       0.11348869      -0.05561578      -0.03189351      -0.09527577
Si       3.60482900       2.31410599       6.35088051       0.05561578       0.03189351      -0.09527577
Si       0.97054304       2.21097150      12.36129495       0.05561578       0.03189351       0.09527577
Si       1.29938274       6.74637004       6.12390313      -0.05561578      -0.03189351       0.09527577
Si       3.97713368       3.50559145       4.27554387      -0.04593105      -0.05818883       0.00471336
Si       3.56136403       5.65801907      10.51293569       0.04593105       0.05818883       0.00471336
Si       0.92707806       5.55488459       8.19923977       0.04593105       0.05818883      -0.00471336
Si       1.34284771       3.40245696       1.96184795      -0.04593105      -0.05818883      -0.00471336
Si      -0.18218010       4.42710353      -0.00000000      -0.00000000      -0.00000000      -0.00000000
Si       2.45210587       4.53023802       6.23739182       0.00000000       0.00000000       0.00000000
18
Lattice="5.271276810042298 0.20696641835312482 -6.802955179906852e-15 -0.36360271005477796 8.860019258783845 -3.670584778389325e-16 1.60593363757368e-14 1.1760558732176467e-15 12.479372456355893" Properties=species:S:1:pos:R:3:forces:R:3 unique_starting_index=242 config_type=initial n_minim_iter=2 energy=-2925.2761182159566 stress="0.00026846410238435896 8.270768972355021e-05 1.020835148013383e-12 8.270768972355021e-05 -0.00019377503214071403 -3.4046387156228063e-12 1.020835148013383e-12 -3.4046387156228063e-12 0.00046237247556843745" free_energy=-2925.2761182159566 pbc="T T T"
Si       2.11215695       5.50925071       0.69217133       0.05486097       0.01615752      -0.07638669
Si       0.15987875       3.45425176       6.93185756      -0.05486097      -0.01615752      -0.07638669
Si       2.79551716       3.55773497      11.78720112      -0.05486097      -0.01615752       0.07638669
Si       4.74779535       5.61273391       5.54751489       0.05486097       0.01615752       0.07638669
Si       3.69033228       3.60579762       1.86769096       0.03684356       0.04093092       0.01303752
Si       3.85298022       5.56467126       8.10737719      -0.03684356      -0.04093092       0.01303752
Si       1.21734182       5.46118805      10.61168150      -0.03684356      -0.04093092      -0.01303752
Si       1.05469388       3.50231441       4.37199527       0.03684356       0.04093092      -0.01303752
Si       3.93634885       6.85441964       0.11344050      -0.06456588      -0.06196890      -0.10358492
Si       3.60696366       2.31604924       6.35312673       0.06456588       0.06196889      -0.10358492
Si       0.97132525       2.21256603      12.36593195       0.06456588       0.06196889       0.10358492
Si       1.30071045       6.75093643       6.12624572      -0.06456588      -0.06196890       0.10358492
Si       3.97948895       3.50827664       4.27712106      -0.03745727      -0.04405968       0.01125767
Si       3.56382356       5.66219224      10.51680729       0.03745727       0.04405968       0.01125767
Si       0.92818515       5.55870903       8.20225139       0.03745727       0.04405968      -0.01125767
Si       1.34385054       3.40479344       1.96256516      -0.03745727      -0.04405968      -0.01125767
Si      -0.18180135       4.43000963      -0.00000000       0.00000000       0.00000000       0.00000000
Si       2.45383705       4.53349284       6.23968623      -0.00000000       0.00000000      -0.00000000
18
Lattice="5.2702616205272745 0.20661334613331814 -6.801615488938966e-15 -0.36468627814638144 8.874333464297514 -3.670130365311829e-16 1.6042441486334874e-14 1.1748186282005677e-15 12.466243793220452" Properties=species:S:1:pos:R:3:forces:R:3 unique_starting_index=242 config_type=initial n_minim_iter=3 energy=-2925.276861069147 stress="2.2972922854046158e-05 6.770944312510043e-06 -3.115736239315675e-13 6.770944312510043e-06 0.0005527811955980718 4.1073364117795594e-13 -3.115736239315675e-13 4.1073364117795594e-13 -0.0005890227887148633" free_energy=-2925.276861069147 pbc="T T T"
Si       2.11143389       5.51798119       0.69090310       0.05751390       0.00501888      -0.07896190
Si       0.15901064       3.45965895       6.92402500      -0.05751390      -0.00501888      -0.07896191
Si       2.79414145       3.56296562      11.77534069      -0.05751390      -0.00501888       0.07896190
Si       4.74656470       5.62128786       5.54221879       0.05751390       0.00501888       0.07896190
Si       3.68945235       3.61140995       1.86581879       0.03973317       0.04205652      -0.00391503
Si       3.85125380       5.57284353       8.09894068      -0.03973317      -0.04205652      -0.00391503
Si       1.21612299       5.46953686      10.60042501      -0.03973317      -0.04205652       0.00391503
Si       1.05432154       3.50810327       4.36730311       0.03973317       0.04205652       0.00391503
Si       3.93426635       6.86453744       0.11258633      -0.04562361      -0.06816488      -0.08131418
Si       3.60643980       2.31971604       6.34570823       0.04562361       0.06816488      -0.08131418
Si       0.97130899       2.21640936      12.35365746       0.04562361       0.06816488       0.08131418
Si       1.29913554       6.76123077       6.12053556      -0.04562361      -0.06816488       0.08131418
Si       3.97800524       3.51307019       4.27269364      -0.03655915      -0.03162862       0.02500960
Si       3.56270092       5.67118329      10.50581554       0.03655915       0.03162862       0.02500960
Si       0.92757011       5.56787661       8.19355015       0.03655915       0.03162862      -0.02500960
Si       1.34287443       3.40976352       1.96042825      -0.03655915      -0.03162862      -0.02500960
Si      -0.18234314       4.43716673      -0.00000000       0.00000000      -0.00000000       0.00000000
Si       2.45278767       4.54047340       6.23312190       0.00000000      -0.00000000      -0.00000000
18
Lattice="5.265401457257489 0.20407122212859005 -6.7951215184336295e-15 -0.368821860571367 8.879428613462615 -3.6217124425491264e-16 1.6064691030854872e-14 1.1764480048383647e-15 12.483533446201928" Properties=species:S:1:pos:R:3:forces:R:3 unique_starting_index=242 config_type=initial n_minim_iter=4 energy=-2925.280234724402 stress="-0.00036349371417554606 -0.0005819893795158242 2.9185215873648296e-13 -0.0005819893795158242 0.0005158178462794256 -4.7430346316383515e-12 2.9185215873648296e-13 -4.7430346316383515e-12 0.00016005862375957514" free_energy=-2925.280234724402 pbc="T T T"
Si       2.10884245       5.52047796       0.68896788       0.01677381      -0.02688390      -0.07436022
Si       0.15503642       3.46098626       6.93073460      -0.01677381       0.02688390      -0.07436022
Si       2.78773715       3.56302187      11.79456557      -0.01677381       0.02688390       0.07436022
Si       4.74154318       5.62251357       5.55279884       0.01677381      -0.02688390       0.07436022
Si       3.68578583       3.61308850       1.86865354       0.02679774       0.04806288       0.00198784
Si       3.84349450       5.57244694       8.11042026      -0.02679774      -0.04806288       0.00198784
Si       1.21079377       5.47041133      10.61487991      -0.02679774      -0.04806288      -0.00198784
Si       1.05308510       3.51105289       4.37311318       0.02679774       0.04806288      -0.00198784
Si       3.92513249       6.86404284       0.10917897       0.01253966      -0.02290098      -0.07107534
Si       3.60414784       2.32149260       6.35094569      -0.01253966       0.02290098      -0.07107534
Si       0.97144711       2.21945699      12.37435448      -0.01253966       0.02290098       0.07107534
Si       1.29243176       6.76200723       6.13258776       0.01253966      -0.02290098       0.07107534
Si       3.97120989       3.51145620       4.27921375      -0.03233299      -0.00455913      -0.00463064
Si       3.55807043       5.67407924      10.52098047       0.03233299       0.00455913      -0.00463064
Si       0.92536970       5.57204363       8.20431970       0.03233299       0.00455913       0.00463064
Si       1.33850917       3.40942059       1.96255297      -0.03233299      -0.00455913       0.00463064
Si      -0.18441093       4.43971430      -0.00000000      -0.00000000      -0.00000000      -0.00000000
Si       2.44828980       4.54174992       6.24176672       0.00000000       0.00000000       0.00000000
18
Lattice="5.268354279145034 0.21347604588655567 -6.799807728286843e-15 -0.3529728429782906 8.873100356488013 -3.819705027379903e-16 1.6063905463089214e-14 1.1763904762105927e-15 12.48292299801728" Properties=species:S:1:pos:R:3:forces:R:3 unique_starting_index=242 config_type=initial n_minim_iter=5 energy=-2925.282548359961 stress="0.0005174877069953272 0.00023917427445685347 -1.1124940648669204e-13 0.00023917427445685347 -0.00018639674421058332 -6.382089063714266e-13 -1.1124940648669204e-13 -6.382089063714266e-13 -0.0005549755516083602" free_energy=-2925.282548359961 pbc="T T T"
Si       2.12212297       5.52114164       0.68542442      -0.00822217      -0.00761852      -0.05523007
Si       0.15908133       3.45869674       6.92688592       0.00822217       0.00761852      -0.05523007
Si       2.79325847       3.56543476      11.79749858       0.00822217       0.00761852       0.05523007
Si       4.75630011       5.62787966       5.55603708      -0.00822217      -0.00761852       0.05523007
Si       3.69583976       3.61938887       1.86885983      -0.01265269       0.04373711       0.00096422
Si       3.85371882       5.57392555       8.11032133       0.01265269      -0.04373711       0.00096422
Si       1.21954168       5.46718752      10.61406317       0.01265269      -0.04373712      -0.00096422
Si       1.06166262       3.51265085       4.37260167      -0.01265269       0.04373711      -0.00096422
Si       3.93729537       6.86423628       0.10495118      -0.00557464       0.05661637      -0.03204497
Si       3.61226320       2.32907814       6.34641268       0.00557464      -0.05661637      -0.03204497
Si       0.97808606       2.22234012      12.37797181       0.00557464      -0.05661637       0.03204497
Si       1.30311823       6.75749825       6.13651031      -0.00557464       0.05661637       0.03204497
Si       3.97777607       3.51474103       4.27956384       0.02095444       0.02150645      -0.02818226
Si       3.57178251       5.67857339      10.52102534      -0.02095444      -0.02150645      -0.02818226
Si       0.93760537       5.57183537       8.20335916      -0.02095444      -0.02150645       0.02818226
Si       1.34359893       3.40800300       1.96189766       0.02095444       0.02150645       0.02818226
Si      -0.17648642       4.43655018      -0.00000000      -0.00000000       0.00000000      -0.00000000
Si       2.45769072       4.54328820       6.24146150      -0.00000000       0.00000000       0.00000000
18
Lattice="5.259489886610606 0.21720283653556044 -6.7887516156555034e-15 -0.34633444668924296 8.879173686060915 -3.9108560963244876e-16 1.6082624363374902e-14 1.1777612970282233e-15 12.497469061638654" Properties=species:S:1:pos:R:3:forces:R:3 unique_starting_index=242 config_type=initial n_minim_iter=6 energy=-2925.283287897309 stress="-0.0003648271670853001 0.00036332131117267335 1.23158063034196e-12 0.00036332131117267335 0.00015013448108721497 -1.2627769113287268e-12 1.23158063034196e-12 -1.2627769113287268e-12 4.775515727078291e-05" free_energy=-2925.283287897309 pbc="T T T"
Si       2.12304009       5.52650202       0.68424134      -0.01679021      -0.01217430      -0.05248519
Si       0.16037040       3.46127308       6.93297587       0.01679021       0.01217430      -0.05248519
Si       2.79011535       3.56987450      11.81322772       0.01679021       0.01217430       0.05248519
Si       4.75278504       5.63510344       5.56449319      -0.01679021      -0.01217430       0.05248519
Si       3.69258150       3.62570227       1.87119675       0.00073768       0.04814678       0.01486639
Si       3.85031888       5.57927567       8.11993128      -0.00073768      -0.04814678       0.01486639
Si       1.22057394       5.47067425      10.62627231      -0.00073768      -0.04814678      -0.01486639
Si       1.06283656       3.51710085       4.37753778       0.00073768       0.04814678      -0.01486639
Si       3.93442964       6.87130809       0.10299151      -0.00537470       0.06055034      -0.03487336
Si       3.60847075       2.33366985       6.35172604       0.00537470      -0.06055034      -0.03487336
Si       0.97872580       2.22506843      12.39447755       0.00537470      -0.06055034       0.03487336
Si       1.30468469       6.76270667       6.14574302      -0.00537470       0.06055034       0.03487336
Si       3.97280683       3.51948316       4.28446040       0.00618435       0.02905574      -0.03778608
Si       3.57009355       5.68549478      10.53319493      -0.00618435      -0.02905573      -0.03778608
Si       0.94034861       5.57689336       8.21300866      -0.00618435      -0.02905573       0.03778608
Si       1.34306189       3.41088174       1.96427413       0.00618435       0.02905573       0.03778608
Si      -0.17316722       4.43958684      -0.00000000       0.00000000      -0.00000000      -0.00000000
Si       2.45657772       4.54818826       6.24873453       0.00000000      -0.00000000      -0.00000000
18
Lattice="5.259543623268146 0.21041958808077826 -6.788181514542608e-15 -0.3577931745208353 8.880585754855742 -3.764727840657971e-16 1.6100023222355208e-14 1.1790354487000171e-15 12.510989348931396" Properties=species:S:1:pos:R:3:forces:R:3 unique_starting_index=242 config_type=initial n_minim_iter=7 energy=-2925.2847100350964 stress="-0.0001496743114729358 -0.00045240859671697613 -7.537660468827362e-13 -0.00045240859671697613 -1.9595948158363297e-05 -2.8659519464342048e-12 -7.537660468827362e-13 -2.8659519464342048e-12 0.00047789779864747955" free_energy=-2925.2847100350964 pbc="T T T"
Si       2.11738313       5.52415014       0.68032525      -0.04835610      -0.02378612      -0.03681316
Si       0.15459551       3.46164540       6.93581992       0.04835610       0.02378612      -0.03681316
Si       2.78436732       3.56685520      11.83066410       0.04835610       0.02378613       0.03681316
Si       4.74715494       5.62935993       5.57516943      -0.04835610      -0.02378612       0.03681316
Si       3.68936211       3.62442306       1.87375996      -0.01585537       0.04619149       0.00896311
Si       3.84216015       5.57179207       8.12925464       0.01585537      -0.04619149       0.00896310
Si       1.21238834       5.46658228      10.63722939       0.01585537      -0.04619149      -0.00896310
Si       1.05959030       3.51921327       4.38173471      -0.01585537       0.04619149      -0.00896310
Si       3.92419334       6.86682814       0.09846940       0.05102393       0.07260013      -0.02617749
Si       3.60732892       2.32938699       6.35396407      -0.05102393      -0.07260013      -0.02617749
Si       0.97755711       2.22417719      12.41251995      -0.05102393      -0.07260013       0.02617748
Si       1.29442153       6.76161835       6.15702527       0.05102393       0.07260013       0.02617749
Si       3.96747831       3.51421730       4.28838331       0.01176964       0.05722542      -0.04857765
Si       3.56404396       5.68199783      10.54387798      -0.01176963      -0.05722542      -0.04857765
Si       0.93427214       5.57678804       8.22260604      -0.01176964      -0.05722542       0.04857765
Si       1.33770649       3.40900751       1.96711136       0.01176964       0.05722542       0.04857765
Si      -0.17889659       4.44029287      -0.00000000       0.00000000      -0.00000000       0.00000000
Si       2.45087522       4.54550267       6.25549467       0.00000000       0.00000000      -0.00000000
18
Lattice="5.255069863226389 0.21285189249032682 -6.782653585014909e-15 -0.3532675023239805 8.877300517431001 -3.8198713742034895e-16 1.6127737254874014e-14 1.1810650002301407e-15 12.532525340579987" Properties=species:S:1:pos:R:3:forces:R:3 unique_starting_index=242 config_type=initial n_minim_iter=8 energy=-2925.289875160165 stress="0.00012096017783307974 -0.000162623578373353 1.4541732518008583e-12 -0.000162623578373353 0.00028103129213832433 -8.307165249541506e-14 1.4541732518008583e-12 -8.307165249541506e-14 0.00020292314523867694" free_energy=-2925.289875160165 pbc="T T T"
Si       2.11733862       5.52123014       0.66720739      -0.02461771       0.07476583       0.02248071
Si       0.15692881       3.46249632       6.93347006       0.02461771      -0.07476583       0.02248071
Si       2.78446374       3.56892227      11.86531795       0.02461771      -0.07476583      -0.02248071
Si       4.74487356       5.62765608       5.59905528      -0.02461771       0.07476583      -0.02248071
Si       3.68894386       3.63633848       1.87884793      -0.00497273       0.02003332       0.00161863
Si       3.84039343       5.56023987       8.14511060       0.00497273      -0.02003332       0.00161863
Si       1.21285850       5.45381393      10.65367741       0.00497273      -0.02003332      -0.00161863
Si       1.06140893       3.52991253       4.38741474      -0.00497273       0.02003332      -0.00161863
Si       3.92327506       6.87345898       0.08623473       0.00092611      -0.03511845      -0.02678119
Si       3.60606224       2.32311937       6.35249740      -0.00092611       0.03511845      -0.02678119
Si       0.97852731       2.21669343      12.44629062      -0.00092611       0.03511845       0.02678119
Si       1.29574012       6.76703303       6.18002794       0.00092611      -0.03511845       0.02678119
Si       3.96527210       3.51893763       4.28983860       0.00147289       0.08293134       0.00140316
Si       3.56406520       5.67764072      10.55610127      -0.00147289      -0.08293133       0.00140316
Si       0.93653027       5.57121478       8.24268674      -0.00147289      -0.08293134      -0.00140316
Si       1.33773716       3.41251168       1.97642407       0.00147289       0.08293134      -0.00140316
Si      -0.17663375       4.43865026      -0.00000000      -0.00000000      -0.00000000       0.00000000
Si       2.45090118       4.54507620       6.26626267       0.00000000       0.00000000      -0.00000000
18
Lattice="5.251333980151534 0.22526436878982847 -6.779015738843953e-15 -0.33129868448165845 8.8555790992551 -4.0821113507979104e-16 1.6150254108608035e-14 1.1827139524321906e-15 12.550022713928284" Properties=species:S:1:pos:R:3:forces:R:3 unique_starting_index=242 config_type=initial n_minim_iter=9 energy=-2925.2932993232466 stress="-0.0004335765638703396 0.0008151662193895643 -1.124570679593095e-12 0.0008151662193895643 -0.0009519339226507328 1.4746469826884637e-12 -1.124570679593095e-12 1.4746469826884637e-12 -0.0009823065836747807" free_energy=-2925.2932993232466 pbc="T T T"
Si       2.12641220       5.51802894       0.65807781      -0.00534418       0.14334647       0.05017258
Si       0.16795611       3.45018233       6.93308917       0.00534418      -0.14334647       0.05017258
Si       2.79362310       3.56281452      11.89194490       0.00534418      -0.14334647      -0.05017258
Si       4.75207919       5.63066113       5.61693355      -0.00534418       0.14334647      -0.05017258
Si       3.69530153       3.64790071       1.88328649       0.00136237      -0.00127139      -0.00250581
Si       3.85040076       5.54557494       8.15829784      -0.00136237       0.00127139      -0.00250581
Si       1.22473377       5.43294276      10.66673623      -0.00136237       0.00127139       0.00250581
Si       1.06963454       3.53526852       4.39172487       0.00136237      -0.00127139       0.00250581
Si       3.93587991       6.87120623       0.07411113      -0.08630437      -0.04300254      -0.03074704
Si       3.60982238       2.32226941       6.34912249       0.08630437       0.04300254      -0.03074704
Si       0.98415538       2.20963723      12.47591158       0.08630437       0.04300254       0.03074704
Si       1.31021292       6.75857405       6.20090023      -0.08630437      -0.04300254       0.03074704
Si       3.97072530       3.53016810       4.29065935       0.00935699       0.06558244       0.02853312
Si       3.57497699       5.66330755      10.56567071      -0.00935699      -0.06558244       0.02853312
Si       0.94931000       5.55067536       8.25936336      -0.00935699      -0.06558244      -0.02853312
Si       1.34505831       3.41753592       1.98435201       0.00935699       0.06558244      -0.02853312
Si      -0.16564934       4.42778955      -0.00000000      -0.00000000       0.00000000       0.00000000
Si       2.46001765       4.54042173       6.27501136      -0.00000000       0.00000000      -0.00000000
18
Lattice="5.232775539691904 0.2765983703754075 -6.759971144676984e-15 -0.24032593106353325 8.768253029620498 -5.170516810159628e-16 1.6522123881272674e-14 1.209946686088219e-15 12.838994891219116" Properties=species:S:1:pos:R:3:forces:R:3 unique_starting_index=242 config_type=initial n_minim_iter=10 energy=-2925.348327306413 stress="0.002409237832064038 0.0011428415623615494 -6.483432304445651e-13 0.0011428415623615494 0.0021528790099752415 1.9971016578920234e-12 -6.483432304445651e-13 1.9971016578920234e-12 0.0008516751330865291" free_energy=-2925.348327306413 pbc="T T T"
Si       2.14268393       5.57931204       0.55655203      -0.02305644      -0.13858959      -0.02563493
Si       0.23337791       3.32724017       6.97604947       0.02305644       0.13858959      -0.02563493
Si       2.84976568       3.46553935      12.28244286       0.02305644       0.13858959       0.02563493
Si       4.75907170       5.71761123       5.86294542      -0.02305644      -0.13858959       0.02563493
Si       3.72785739       3.78876256       1.94810874      -0.09593023       0.01756771      -0.18970495
Si       3.88097999       5.39438802       8.36760618       0.09593023      -0.01756771      -0.18970494
Si       1.26459222       5.25608884      10.89088616       0.09593023      -0.01756771       0.18970495
Si       1.11146962       3.65046337       4.47138871      -0.09593023       0.01756771       0.18970495
Si       3.96086425       6.86866141      -0.09652252      -0.18924986      -0.23963921      -0.08313507
Si       3.64797313       2.31448917       6.32297492       0.18924986       0.23963921      -0.08313507
Si       1.03158536       2.17618998      12.93551742       0.18924986       0.23963921       0.08313507
Si       1.34447648       6.73036223       6.51601997      -0.18924986      -0.23963921       0.08313507
Si       3.98934989       3.67672762       4.33618237       0.06176573       0.13215223       0.26461472
Si       3.61948749       5.50642296      10.75567981      -0.06176573      -0.13215223       0.26461472
Si       1.00309972       5.36812378       8.50281253      -0.06176573      -0.13215224      -0.26461472
Si       1.37296212       3.53842843       2.08331508       0.06176573       0.13215223      -0.26461472
Si      -0.12016297       4.38412651      -0.00000000       0.00000000      -0.00000000      -0.00000000
Si       2.49622480       4.52242570       6.41949745       0.00000000      -0.00000000      -0.00000000
18
Lattice="5.218383670768089 0.2983305356819777 -6.743498711932851e-15 -0.20109684645043416 8.724541470977035 -5.6341505643966385e-16 1.670316072603701e-14 1.2232043599776185e-15 12.97967481480247" Properties=species:S:1:pos:R:3:forces:R:3 unique_starting_index=242 config_type=initial n_minim_iter=11 energy=-2925.3666843026067 stress="0.003279766360676234 0.0010223848517254652 1.1208695451257575e-12 0.0010223848517254652 0.004358907167538706 -3.652322937671881e-12 1.1208695451257575e-12 -3.652322937671881e-12 0.0031444408615400304" free_energy=-2925.3666843026067 pbc="T T T"
Si       2.14818202       5.60140437       0.50826396      -0.06181648      -0.32182467      -0.04381591
Si       0.25991297       3.27230236       6.99810136       0.06181648       0.32182467      -0.04381591
Si       2.86910480       3.42146763      12.47141086       0.06181648       0.32182467       0.04381591
Si       4.75737386       5.75056964       5.98157345      -0.06181648      -0.32182467       0.04381591
Si       3.73846324       3.84870019       1.97683122      -0.12877621       0.07346223      -0.22538995
Si       3.88801542       5.32333708       8.46666863       0.12877621      -0.07346223      -0.22538995
Si       1.27882359       5.17417181      11.00284360       0.12877621      -0.07346223       0.22538994
Si       1.12927140       3.69953492       4.51300619      -0.12877621       0.07346223       0.22538995
Si       3.96288886       6.85802935      -0.17879011      -0.15082959      -0.21176288      -0.06256458
Si       3.66358981       2.31400791       6.31104730       0.15082959       0.21176289      -0.06256458
Si       1.05439797       2.16484265      13.15846492       0.15082959       0.21176288       0.06256458
Si       1.35369702       6.70886409       6.66862751      -0.15082959      -0.21176289       0.06256458
Si       3.99254757       3.73835832       4.36368247       0.04830900       0.17541126       0.30414876
Si       3.63393109       5.43367895      10.85351988      -0.04830900      -0.17541126       0.30414876
Si       1.02473926       5.28451368       8.61599235      -0.04830900      -0.17541126      -0.30414876
Si       1.38335573       3.58919305       2.12615494       0.04830900       0.17541126      -0.30414876
Si      -0.10054842       4.36227073      -0.00000000       0.00000000      -0.00000000       0.00000000
Si       2.50864341       4.51143600       6.48983741      -0.00000000      -0.00000000      -0.00000000
18
Lattice="5.204119020879915 0.3111831184031606 -6.726353181883973e-15 -0.17554058412854606 8.648678841130076 -5.891533636238362e-16 1.6865865379505515e-14 1.2351195324872072e-15 13.106109178185141" Properties=species:S:1:pos:R:3:forces:R:3 unique_starting_index=242 config_type=initial n_minim_iter=12 energy=-2925.3973695246586 stress="0.0008104597531528345 -0.0004168419759842652 5.40545043716167e-13 -0.0004168419759842652 0.0031464445946149566 -3.995962771023505e-12 5.40545043716167e-13 -3.995962771023505e-12 0.002660070489478338" free_energy=-2925.3973695246586 pbc="T T T"
Si       2.14328328       5.59569141       0.46064111      -0.10700887      -0.45053196      -0.01506317
Si       0.28323565       3.20857899       7.01369570       0.10700887       0.45053196      -0.01506317
Si       2.88529516       3.36417055      12.64546806       0.10700887       0.45053196       0.01506317
Si       4.74534279       5.75128297       6.09241348      -0.10700887      -0.45053196       0.01506317
Si       3.74164529       3.88759562       1.99878772      -0.11821282       0.12962877      -0.19254969
Si       3.88899266       5.22785789       8.55184230       0.11821282      -0.12962877      -0.19254969
Si       1.28693315       5.07226633      11.10732146       0.11821282      -0.12962877       0.19254969
Si       1.13958578       3.73200406       4.55426687      -0.11821282       0.12962877       0.19254969
Si       3.95231884       6.81278473      -0.26212168      -0.04464633      -0.03236427       0.00027219
Si       3.67831911       2.30266878       6.29093291       0.04464633       0.03236427       0.00027219
Si       1.07625960       2.14707722      13.36823085       0.04464633       0.03236427      -0.00027219
Si       1.35025933       6.65719317       6.81517627      -0.04464633      -0.03236427      -0.00027219
Si       3.99173025       3.78271085       4.39233955      -0.00622581       0.18727082       0.22978415
Si       3.63890770       5.33274266      10.94539413       0.00622581      -0.18727082       0.22978415
Si       1.03684819       5.17715110       8.71376963       0.00622581      -0.18727082      -0.22978415
Si       1.38967074       3.62711929       2.16071504      -0.00622581       0.18727082      -0.22978415
Si      -0.08777029       4.32433942      -0.00000000       0.00000000       0.00000000      -0.00000000
Si       2.51428922       4.47993098       6.55305459      -0.00000000       0.00000000       0.00000000
18