22
Lattice="5.649433633750265 -0.7881940975979638 1.3183902908646492 -2.934040106577128 9.294450603437385 -1.418138279696361 0.7727638451071681 -3.0119905498068826 8.561174341262793" Properties=species:S:1:pos:R:3:forces:R:3 unique_starting_index=18 config_type=initial n_minim_iter=1 energy=-3581.95526934912 stress="0.002351309890653226 0.00046216416102158603 -0.0005047396593367868 0.00046216416102158603 0.0009704981758412133 -0.00046044761923956203 -0.0005047396593367868 -0.00046044761923956203 0.0002293175250168515" free_energy=-3581.95526934912 pbc="T T T"
Si       1.16250300       7.84877556       1.29360552       0.05966711       0.03065001      -0.02264204
Si       2.43157641       0.11916672       5.67092699      -0.07033745       0.13741031      -0.20583421
Si       0.01183102      -2.68226692       7.95120034      -0.18861672       0.18174945      -0.04786688
Si       6.04633584      -1.21009600       9.83089718      -0.14283526       0.08584792      -0.07492259
Si      -0.78613842       1.01518249       7.04419241      -0.13763705      -0.00831741       0.13511192
Si       4.88118562       2.02478931       3.60251095      -0.12639172      -0.05476371       0.02906875
Si       2.18949103       0.66920360       1.60359884       0.13554260      -0.11857588       0.31606737
Si       2.52800489       2.55980568       6.95452848       0.04960294      -0.17127114       0.03369691
Si       2.34066750      -2.98478144       7.97592939      -0.01222655       0.20907666       0.17018672
Si       0.77854033       1.89058254       5.31877837      -0.07282035       0.15609853      -0.07782941
Si       4.57501466      -0.14163195       4.63996663       0.14633152      -0.12242891       0.01360393
Si       0.33463491       5.36545830       4.56294451       0.01417010      -0.28269414       0.01683555
Si       0.56368257      -0.91014674       4.41457276       0.01912158       0.07768382       0.20027098
Si      -1.69726595       6.12497833      -0.34178430      -0.19027660      -0.08422630      -0.10987384
Si       3.80210189       3.67308784       5.28201814       0.07517549       0.09787699       0.03855960
Si       1.66531223       5.63164526       0.82490037       0.17216690      -0.20056038      -0.04569574
Si       1.81430078      -1.46944515       2.58004704      -0.02139515      -0.05456501      -0.01797599
Si       5.45241367      -3.62182048       6.90363784      -0.03192082       0.09035739      -0.04117051
Si       2.48772515       2.41448120       3.39449837      -0.10702390      -0.11977512      -0.04368235
Si       0.55023056       4.01601729       6.62034322       0.06032701      -0.00990215      -0.12197402
Si       1.11714455       4.17879414       2.64123279       0.03926885       0.16375505      -0.25027308
Si       2.65908825      -0.61497413       7.86145421       0.33010747      -0.00342600       0.10633892
22
Lattice="5.633138702652971 -0.7898374204272015 1.3212959021731618 -2.9315251362585277 9.28337985181738 -1.4139804965737748 0.7779414088092871 -3.0033304461163994 8.557236603143362" Properties=species:S:1:pos:R:3:forces:R:3 unique_starting_index=18 config_type=initial n_minim_iter=2 energy=-3581.959240346987 stress="-0.0018176839000991663 1.531916469232721e-05 9.182761288032235e-06 1.531916469232721e-05 -0.0015012539730567531 0.0001258459043810608 9.182761288032235e-06 0.0001258459043810608 -0.001564651488979092" free_energy=-3581.959240346987 pbc="T T T"
Si       1.15511066       7.83881733       1.29872566       0.11087046       0.02045661       0.00890304
Si       2.42747639       0.12144088       5.67023134      -0.08227810       0.12385442      -0.18264049
Si       0.01816264      -2.67334717       7.94698405      -0.22317144       0.17258680      -0.06960481
Si       6.03430615      -1.20594369       9.83097016      -0.16777091       0.09957218      -0.05334337
Si      -0.78002435       1.01864295       7.04257841      -0.12631675      -0.00305572       0.14181636
Si       4.86668748       2.02120613       3.60602207      -0.12951775      -0.05625241       0.01943578
Si       2.18375176       0.66759167       1.60601875       0.12663965      -0.08799707       0.30058049
Si       2.52335686       2.55865035       6.95578137       0.05013536      -0.18260531       0.05729934
Si       2.34049370      -2.97679678       7.97379376       0.02691855       0.18314917       0.17598628
Si       0.77827688       1.89142934       5.31858332      -0.08648385       0.16369598      -0.09472879
Si       4.56438640      -0.14181453       4.64157880       0.16537663      -0.12939375       0.00398907
Si       0.33340230       5.36019854       4.56511867       0.00982018      -0.26097279      -0.00466770
Si       0.56550345      -0.90635976       4.41369979       0.00992941       0.08680694       0.19549627
Si      -1.69656786       6.11762683      -0.33942523      -0.14558625      -0.11125713      -0.07370365
Si       3.79174706       3.66956391       5.28533445       0.07700685       0.09647333       0.01728849
Si       1.65776067       5.62320160       0.82906724       0.11748467      -0.18447212      -0.06881338
Si       1.81119215      -1.46725848       2.57951855      -0.07000637      -0.08506168      -0.01878086
Si       5.44211818      -3.61596755       6.90283787      -0.01707882       0.08130616      -0.02013280
Si       2.48039445       2.41152516       3.39646859      -0.10658862      -0.11487309      -0.04819866
Si       0.55068204       4.01451595       6.62075621       0.07172050       0.00695781      -0.13583472
Si       1.11298467       4.17486191       2.64292170       0.05568787       0.17011153      -0.23722925
Si       2.65749957      -0.61100824       7.86081120       0.33320874       0.01097015       0.08688336
22
Lattice="5.625612320401301 -0.800171296113735 1.3379638783876604 -2.945397540330833 9.306204533929652 -1.4149217800333938 0.7983358349757244 -2.9998857918779684 8.599337162824739" Properties=species:S:1:pos:R:3:forces:R:3 unique_starting_index=18 config_type=initial n_minim_iter=3 energy=-3581.970669185843 stress="-0.0018635599944024723 -0.001209593557231887 0.0008009860034060732 -0.001209593557231887 0.0015704319994747664 0.0011508363519389883 0.0008009860034060732 0.0011508363519389883 0.003987323442632833" free_energy=-3581.970669185843 pbc="T T T"
Si       1.14236805       7.85509658       1.31774394       0.16644830      -0.05116993       0.03281476
Si       2.43171797       0.12704636       5.70083062      -0.09001750       0.08245278      -0.05454734
Si       0.03442665      -2.66522822       7.98375233      -0.22675065       0.17074937      -0.11527459
Si       6.04013031      -1.20506626       9.89089444      -0.17605396       0.08075255      -0.01336429
Si      -0.76926876       1.03124223       7.08166554      -0.06672881       0.01624287       0.17138544
Si       4.85751026       2.02003283       3.63720010      -0.11356403      -0.05252343      -0.04499940
Si       2.18363442       0.66506601       1.62532635       0.10530579      -0.08688311       0.21553632
Si       2.52778148       2.56495191       7.00098757       0.01145137      -0.17130230       0.04063035
Si       2.35666082      -2.97320605       8.01921262       0.08761040       0.18227217       0.18099150
Si       0.78188734       1.90385711       5.34854486      -0.05593306       0.16741261      -0.05844739
Si       4.56717815      -0.14692314       4.67447295       0.15558497      -0.13669926      -0.04345371
Si       0.33182538       5.37144749       4.59655913       0.03169413      -0.26208055       0.02404548
Si       0.57477988      -0.90198222       4.44034953       0.03159834       0.07916771       0.11227706
Si      -1.70822449       6.13114706      -0.33827919      -0.03264245      -0.06954158      -0.03893909
Si       3.78879553       3.67886746       5.32540698       0.05218642       0.12478125       0.02030365
Si       1.64831325       5.62919742       0.84276353       0.02209880      -0.05475847      -0.10166870
Si       1.81429131      -1.47162605       2.59415230      -0.14439866      -0.11285380       0.00584732
Si       5.45045672      -3.62292864       6.94391685      -0.00716870       0.02626481       0.05758619
Si       2.47537407       2.41411977       3.42113659      -0.12798309      -0.07684972      -0.05789407
Si       0.55609481       4.03037640       6.65899389       0.08067232       0.01830402      -0.13061029
Si       1.10894502       4.18805131       2.65957284       0.04954939       0.11849951      -0.13697224
Si       2.67456142      -0.60692430       7.90786840       0.24704069       0.00776251      -0.06524695
22
Lattice="5.647977198901134 -0.798037394391825 1.3441230596051812 -2.9531536515306045 9.288314573532242 -1.43373540668924 0.8166042504156467 -3.0119846274804987 8.562051444107928" Properties=species:S:1:pos:R:3:forces:R:3 unique_starting_index=18 config_type=initial n_minim_iter=4 energy=-3582.0118117577476 stress="0.0009631578535226042 -0.0016383335638845563 0.0004563494223568979 -0.0016383335638845563 -0.002132676584381194 0.00030461356705322807 0.0004563494223568979 0.00030461356705322807 -4.739014854011627e-05" free_energy=-3582.0118117577476 pbc="T T T"
Si       1.16185256       7.83764520       1.29605657      -0.04970289      -0.19750878      -0.07979337
Si       2.44552449       0.12563971       5.66171566       0.07582910       0.05847057       0.12157062
Si       0.03204977      -2.66294641       7.94180219      -0.01636814       0.09333754      -0.00837384
Si       6.06807607      -1.21320076       9.84907155       0.10855418       0.06122416      -0.01766760
Si      -0.76681561       1.01307549       7.05199175       0.09091551       0.06226647       0.02458898
Si       4.87339063       2.00647133       3.62439753      -0.01970277       0.09192743       0.06571785
Si       2.20541366       0.65338001       1.64329787       0.08707581      -0.11401092       0.13587915
Si       2.55593079       2.53176145       6.96716416      -0.00080545      -0.15259924      -0.11749292
Si       2.38113378      -2.96758761       8.00218702      -0.06037227       0.13429581       0.10495310
Si       0.79043727       1.90170150       5.31114532      -0.07216462       0.11345792      -0.03575672
Si       4.60534765      -0.16436732       4.65943437       0.02124617      -0.03561573       0.02027932
Si       0.34677655       5.32882203       4.56198549       0.05469984      -0.11877798       0.05257957
Si       0.58665499      -0.90290029       4.43473773       0.02823403       0.05159496       0.03928881
Si      -1.72287863       6.11077635      -0.36003252       0.12193892       0.05309772      -0.03343212
Si       3.82102814       3.67013857       5.29915240       0.00001806       0.05592530       0.03227342
Si       1.66919941       5.60321230       0.82420800      -0.08632344       0.18350367      -0.17363334
Si       1.82004793      -1.47936486       2.58618622       0.07244996      -0.16234816       0.10043620
Si       5.47997422      -3.62126046       6.92502802      -0.05231670      -0.05346749       0.00815187
Si       2.48369713       2.39433977       3.39892683      -0.13834753       0.03623775      -0.06289747
Si       0.57931384       4.00801077       6.60577477       0.04071166      -0.03694708      -0.02110888
Si       1.12449710       4.18699117       2.62057885      -0.04574520      -0.22412897       0.00021539
Si       2.72504607      -0.62101881       7.87844711      -0.15982422       0.10006504      -0.15577802
22
Lattice="5.629786097693986 -0.7822217381934882 1.3406191338224647 -2.9120316951662515 9.314412223040454 -1.438593939863028 0.7997766253192286 -3.027868592292672 8.555115070252983" Properties=species:S:1:pos:R:3:forces:R:3 unique_starting_index=18 config_type=initial n_minim_iter=5 energy=-3582.0184472261294 stress="-0.0011697997415142378 0.00017274190187689103 -0.000326824478122618 0.00017274190187689103 0.0005152973091452154 -0.0006400022826634057 -0.000326824478122618 -0.0006400022826634057 -0.00016065502071527734" free_energy=-3582.0184472261294 pbc="T T T"
Si       1.18688940       7.86957911       1.28707773      -0.00223682      -0.19747544      -0.11125173
Si       2.43621153       0.13196535       5.65269108       0.06659541       0.03624187       0.14411606
Si       0.01583513      -2.67679307       7.93461346      -0.04657775       0.14747577       0.05371719
Si       6.04167227      -1.20316423       9.83581503       0.13119893      -0.01366860       0.00083731
Si      -0.76578482       1.00848755       7.04616375       0.10192561       0.11085463      -0.01116490
Si       4.86418334       2.02799103       3.61701674       0.02938891       0.07491600       0.10411447
Si       2.20342298       0.66023559       1.64474612       0.08375135      -0.16862103       0.15358260
Si       2.55545019       2.54122176       6.95638424       0.03461202      -0.12197793      -0.15510188
Si       2.36060825      -2.97384876       7.99802278      -0.00874454       0.18258144       0.09445506
Si       0.79111685       1.91004477       5.30220767      -0.08731101       0.11664993      -0.03361051
Si       4.59278128      -0.15463179       4.65251756       0.02126795       0.00565835      -0.00849206
Si       0.36298224       5.34200413       4.55292759       0.04030175      -0.09325054       0.04907919
Si       0.58023998      -0.90663967       4.43327146       0.00572047      -0.01496351       0.08641942
Si      -1.69806000       6.12723415      -0.36530748       0.25895913       0.07166033      -0.02120927
Si       3.82246237       3.69482053       5.28914663      -0.01648025       0.01149288       0.06528031
Si       1.68546328       5.62836276       0.81599033      -0.20040597       0.21111426      -0.15192848
Si       1.80841158      -1.48268988       2.58414769       0.04693855      -0.13676481       0.04763952
Si       5.44902549      -3.62077851       6.91787829      -0.02595242       0.01469137      -0.03771901
Si       2.48175984       2.40799151       3.39108546      -0.15554198       0.02280345      -0.06818009
Si       0.58992398       4.01947911       6.59322824      -0.00041418      -0.06804277       0.01269933
Si       1.13546149       4.20565696       2.61059545      -0.07967818      -0.24001626      -0.04348235
Si       2.71550805      -0.61986773       7.86943681      -0.19731698       0.04864061      -0.16980016
22
Lattice="5.636807415611295 -0.7607322985399476 1.3460736769482604 -2.888368498887888 9.308024865967296 -1.413807443235163 0.8049516050021174 -3.0018338314942805 8.538945250509768" Properties=species:S:1:pos:R:3:forces:R:3 unique_starting_index=18 config_type=initial n_minim_iter=6 energy=-3582.028316278604 stress="0.0005948081786902936 0.0013951013504709911 0.0003449903964721664 0.0013951013504709911 0.00026235728230698693 0.00181067549459792 0.0003449903964721664 0.00181067549459792 -0.0004957558220484634" free_energy=-3582.028316278604 pbc="T T T"
Si       1.21692455       7.87949160       1.30929044      -0.04139863      -0.13131870      -0.04229578
Si       2.44906139       0.16011170       5.65132041       0.04546325       0.01844494       0.07640477
Si       0.01570169      -2.64894776       7.91835374       0.01226641       0.18763580       0.05357841
Si       6.06143433      -1.15319322       9.83125661       0.17881968      -0.06629926       0.04045943
Si      -0.75226961       1.03008972       7.04368042       0.01897141       0.14231102      -0.07348477
Si       4.88094334       2.05682585       3.62966915       0.03886108       0.10914871       0.11109756
Si       2.21517508       0.66774103       1.65712491       0.07577271      -0.13706598       0.11522107
Si       2.57936153       2.56647781       6.95915192       0.00652915      -0.12558460      -0.16251759
Si       2.36691658      -2.93735477       7.99026701      -0.00620079       0.17354980       0.09208983
Si       0.80377140       1.93541348       5.30192042      -0.06678005       0.12256391       0.00082925
Si       4.60897872      -0.12840050       4.65502105      -0.02437006      -0.03484917      -0.06138521
Si       0.38910118       5.35405587       4.56646122       0.03209129      -0.06832321       0.02852465
Si       0.58589915      -0.89049546       4.43196747       0.04291903       0.00352343       0.06738050
Si      -1.67946387       6.12527325      -0.35127976       0.21025299       0.10261617       0.02610206
Si       3.84889155       3.72833375       5.30301832       0.02510799      -0.00701111       0.05827952
Si       1.70585332       5.64184000       0.83042077      -0.13723959       0.18330934      -0.15006127
Si       1.81036024      -1.47465009       2.58119817       0.05829081      -0.18831006       0.04975469
Si       5.45459347      -3.58402313       6.90822244      -0.05629045       0.02826264      -0.01925446
Si       2.49303317       2.42662923       3.39677064      -0.09427187      -0.03518632      -0.07212949
Si       0.61564553       4.04319849       6.59765604       0.00177434      -0.09659179       0.01694541
Si       1.15394066       4.21830575       2.61788393      -0.15875644      -0.23693432      -0.04158769
Si       2.73152200      -0.58643101       7.86210851      -0.16181226       0.05610876      -0.11395089
22
Lattice="5.641906148131135 -0.756147043791203 1.3624452075112734 -2.875886600435471 9.326446102254376 -1.4529124819353805 0.8207937918723116 -3.036198675181896 8.549339250949476" Properties=species:S:1:pos:R:3:forces:R:3 unique_starting_index=18 config_type=initial n_minim_iter=7 energy=-3582.063597803048 stress="0.0023861717629616937 0.0015225739333225026 0.00029481434414139286 0.0015225739333225026 -0.000670174354129074 -0.0003557949566776897 0.00029481434414139286 -0.0003557949566776897 0.0012067042374815393" free_energy=-3582.063597803048 pbc="T T T"
Si       1.23940171       7.87773824       1.27666573      -0.07441440       0.12311847      -0.00348480
Si       2.46572034       0.15678748       5.65572590       0.09556828       0.02588232       0.09429289
Si       0.01509750      -2.65820030       7.92462465       0.04275158       0.06122535       0.11581239
Si       6.08905027      -1.17278943       9.84478818       0.15054707       0.05232039       0.11777404
Si      -0.73358436       1.01534793       7.04440600       0.02757177       0.01993537      -0.13912698
Si       4.89044445       2.06197644       3.64309087      -0.07327086       0.06165664       0.08704492
Si       2.23734981       0.64784452       1.69120890       0.04194797      -0.24555944      -0.00777686
Si       2.60700608       2.52962979       6.94481871       0.03044138      -0.08233456      -0.25032995
Si       2.38190591      -2.93921116       8.02394961      -0.00364059       0.09716463       0.02338418
Si       0.80935814       1.94302495       5.28834152      -0.04219153      -0.00660923      -0.02695508
Si       4.63354024      -0.14523791       4.66505484      -0.10829521       0.00058313      -0.11605775
Si       0.41537295       5.32404450       4.55269423       0.03287932       0.03681999       0.06211719
Si       0.59854017      -0.90091303       4.45328010       0.04455366      -0.04833366       0.00410978
Si      -1.66036249       6.13670411      -0.38324224      -0.04023490       0.19834847       0.05958302
Si       3.87553668       3.73313896       5.30516042      -0.01170543      -0.05210663       0.06041830
Si       1.71366546       5.66066601       0.79689893       0.04189069      -0.11324758      -0.05411011
Si       1.81626596      -1.50167828       2.59491736       0.09221848      -0.11518363       0.17113814
Si       5.46305373      -3.60022600       6.92950314      -0.03115820       0.03440562       0.02389291
Si       2.48804938       2.41872822       3.38458398       0.01020612      -0.04550064      -0.03235547
Si       0.64503579       4.02385149       6.57602863       0.01001375      -0.05178882       0.03512953
Si       1.16406117       4.20893080       2.58842185      -0.10117576      -0.07670898      -0.08924860
Si       2.75524101      -0.60383118       7.85979469      -0.13450319       0.12591279      -0.13525170
22
Lattice="5.63845366009603 -0.7746394272282685 1.353658887360785 -2.897162840592958 9.388254447566046 -1.4380238023475633 0.8243951497725324 -3.049260783364175 8.509266594327302" Properties=species:S:1:pos:R:3:forces:R:3 unique_starting_index=18 config_type=initial n_minim_iter=8 energy=-3582.074992335758 stress="0.0017989210625645466 -0.0002525896018624396 -4.874189093290659e-05 -0.0002525896018624396 0.0018233680267452212 0.0006245333406631093 -4.874189093290659e-05 0.0006245333406631093 -0.001440565560530911" free_energy=-3582.074992335758 pbc="T T T"
Si       1.21848805       7.91549603       1.27291904      -0.04902951       0.09770628       0.02315058
Si       2.46229579       0.16133515       5.63177165       0.08252264       0.07245925      -0.00409595
Si       0.01182440      -2.65567681       7.88845667       0.09871434       0.07001262       0.14528168
Si       6.08515802      -1.18472644       9.79811275       0.11994724       0.02955998       0.09126455
Si      -0.73799771       1.03382557       7.01718673       0.03463860       0.02838631      -0.10945529
Si       4.87585398       2.06674718       3.63197344      -0.16015106       0.00278461       0.09189567
Si       2.24065674       0.63537460       1.69787975       0.03744650      -0.26905695      -0.02959685
Si       2.59744697       2.53185613       6.90824754       0.01000721      -0.09348592      -0.27316759
Si       2.38399027      -2.94246681       7.99496785      -0.00425548       0.11044540      -0.04984799
Si       0.79537562       1.96648064       5.26257430      -0.01635407      -0.04971538      -0.00758013
Si       4.63201868      -0.15885639       4.64128384      -0.11779827       0.01911577      -0.09887622
Si       0.40176725       5.34659662       4.53976385       0.02743945       0.09885652       0.02522542
Si       0.60023218      -0.90196404       4.44114004       0.04211833      -0.06506478      -0.02500383
Si      -1.67006167       6.17954624      -0.37849752      -0.16381691       0.15060894       0.06988869
Si       3.86193450       3.75271064       5.28709664      -0.08495277       0.02596239       0.02499152
Si       1.69397734       5.69305987       0.78806806       0.09391084      -0.10771726       0.01209631
Si       1.81886710      -1.52323787       2.58556291       0.05828460      -0.05924465       0.22533764
Si       5.46234173      -3.62805809       6.89307954       0.04614224      -0.02947398       0.03446068
Si       2.46894087       2.42635128       3.36608532       0.05384100      -0.01285249      -0.03725249
Si       0.63368437       4.04830083       6.54706502       0.06039596      -0.05725698       0.00727706
Si       1.14779510       4.22654471       2.57142237      -0.04576425      -0.02284095      -0.05432629
Si       2.75108229      -0.60414759       7.81771007      -0.12328665       0.06081129      -0.06166718
22
Lattice="5.623314364657479 -0.7697510675971062 1.3524325391569805 -2.880668767197784 9.374349758195265 -1.4475420146071372 0.8113745484773451 -3.0522979784592796 8.535240200121102" Properties=species:S:1:pos:R:3:forces:R:3 unique_starting_index=18 config_type=initial n_minim_iter=9 energy=-3582.0876147329295 stress="-0.0005698423152859305 -0.0002061472480897391 -0.0012041523914692938 -0.0002061472480897391 -0.0008133662339536797 0.00025045766185399017 -0.0012041523914692938 0.00025045766185399017 0.0005857196457456922" free_energy=-3582.0876147329295 pbc="T T T"
Si       1.22212867       7.89853316       1.26407780       0.02220778       0.23638485       0.05496834
Si       2.45447773       0.16482992       5.64813120       0.09608269       0.04504855      -0.04271900
Si      -0.00397402      -2.64612465       7.91614548       0.04815959      -0.04431376       0.11246338
Si       6.06531443      -1.18283171       9.82208026       0.06392838       0.12545910       0.18303853
Si      -0.74021223       1.03081612       7.03756563       0.01949486      -0.00979031      -0.13055191
Si       4.85699706       2.06813508       3.64232256      -0.20451398      -0.03847595       0.01014910
Si       2.24280182       0.61801189       1.71431825       0.00588594      -0.26313345      -0.09377201
Si       2.58930756       2.51071454       6.91048335       0.06067583      -0.04809885      -0.21095190
Si       2.36791673      -2.92742075       8.02689166       0.04086160       0.00862234      -0.05375294
Si       0.78335623       1.96909438       5.27057380      -0.04832520      -0.10206395      -0.04959189
Si       4.61878538      -0.16256122       4.64665660      -0.13635456       0.01734138      -0.10392408
Si       0.40441261       5.32516763       4.55108050       0.01383510       0.12989289      -0.01064878
Si       0.59602381      -0.90330283       4.46199245       0.05993832      -0.08165344      -0.09365766
Si      -1.65628830       6.17536873      -0.38470011      -0.18981181       0.14705614       0.05614837
Si       3.85130109       3.75004014       5.29911616      -0.08784316      -0.01160642       0.02716448
Si       1.69117966       5.68858216       0.77343568       0.10596039      -0.27716601      -0.01024302
Si       1.81307654      -1.53376573       2.60032300      -0.03419822      -0.04234801       0.30424413
Si       5.43776021      -3.62281341       6.90975341       0.07739991       0.00847874       0.11824360
Si       2.45277289       2.41948231       3.36533155       0.09996357      -0.05799778      -0.01296231
Si       0.63280115       4.03311073       6.55837407       0.03751932      -0.00386377       0.03850688
Si       1.14214617       4.21128757       2.56434738      -0.01893939       0.15194601      -0.04567173
Si       2.73294658      -0.60244612       7.82874938      -0.03192696       0.11028170      -0.04647957
22
Lattice="5.625101783263972 -0.7682247670317257 1.396166896055785 -2.8746699125735007 9.39023638073384 -1.5040108674213726 0.8679078097969412 -3.088412082913551 8.552955494276667" Properties=species:S:1:pos:R:3:forces:R:3 unique_starting_index=18 config_type=initial n_minim_iter=10 energy=-3582.096619808088 stress="-0.002227965950363507 -0.00029057883860567594 0.00283761131081933 -0.00029057883860567594 -0.0005698047351661177 -0.0015170024463807496 0.00283761131081933 -0.0015170024463807496 0.00032792620626760193" free_energy=-3582.096619808088 pbc="T T T"
Si       1.24155381       7.90464958       1.23933041       0.05200683       0.23241792       0.07708124
Si       2.49813797       0.15524058       5.66847570       0.00020336       0.04051770      -0.02012240
Si       0.04470228      -2.66618151       7.93195056       0.00677793      -0.05562278       0.07523155
Si       6.13463990      -1.20735032       9.87572750      -0.12833771       0.26698959       0.12649040
Si      -0.68418129       1.01080308       7.02664770      -0.00724779      -0.16375448      -0.02212676
Si       4.87040622       2.06714517       3.67782599      -0.23152015      -0.04585462       0.03195537
Si       2.26282010       0.59153536       1.74282125      -0.03920046      -0.26229202      -0.17902701
Si       2.64308159       2.47573548       6.90200287       0.00833892      -0.04516747      -0.13578208
Si       2.41970678      -2.94065425       8.06440039       0.08024125      -0.01680080      -0.05703376
Si       0.81487591       1.96173481       5.26330760      -0.01092737      -0.16035225      -0.10721967
Si       4.64624688      -0.17787393       4.67536433      -0.03551936       0.00500447      -0.11338832
Si       0.44818597       5.30755414       4.53800223       0.02622374       0.15765657       0.05152287
Si       0.63006832      -0.92138021       4.47722856      -0.07010212       0.02253360       0.08402216
Si      -1.64697596       6.19290630      -0.42050137      -0.27866877       0.11413406       0.10262036
Si       3.88870887       3.74484393       5.31835119       0.00823051       0.00089152      -0.03033130
Si       1.70052035       5.69491168       0.75277830       0.12663803      -0.32720921      -0.02211668
Si       1.82999006      -1.55770911       2.63375837       0.05054371      -0.06773367       0.17796331
Si       5.47533834      -3.64502857       6.96454550       0.05923834       0.03004784       0.16881260
Si       2.46881649       2.40983180       3.36749054       0.08599067      -0.06823463      -0.07047893
Si       0.68946864       4.01012144       6.54548955       0.07801621       0.04511656      -0.03284855
Si       1.15967666       4.20249907       2.54557052       0.05621067       0.16369665      -0.06394905
Si       2.78014341      -0.62107209       7.84010414       0.16286353       0.13401543      -0.04127534
22
Lattice="5.624246555671013 -0.7618564042277917 1.350701416415752 -2.86395848132183 9.362536819275547 -1.4707658624151816 0.7975786126116813 -3.0697861811256 8.555170864513647" Properties=species:S:1:pos:R:3:forces:R:3 unique_starting_index=18 config_type=initial n_minim_iter=11 energy=-3582.133938800193 stress="-0.002115088083066658 -0.0002584882111676247 -0.0019147330719842335 -0.0002584882111676247 -0.001451436400547915 0.0004017965962655369 -0.0019147330719842335 0.0004017965962655369 0.0011818187914512017" free_energy=-3582.133938800193 pbc="T T T"
Si       1.23816005       7.89712389       1.24117416       0.07049605      -0.05091346      -0.06228618
Si       2.46477781       0.17267876       5.65745271       0.02402919      -0.00298359      -0.20524837
Si      -0.02197197      -2.63915303       7.95277326       0.03624729      -0.08350110      -0.00126923
Si       6.07247749      -1.17503490       9.85182149      -0.03157956       0.21463550       0.14635767
Si      -0.74040881       1.01810935       7.03647405      -0.01465072      -0.01095434      -0.01885887
Si       4.82971551       2.06916650       3.65516752      -0.06881521       0.01237157      -0.03931189