10
Lattice="5.476282744725261 0.11283940891595079 0.5450836373886485 2.4304706652397248 6.920937638220596 -1.2003826626274463 3.1777337422178005 -2.433069623221606 10.951072965385842" Properties=species:S:1:pos:R:3:forces:R:3 unique_starting_index=310 config_type=initial n_minim_iter=9 energy=-1626.0366783645184 stress="-2.3270255942308402e-05 -1.4117433933725162e-07 1.3918142831931115e-05 -1.4117433933725162e-07 -1.0937802399980162e-05 2.1937832114539664e-05 1.3918142831931115e-05 2.1937832114539664e-05 5.630231451853737e-05" free_energy=-1626.0366783645184 pbc="T T T"
Si       5.03079319       4.45814088       6.90540182       0.00242587       0.00151415       0.00479191
Si       8.75586315       3.75139688       8.52482550      -0.00087536      -0.00640075      -0.00032990
Si       5.52296209      -0.14482262       4.83217803      -0.00122648       0.00233748       0.00100444
Si       3.11392151       1.72221477       3.63086407       0.00025178       0.00666398       0.00392902
Si       5.01578539       2.20565227       5.13612286       0.00141326      -0.00052193      -0.00600145
Si       5.29839457       1.09509408       2.74042477      -0.00194045       0.00265226      -0.00252585
Si       6.30303180       5.25212616       4.42697411       0.00171819      -0.00284828       0.00331605
Si       2.30249640      -0.27728471       4.46612143       0.00139152       0.00121233       0.00209359
Si       6.60854186       2.95956996       3.60937021      -0.00039234       0.00211877      -0.00454499
Si       7.03394691      -1.29292351      10.33230186      -0.00276599      -0.00672802      -0.00173281
