14
Lattice="7.72492044538093 -0.032414626446811576 1.97536386976281 0.08276484814392973 8.192194567346247 -0.8026762202566269 -1.8132862145773654 -0.6641303548081753 6.5879274156842484" Properties=species:S:1:pos:R:3:forces:R:3 unique_starting_index=20 config_type=initial n_minim_iter=1 energy=-2274.3530340413736 stress="0.018573932278035384 0.001844921881824078 -0.0027404975280213868 0.001844921881824078 -0.001987405408902427 0.005480825498672136 -0.0027404975280213868 0.005480825498672136 0.010435940702405763" free_energy=-2274.3530340413736 pbc="T T T"
Si       4.63872449       4.57102399       7.54381730      -0.59878178       0.52339943      -0.82159642
Si       6.63516520       3.00119532       1.60306913      -0.08641834      -0.56723533      -0.27483231
Si       1.35567458       2.92462560       0.21679777       0.59878178      -0.52339943       0.82159642
Si      -0.64076612       4.49445427       6.15754593       0.08641834       0.56723533       0.27483231
Si       5.61724975       4.88023166       5.04460087      -0.16117699      -0.73803767       0.22796225
Si       5.72186740       2.44743987       3.88174540      -0.10807442       0.20123769       0.24895289
Si       0.37714933       2.61541793       2.71601419       0.16117699       0.73803767      -0.22796225
Si       0.27253168       5.04820972       3.87886967       0.10807442      -0.20123769      -0.24895289
Si       2.00567388       4.47517980       2.05341170       0.82340470       0.36508935      -0.61059524
Si       1.23092117       3.10395694       5.09050554       0.59355341      -0.64156359       0.53682069
Si       3.98872520       3.02046978       5.70720337      -0.82340470      -0.36508935       0.61059524
Si       4.76347791       4.39169265       2.67010952      -0.59355341       0.64156359      -0.53682069
Si       3.94772933       5.31567664       0.31999986       0.15803048      -0.18731566      -0.09225613
Si       2.04666975       2.17997294       7.44061520      -0.15803048       0.18731566       0.09225613
14
Lattice="7.627684522117435 -0.050198266585305074 1.9758219028879778 0.06944712137904406 8.206824006155491 -0.8283675989750201 -1.7760006191925175 -0.6882498464524436 6.538485699917148" Properties=species:S:1:pos:R:3:forces:R:3 unique_starting_index=20 config_type=initial n_minim_iter=2 energy=-2274.445292569798 stress="-0.00413424750614527 0.0010525004446159231 -0.0031286661293530226 0.0010525004446159231 -0.006469242930127465 0.00421972598102119 -0.0031286661293530226 0.00421972598102119 -0.004162859416794522" free_energy=-2274.445292569798 pbc="T T T"
Si       4.58564214       4.54305687       7.47815294      -0.65463224       0.57468390      -0.62502339
Si       6.54737746       2.98967217       1.59197341      -0.11305848      -0.51278932      -0.37448900
Si       1.33548889       2.92531902       0.20778707       0.65463224      -0.57468390       0.62502339
Si      -0.62624644       4.47870372       6.09396660       0.11305848       0.51278932       0.37448900
Si       5.54684382       4.85908203       4.99971184      -0.15017691      -0.54676276       0.22221047
Si       5.65110856       2.42871931       3.85508316      -0.18334561       0.00045211       0.11661682
Si       0.37428721       2.60929386       2.68622816       0.15017691       0.54676276      -0.22221047
Si       0.27002247       5.03965659       3.83085685       0.18334561      -0.00045211      -0.11661682
Si       1.97884733       4.47154083       2.02382754       0.65456419       0.47503843      -0.56209635
Si       1.22151414       3.08598306       5.04420896       0.37642138      -0.74607780       0.36838539
Si       3.94228369       2.99683506       5.66211246      -0.65456419      -0.47503843       0.56209635
Si       4.69961688       4.38239283       2.64173105      -0.37642138       0.74607780      -0.36838539
Si       3.89000318       5.31652784       0.30449277       0.15870381       0.11301258      -0.09500044
Si       2.03112784       2.15184805       7.38144723      -0.15870382      -0.11301258       0.09500044
14
Lattice="7.625233297372289 -0.09710613651289346 2.038870282334754 0.03760660286047544 8.328734576145768 -0.9221080748896902 -1.7203815372985276 -0.7660991201903293 6.547992516404619" Properties=species:S:1:pos:R:3:forces:R:3 unique_starting_index=20 config_type=initial n_minim_iter=3 energy=-2274.515973701578 stress="-0.0012569689877303459 -0.0009792754108948326 0.0027776985531583836 -0.0009792754108948326 0.001007716324475934 -0.0010363353541687176 0.0027776985531583836 -0.0010363353541687176 0.001804689599067929" free_energy=-2274.515973701578 pbc="T T T"
Si       4.61390272       4.50990148       7.47539226      -0.52228768       0.27782083      -0.44076175
Si       6.53449182       2.98925160       1.60978658      -0.20123813      -0.18225112      -0.49255401
Si       1.32855564       2.95562784       0.18936247       0.52228768      -0.27782083       0.44076175
Si      -0.59203345       4.47627772       6.05496815       0.20123813       0.18225112       0.49255401
Si       5.55600099       4.84850583       5.00009537      -0.14594821      -0.63332565       0.27739355
Si       5.65880371       2.40105133       3.88043161      -0.13673507       0.27206500      -0.14005389
Si       0.38645737       2.61702349       2.66465935       0.14594821       0.63332565      -0.27739355
Si       0.28365465       5.06447799       3.78432312       0.13673507      -0.27206500       0.14005389
Si       1.97953626       4.50654705       1.99001264       0.76357094       0.45414820      -0.49949554
Si       1.24966859       3.06326404       5.03290373       0.28975370      -0.59663048       0.33163578
Si       3.96292210       2.95898227       5.67474208      -0.76357094      -0.45414820       0.49949554
Si       4.69278978       4.40226528       2.63185100      -0.28975370       0.59663048      -0.33163578
Si       3.86776583       5.37423437       0.27437339       0.18158040      -0.11827008       0.09603004
Si       2.07469253       2.09129495       7.39038133      -0.18158040       0.11827008      -0.09603004
14
Lattice="7.651697427913911 -0.08691055092397412 1.9544866979523017 0.06817959349311092 8.405927542370543 -0.9627206036982738 -1.7909447850247175 -0.8144010091989022 6.514003141779768" Properties=species:S:1:pos:R:3:forces:R:3 unique_starting_index=20 config_type=initial n_minim_iter=4 energy=-2274.6194097066596 stress="0.0012950522507344233 -0.001011237088367361 -0.003256330863262732 -0.001011237088367361 0.0032488758231593614 -0.0030310464003381683 -0.003256330863262732 -0.0030310464003381683 -0.0017099136524811054" free_energy=-2274.6194097066596 pbc="T T T"
Si       4.57527224       4.52859987       7.33642718      -0.38323609       0.12552726      -0.24705532
Si       6.56311255       3.01964775       1.51217791      -0.14125442       0.01203385      -0.37731596
Si       1.35366000       2.97601612       0.16934206       0.38323609      -0.12552726       0.24705532
Si      -0.63418031       4.48496824       5.99359133       0.14125442      -0.01203385       0.37731595
Si       5.55420033       4.86566897       4.88703556      -0.18339152      -0.65453277       0.40364206
Si       5.66098179       2.42103173       3.78294084      -0.22178760       0.33416203      -0.20770932
Si       0.37473191       2.63894701       2.61873367       0.18339152       0.65453277      -0.40364206
Si       0.26795045       5.08358425       3.72282839       0.22178760      -0.33416203       0.20770932
Si       1.99989456       4.54988713       1.91956240       0.71465657       0.45102058      -0.40517932
Si       1.22690403       3.05172193       4.97025276       0.26913952      -0.56216353       0.22500549
Si       3.92903768       2.95472886       5.58620684      -0.71465657      -0.45102058       0.40517932
Si       4.70202820       4.45289405       2.53551648      -0.26913952       0.56216353      -0.22500549
Si       3.90583311       5.42903037       0.20748241       0.19621822      -0.07543201       0.14287424
Si       2.02309912       2.07558562       7.29828682      -0.19621822       0.07543201      -0.14287424
14
Lattice="7.717291532341048 0.04427323713482111 1.9728717784276302 0.19424100244450418 8.432111463211204 -0.9159499185140161 -1.7864257551171854 -0.8128028738892584 6.453355181815733" Properties=species:S:1:pos:R:3:forces:R:3 unique_starting_index=20 config_type=initial n_minim_iter=5 energy=-2274.950765247111 stress="0.0009959311771725414 -2.2177116453718375e-06 -0.0028529581463186296 -2.2177116453718375e-06 0.005315261378327407 0.0009510439852964841 -0.0028529581463186296 0.0009510439852964841 -0.00521065159697787" free_energy=-2274.950765247111 pbc="T T T"
Si       4.67287299       4.68148899       7.28576194       0.11619386      -0.14088125      -0.02814843
Si       6.65288420       3.12467413       1.51002201       0.10067647       0.21785136      -0.06225421
Si       1.45223379       2.98209284       0.22451510      -0.11619387       0.14088124       0.02814843
Si      -0.52777742       4.53890770       6.00025503      -0.10067647      -0.21785136       0.06225421
Si       5.68156883       4.94231433       4.92177904      -0.08234664      -0.71484650       0.18515339
Si       5.74592477       2.55824629       3.78318358      -0.01346785       0.37106020       0.06524353
Si       0.44353795       2.72126749       2.58849800       0.08234664       0.71484650      -0.18515339
Si       0.37918201       5.10533554       3.72709347       0.01346785      -0.37106020      -0.06524353
Si       2.15288037       4.64761817       1.89563676       0.41996775       0.31111824      -0.09812730
Si       1.33180294       3.05447599       4.97969283       0.21207344      -0.27166061      -0.09818910
Si       3.97222641       3.01596365       5.61464029      -0.41996775      -0.31111824       0.09812730
Si       4.79330384       4.60910583       2.53058421      -0.21207344       0.27166061       0.09818910
Si       4.03459359       5.50596714       0.25332940      -0.01206908       0.14841500      -0.20454625
Si       2.09051319       2.15761469       7.25694764       0.01206908      -0.14841500       0.20454625
14
Lattice="7.727107073254575 0.08072296265641712 1.9971654542612751 0.24538539303463636 8.31209996640765 -0.9762227669440066 -1.7858277765860473 -0.8573156903026296 6.510041961248416" Properties=species:S:1:pos:R:3:forces:R:3 unique_starting_index=20 config_type=initial n_minim_iter=6 energy=-2275.074798575897 stress="-0.00013382473875183268 0.0003839636607725371 -0.0028939645476244043 0.0003839636607725371 0.0036181835588512392 -0.0004954873701319331 -0.0028939645476244043 -0.0004954873701319331 -0.0017788513987478983" free_energy=-2275.074798575897 pbc="T T T"
Si       4.69664679       4.60165452       7.30425710       0.35563472      -0.13141054       0.14314588
Si       6.67483229       3.10421007       1.49417369       0.18084387       0.22215452       0.10662826
Si       1.49001790       2.93385272       0.22672755      -0.35563472       0.13141054      -0.14314588
Si      -0.48816760       4.43129717       6.03681096      -0.18084387      -0.22215452      -0.10662826
Si       5.71649026       4.84062568       4.94981508      -0.05993671      -0.62666606       0.08631946
Si       5.76618845       2.54253724       3.80217754       0.05772536       0.37817880       0.02243295
Si       0.47017443       2.69488156       2.58116957       0.05993671       0.62666606      -0.08631946
Si       0.42047624       4.99297000       3.72880711      -0.05772536      -0.37817880      -0.02243295
Si       2.21551236       4.59878003       1.86563649       0.19623161       0.35842962       0.17587100
Si       1.37040198       2.95690842       5.01521917       0.09044656      -0.21605598      -0.29374398
Si       3.97115233       2.93672721       5.66534816      -0.19623161      -0.35842962      -0.17587100
Si       4.81626271       4.57859881       2.51576548      -0.09044656       0.21605598       0.29374398
Si       4.07873570       5.44626644       0.22531558      -0.13699907       0.37772928      -0.22787136
Si       2.10792899       2.08924080       7.30566907       0.13699907      -0.37772928       0.22787136
14
Lattice="7.814101507549989 0.08574756711283466 2.063672587118452 0.2492968971082887 8.111599097004435 -0.9973511751125934 -1.7446186705780968 -0.8613882011269207 6.489079893452958" Properties=species:S:1:pos:R:3:forces:R:3 unique_starting_index=20 config_type=initial n_minim_iter=7 energy=-2275.124162776346 stress="0.004929188808482933 -7.057810279463702e-05 0.003403523029509494 -7.057810279463702e-05 -0.0022255148017583173 -0.0010243366049361687 0.003403523029509494 -0.0010243366049361687 -0.004194325953842121" free_energy=-2275.124162776346 pbc="T T T"
Si       4.79905339       4.48180251       7.31006332       0.42136277       0.01850312       0.33067826
Si       6.74972157       3.03092741       1.53032176       0.39496957       0.15011168       0.23238801
Si       1.51972635       2.85415595       0.24533799      -0.42136277      -0.01850312      -0.33067826
Si      -0.43094183       4.30503105       6.02507955      -0.39496957      -0.15011167      -0.23238801
Si       5.81091076       4.67947239       4.99270416       0.19983432      -0.29372646      -0.03640509
Si       5.85194571       2.49319417       3.83966220       0.16334044       0.17626859       0.04843471
Si       0.50786897       2.65648607       2.56269714      -0.19983432       0.29372646       0.03640509
Si       0.46683402       4.84276429       3.71573911      -0.16334044      -0.17626859      -0.04843471
Si       2.28750459       4.50781540       1.85611280       0.08783389       0.46856807       0.45030739
Si       1.44383241       2.84389078       5.01949351       0.07382127      -0.17528615      -0.39304255
Si       4.03127514       2.82814306       5.69928851      -0.08783389      -0.46856807      -0.45030739
Si       4.87494733       4.49206768       2.53590780      -0.07382127       0.17528615       0.39304255
Si       4.12698144       5.32509407       0.24158287      -0.09534888       0.65072125      -0.17031762
Si       2.19179830       2.01086440       7.31381843       0.09534888      -0.65072125       0.17031762
14
Lattice="7.743597282819287 0.08576681282571362 2.0689185254139657 0.24499862416977372 8.074647959516655 -0.9861544215569196 -1.7486102116495783 -0.8387761907635972 6.5872687476176335" Properties=species:S:1:pos:R:3:forces:R:3 unique_starting_index=20 config_type=initial n_minim_iter=8 energy=-2275.172553739229 stress="-0.00223085619952633 -0.00015936819314913198 0.0015524023349095888 -0.00015936819314913198 -0.0014711054476859125 -0.0004108609070372364 0.0015524023349095888 -0.0004108609070372364 0.003869583790365815" free_energy=-2275.172553739229 pbc="T T T"
Si       4.73739678       4.48216520       7.41594593       0.49507774      -0.03289104       0.20168190
Si       6.69103393       3.01867830       1.53968643       0.20664225       0.12244604       0.23016335
Si       1.50258892       2.83947338       0.25408692      -0.49507774       0.03289104      -0.20168190
Si      -0.45104823       4.30296028       6.13034642      -0.20664225      -0.12244604      -0.23016335
Si       5.74456138       4.65534407       5.06594026       0.01592360      -0.20217846      -0.09451616
Si       5.79182769       2.49639654       3.88508897       0.12415809       0.15194044      -0.00264336
Si       0.49542432       2.66629451       2.60409259      -0.01592360       0.20217846       0.09451616
Si       0.44815800       4.82524205       3.78494388      -0.12415809      -0.15194044       0.00264336
Si       2.26982577       4.50381592       1.89110778      -0.11139508       0.36732840       0.33419938
Si       1.41942759       2.83582309       5.09545381      -0.05861792      -0.09424288      -0.29663433
Si       3.97015993       2.81782266       5.77892508       0.11139508      -0.36732840      -0.33419938
Si       4.82055810       4.48581550       2.57457904       0.05861792       0.09424288       0.29663433
Si       4.08835413       5.30897662       0.24544565      -0.17329229       0.50416469      -0.24427741
Si       2.15163157       2.01266196       7.42458721       0.17329229      -0.50416469       0.24427741
14
Lattice="7.742953718027347 0.08138633367305821 2.01781484898691 0.23476946432396154 8.139874141406157 -0.9425095855604501 -1.7812014619465368 -0.8103360117017169 6.546818255270379" Properties=species:S:1:pos:R:3:forces:R:3 unique_starting_index=20 config_type=initial n_minim_iter=9 energy=-2275.2425603474044 stress="0.0013570122597137675 0.00023141880789671364 -0.002281061402383916 0.00023141880789671364 0.0012983484693645055 0.002121470002892728 -0.002281061402383916 0.002121470002892728 0.0023218214568528598" free_energy=-2275.2425603474044 pbc="T T T"
Si       4.72509496       4.54188323       7.37951491       0.10468926      -0.06972957      -0.02993235
Si       6.69906916       3.04907993       1.52597808       0.03371518       0.05037281       0.15231793
Si       1.47142676       2.86904123       0.24260861      -0.10468926       0.06972957       0.02993235
Si      -0.50254744       4.36184454       6.09614544      -0.03371518      -0.05037281      -0.15231793
Si       5.72124754       4.70645296       5.02036149      -0.04801977      -0.23953451       0.01910948
Si       5.78226555       2.53054110       3.84441318      -0.00784492       0.11074091       0.03812740
Si       0.47527418       2.70447150       2.60176203       0.04801977       0.23953451      -0.01910948
Si       0.41425617       4.88038337       3.77771033       0.00784492      -0.11074091      -0.03812740
Si       2.24497870       4.55614237       1.90762321       0.05341614       0.18545584      -0.05839093
Si       1.38640726       2.88680813       5.04997548       0.07992740      -0.10096198       0.00176658
Si       3.95154302       2.85478209       5.71450031      -0.05341614      -0.18545584       0.05839093
Si       4.81011446       4.52411633       2.57214804      -0.07992740       0.10096198      -0.00176658
Si       4.07445867       5.36996657       0.23751548      -0.01407310       0.00438400      -0.22377467
Si       2.12206305       2.04095789       7.38460804       0.01407310      -0.00438400       0.22377467
14
Lattice="7.75643214722229 0.08772753688220808 2.027470304568591 0.24997938315921292 8.104352722293848 -0.979633439854881 -1.7721513427034674 -0.842553864082529 6.528594789595083" Properties=species:S:1:pos:R:3:forces:R:3 unique_starting_index=20 config_type=initial n_minim_iter=10 energy=-2275.272953097625 stress="-7.013661173723619e-05 0.000506580485520841 -0.0009737134114544906 0.000506580485520841 -0.00011792076721829159 0.00047479695099536523 -0.0009737134114544906 0.00047479695099536523 1.7504582055214953e-05" free_energy=-2275.272953097625 pbc="T T T"
Si       4.75994922       4.49513596       7.34515871       0.00683376      -0.05437357       0.03341143
Si       6.72128909       3.04287877       1.52108183       0.02262503       0.02284298       0.13469667
Si       1.47431097       2.85439043       0.23127295      -0.00683376       0.05437357      -0.03341143
Si      -0.48702891       4.30664763       6.05534983      -0.02262503      -0.02284298      -0.13469667
Si       5.74573770       4.64996672       4.99881292      -0.01980872      -0.02462446       0.08093762
Si       5.80299316       2.52144771       3.83207693       0.00721292      -0.03344436      -0.06540470
Si       0.48852249       2.69955968       2.57761873       0.01980872       0.02462446      -0.08093762
Si       0.43126703       4.82807868       3.74435472      -0.00721292       0.03344436       0.06540470
Si       2.27296286       4.54735398       1.88414123      -0.02349377       0.16995015      -0.05244150
Si       1.40921530       2.83716690       5.02096526       0.06663477      -0.07924731       0.01555135
Si       3.96129733       2.80217242       5.69229042       0.02349377      -0.16995015       0.05244150
Si       4.82504489       4.51235949       2.55546639      -0.06663477       0.07924731      -0.01555135
Si       4.09007853       5.36280379       0.21031422       0.01369554      -0.06296340      -0.10448044
Si       2.14418166       1.98672260       7.36611743      -0.01369554       0.06296340       0.10448044
14
Lattice="7.764050998986405 0.06693457690126649 2.035870649893821 0.22961890656070277 8.095642885338881 -0.9894804470699325 -1.7630759471545208 -0.8460898688622 6.521058768083443" Properties=species:S:1:pos:R:3:forces:R:3 unique_starting_index=20 config_type=initial n_minim_iter=11 energy=-2275.278759193838 stress="0.00012042903547291782 -0.00029509657926316007 0.00030661468604538156 -0.00029509657926316007 -1.1065246219422982e-05 -0.00010678328868785988 0.00030661468604538156 -0.00010678328868785988 -0.00012590306541701948" free_energy=-2275.278759193838 pbc="T T T"
Si       4.76395088       4.46943330       7.33870983      -0.01303982      -0.05962733       0.05731284
Si       6.72313632       3.02294073       1.52657182       0.00128472       0.03790104       0.11971759
Si       1.46664308       2.84705430       0.22873914       0.01303982       0.05962732      -0.05731284
Si      -0.49254236       4.29354686       6.04087715      -0.00128472      -0.03790104      -0.11971759
Si       5.74382147       4.61489030       4.99896573       0.01514610       0.06958110       0.08023818
Si       5.80644730       2.50410788       3.83097381      -0.01036077      -0.06132786      -0.09699639
Si       0.48677249       2.70159729       2.56848324      -0.01514610      -0.06958109      -0.08023817
Si       0.42414665       4.81237972       3.73647516       0.01036077       0.06132786       0.09699639
Si       2.27165821       4.54576315       1.87813783      -0.02507043       0.13577828      -0.03107691
Si       1.41336050       2.81648609       5.01305968       0.01105024      -0.02787541       0.01721500
Si       3.95893575       2.77072445       5.68931114       0.02507043      -0.13577828       0.03107691
Si       4.81723346       4.50000150       2.55438929      -0.01105024       0.02787541      -0.01721500
Si       4.08020032       5.35129938       0.20343855       0.05675251      -0.11895696      -0.06673603
Si       2.15039363       1.96518821       7.36401042      -0.05675251       0.11895696       0.06673603
14
Lattice="7.765802209695226 0.08883086509217508 2.0356391774828237 0.2584758988022113 8.097399170057736 -1.0113253595213096 -1.7640859229882369 -0.8707835535833975 6.514862029796019" Properties=species:S:1:pos:R:3:forces:R:3 unique_starting_index=20 config_type=initial n_minim_iter=12 energy=-2275.2860609713453 stress="-0.0007449425383298622 0.0004938582856947711 0.0007478099064033706 0.0004938582856947711 0.0001041639999063574 -0.0006362140503017568 0.0007478099064033706 -0.0006362140503017568 -0.00030003269982060516" free_energy=-2275.2860609713453 pbc="T T T"
Si       4.78659557       4.46053408       7.32325898      -0.08162315      -0.06116537       0.02726971
Si       6.73957051       3.04574722       1.52947340       0.02031237       0.00300833       0.04959794
Si       1.47359661       2.85491240       0.21591686       0.08162315       0.06116537      -0.02726971
Si      -0.47937833       4.26969926       6.00970244      -0.02031237      -0.00300833      -0.04959794
Si       5.76242165       4.61142073       4.99040358      -0.01006898       0.09305494       0.07023480
Si       5.81759018       2.51526716       3.81322836      -0.01672161      -0.09575290      -0.07091610
Si       0.49777053       2.70402575       2.54877227       0.01006899      -0.09305494      -0.07023480
Si       0.44260200       4.80017933       3.72594749       0.01672161       0.09575290       0.07091610
Si       2.29382463       4.57087324       1.86066396      -0.10916534       0.05496112      -0.05462837
Si       1.43030250       2.79557785       4.99821960       0.02104014       0.00593823      -0.02911662
Si       3.96636756       2.74457324       5.67851189       0.10916534      -0.05496112       0.05462837
Si       4.82988968       4.51986863       2.54095625      -0.02104015      -0.00593823       0.02911661
Si       4.10239533       5.36397028       0.17802721       0.05191905      -0.14222149       0.02797070
Si       2.15779686       1.95147620       7.36114864      -0.05191905       0.14222149      -0.02797070
14
Lattice="7.767437568814838 0.05785953092307704 2.0220926591490787 0.22730485046059024 8.088156276805979 -1.0124492605243125 -1.7738287929158036 -0.8637491061922786 6.516811576220727" Properties=species:S:1:pos:R:3:forces:R:3 unique_starting_index=20 config_type=initial n_minim_iter=13 energy=-2275.295120720216 stress="0.00015382555954812963 -0.0004859167137593278 0.00010339705996489679 -0.0004859167137593278 6.940319377024774e-05 -0.0002509300448298377 0.00010339705996489679 -0.0002509300448298377 0.00017912366903192358" free_energy=-2275.295120720216 pbc="T T T"
Si       4.75718427       4.42795339       7.31995239      -0.06113472      -0.00463838      -0.02385683
Si       6.73150232       3.01887536       1.53153517       0.04249035      -0.02347121      -0.00804037
Si       1.46372935       2.85431331       0.20650258       0.06113472       0.00463838       0.02385683
Si      -0.51058869       4.26339134       5.99491981      -0.04249035       0.02347121       0.00804037
Si       5.73942579       4.59025205       4.98691784      -0.00666087      -0.01088811       0.02155553
Si       5.80346375       2.48208938       3.79376793      -0.08045423      -0.01552257       0.05066844
Si       0.48148784       2.69201466       2.53953714       0.00666087       0.01088811      -0.02155553
Si       0.41744987       4.80017732       3.73268705       0.08045423       0.01552257      -0.05066844
Si       2.26642401       4.57020324       1.85160366      -0.02542729       0.02585176      -0.01694473
Si       1.41286120       2.78459537       4.99454245      -0.03419804       0.01465725      -0.09438927
Si       3.95448962       2.71206346       5.67485131       0.02542729      -0.02585175       0.01694473
Si       4.80805243       4.49767134       2.53191253       0.03419804      -0.01465725       0.09438927
Si       4.08742654       5.33012700       0.16401440       0.09891317      -0.04095361       0.05271763
Si       2.13348708       1.95213970       7.36244057      -0.09891317       0.04095361      -0.05271763
14
Lattice="7.767819023518544 0.07274038374959085 2.020808972473056 0.24204339628639665 8.091581510321722 -1.0077788646981434 -1.7759782045516703 -0.8636317574638741 6.51558470880667" Properties=species:S:1:pos:R:3:forces:R:3 unique_starting_index=20 config_type=initial n_minim_iter=14 energy=-2275.296991911956 stress="1.4177208624502849e-05 -3.8384590730568334e-05 1.2830581683929996e-05 -3.8384590730568334e-05 5.6141326629827836e-05 8.86704342216697e-05 1.2830581683929996e-05 8.86704342216697e-05 -1.1464214559738975e-05" free_energy=-2275.296991911956 pbc="T T T"
Si       4.76218129       4.44188914       7.32005364      -0.04338492      -0.00853384      -0.02029470
Si       6.73727948       3.03223047       1.53268125       0.07137884      -0.02422320       0.00354115
Si       1.47170292       2.85880100       0.20856118       0.04338492       0.00853383       0.02029470
Si      -0.50339526       4.26845966       5.99593357      -0.07137884       0.02422320      -0.00354115
Si       5.74749396       4.60642456       4.98931588      -0.00580756      -0.04338042       0.00604596
Si       5.80630791       2.49386054       3.79364689      -0.06001774      -0.00900188       0.07435097
Si       0.48639026       2.69426558       2.53929894       0.00580756       0.04338042      -0.00604596
Si       0.42757630       4.80682960       3.73496792       0.06001775       0.00900188      -0.07435097
Si       2.27376948       4.57819573       1.85172044      -0.04247433       0.02188041      -0.01191916
Si       1.41757027       2.79116381       4.99485591      -0.01613578       0.01370110      -0.09913346
Si       3.96011474       2.72249441       5.67689438       0.04247432      -0.02188041       0.01191916
Si       4.81631395       4.50952632       2.53375891       0.01613578      -0.01370110       0.09913346
Si       4.09959475       5.33655035       0.16737664       0.06856672      -0.00442694       0.03434253
Si       2.13428947       1.96413978       7.36123817      -0.06856672       0.00442694      -0.03434253
14
Lattice="7.77087548246349 0.09838495086760551 2.0124500337450164 0.27007585906568465 8.085198764516603 -1.0076308752793026 -1.7856916291764384 -0.8692402573003707 6.514173314717189" Properties=species:S:1:pos:R:3:forces:R:3 unique_starting_index=20 config_type=initial n_minim_iter=15 energy=-2275.3002991481208 stress="-5.491004420856886e-05 0.000723071961575364 -0.0004318025657020663 0.000723071961575364 -0.0002978183527143841 0.0003600459414790263 -0.0004318025657020663 0.0003600459414790263 -4.9053724678155604e-05" free_energy=-2275.3002991481208 pbc="T T T"
Si       4.76595649       4.44984386       7.31134005      -0.01613133      -0.00607456       0.01360777
Si       6.75548041       3.05033637       1.53074476       0.11297329      -0.02978721       0.03709306
Si       1.48930322       2.86449960       0.20765242       0.01613133       0.00607456      -0.01360777
Si      -0.50022070       4.26400709       5.98824771      -0.11297329       0.02978721      -0.03709306
Si       5.76100311       4.62017672       4.98710390       0.00671168      -0.07533820       0.00015336
Si       5.80790882       2.50592785       3.78748411      -0.01793310      -0.01682406       0.08412524
Si       0.49425660       2.69416674       2.53188857      -0.00671168       0.07533820      -0.00015335
Si       0.44735089       4.80841561       3.73150836       0.01793310       0.01682406      -0.08412524