12
Lattice="5.722858000752152 1.2847644495734245 -1.2942204938488089 2.186146135876379 4.85820506110917 1.0299858928694332 -0.6066776901195934 2.9196079480744626 11.636439197377815" Properties=species:S:1:pos:R:3:forces:R:3 unique_starting_index=158 config_type=initial n_minim_iter=1 energy=-1949.700209753907 stress="0.0027894608927776653 -0.00020934547367781133 -0.0005161518232035968 -0.00020934547367781133 0.00263145192182613 0.0003180598821267814 -0.0005161518232035968 0.0003180598821267814 0.0021574252965712412" free_energy=-1949.700209753907 pbc="T T T"
Si       6.50913242       5.54977811       5.06159467       0.28398474      -0.27694746       0.61219742
Si       1.51925003       5.70149464      11.17293160      -0.10818506      -0.15005416      -0.06564141
Si       1.71924298       2.18413196       1.84159420      -0.29076786       0.61401658      -0.30413464
Si       5.96917283       6.10836154       2.56723380       0.47103990      -0.89045916       0.50088449
Si       4.61982836       5.26984434       6.61759947      -0.21891151       0.05887826       0.24230672
Si       3.41706102       3.72353362       8.75832272      -0.10612677       1.04593561      -0.61600092
Si       2.96672266       6.02262667       9.28957792      -0.22189125      -0.49151918      -0.26587827
Si       3.13014143       2.66460969       3.86278759      -0.36832535       0.47878857      -0.38092931
Si       3.73881079       4.62459553       2.70425615       0.10497180      -0.29419325      -0.50185900
Si       0.98304992       2.47347047       4.84453384       0.39498557      -0.45447346       0.58162818
Si       5.12672180       6.59655553       8.59012847       0.05502188       0.08677659       0.26260816
Si       5.64937983       2.60405297       1.80660316       0.00420393       0.27325106      -0.06518144
12
Lattice="5.662237535150455 1.2781639028270069 -1.2744722278095169 2.169259022027122 4.811297188378309 1.0202066078549283 -0.5759941017903758 2.8770081963284833 11.538744561443854" Properties=species:S:1:pos:R:3:forces:R:3 unique_starting_index=158 config_type=initial n_minim_iter=2 energy=-1949.758371841759 stress="-0.009472755445119324 2.9404737186478116e-05 0.002394347404099498 2.9404737186478116e-05 -0.010878382329690356 -2.797944173427771e-05 0.002394347404099498 -2.797944173427771e-05 -0.009460057952828326" free_energy=-1949.758371841759 pbc="T T T"
Si       6.45980753       5.49080127       5.03566522       0.39066780      -0.21722515       0.72606616
Si       1.52769081       5.63182176      11.07879965       0.00012983      -0.28898122      -0.05609083
Si       1.70255336       2.17068122       1.82324119      -0.28285534       0.68268258      -0.27584484
Si       5.92374305       6.03777251       2.55801779       0.42337512      -0.91177670       0.41814914
Si       4.58566091       5.21506678       6.57068805      -0.31236780      -0.05860923       0.20508865
Si       3.39979153       3.69437749       8.68162852      -0.14777073       0.94656985      -0.62022921
Si       2.95524746       5.94831924       9.21006128      -0.31177388      -0.16504163      -0.31202141
Si       3.10199003       2.64327574       3.82929655      -0.21959309       0.46977763      -0.25776979
Si       3.71035282       4.57504605       2.67720674       0.15185591      -0.23526323      -0.62903029
Si       0.98961892       2.43798356       4.81299915       0.29764466      -0.54771882       0.64806610
Si       5.09596897       6.52731118       8.52713637       0.12430479       0.04405944       0.20092205
Si       5.59650230       2.58475587       1.79892279      -0.11361729       0.28152649      -0.04730572
12
Lattice="5.626055949409179 1.3136996123301128 -1.3004564544835406 2.1704784636255234 4.827655648964254 0.9902405522604363 -0.5817819058133655 2.8084344922795554 11.58158048900105" Properties=species:S:1:pos:R:3:forces:R:3 unique_starting_index=158 config_type=initial n_minim_iter=3 energy=-1950.1585852540243 stress="-0.0011916128213740498 -0.0013562700630222325 0.002403073013898359 -0.0013562700630222325 -0.011906131960161727 -0.0009937613899146805 0.002403073013898359 -0.0009937613899146805 -0.005401843261231403" free_energy=-1950.1585852540243 pbc="T T T"
Si       6.45267807       5.47453058       5.07739199      -0.09732776       0.23567942       0.65833851
Si       1.50941519       5.56524997      11.09114230      -0.38068982      -0.02468305      -0.10923639
Si       1.66683633       2.23461958       1.78523073       0.14771705       0.09794785      -0.17992370
Si       5.94271038       5.97458449       2.56969825      -0.15803392      -0.47914245       0.55142152
Si       4.53579706       5.20997705       6.58570281      -0.15931424      -0.02690017       0.10699803
Si       3.36130128       3.76523615       8.63427850       0.46326308      -0.59920201      -0.98369008
Si       2.91554295       5.87642324       9.18690214      -0.48006905       0.89846140       0.18936606
Si       3.04867521       2.68650149       3.79040284       0.28831691      -0.17283784      -0.14361279
Si       3.70649806       4.55897557       2.60206496       0.21998575       0.11168548      -0.67483565
Si       1.01932926       2.37086681       4.88011262       0.15106914      -0.56226093       0.55354045
Si       5.07397870       6.51994731       8.54440363       0.10100032       0.13317685       0.17499849
Si       5.55851992       2.63123665       1.77434931      -0.09591746       0.38807544      -0.14336444
12
Lattice="5.510304188242087 1.3950355297378954 -1.3350432402041408 2.1556972512429984 4.96350713261195 0.9774714593256741 -0.603953060850228 2.864726770293816 11.61265245303761" Properties=species:S:1:pos:R:3:forces:R:3 unique_starting_index=158 config_type=initial n_minim_iter=4 energy=-1950.3416998849161 stress="-0.003730393810199927 0.0012835873073496658 0.0009340107334682421 0.0012835873073496658 -0.00029915729934158 -0.00039671790504847653 0.0009340107334682421 -0.00039671790504847653 -0.0011009857021073634" free_energy=-1950.3416998849161 pbc="T T T"
Si       6.33594242       5.64669906       5.10146444      -0.24904277       0.22808864       0.44004470
Si       1.45215109       5.69623399      11.10192740      -0.30881569       0.09413051       0.05420852
Si       1.62272700       2.34363134       1.75706789       0.22159491      -0.08142978      -0.06456335
Si       5.86446027       6.10498118       2.58030858      -0.20973600      -0.22198865       0.47162561
Si       4.42263083       5.37435624       6.59131152      -0.02496258      -0.10092603       0.28988605
Si       3.27039632       3.93787661       8.58077871       0.63164891      -0.81006700      -1.24454804
Si       2.82813430       6.02394480       9.17685483      -0.52179421       1.00244426       0.30484891
Si       2.96311733       2.80371605       3.75610392       0.64733403      -0.26177914      -0.22493016
Si       3.65429292       4.68443979       2.54240913       0.21092234       0.07661648      -0.41709864
Si       1.01503706       2.39560473       4.93160473      -0.15298999      -0.30226726       0.62919447
Si       4.97054261       6.72479927       8.55328130      -0.05086511       0.14468797      -0.09972943
Si       5.43837319       2.76612078       1.74055614      -0.19329382       0.23249000      -0.13893864
12
Lattice="5.494277447729623 1.3977403506766757 -1.3693524646726298 2.137027398622727 4.988290159167192 0.9637409359808422 -0.6728807516838095 2.8791500385330693 11.617044469049274" Properties=species:S:1:pos:R:3:forces:R:3 unique_starting_index=158 config_type=initial n_minim_iter=5 energy=-1950.4815503947918 stress="0.0026263575400235647 0.0024160712406435603 -0.0036926756578918724 0.0024160712406435603 0.003797314692767682 -0.00024918746089341176 -0.0036926756578918724 -0.00024918746089341176 0.00299455068311325" free_energy=-1950.4815503947918 pbc="T T T"
Si       6.28492911       5.66108923       5.11271874      -0.38144934       0.20328557       0.33643992
Si       1.36118096       5.71610062      11.08996296      -0.10228036       0.16205238       0.10763726
Si       1.59363606       2.39056519       1.72642959       0.29603437      -0.30438752       0.14978883
Si       5.83918081       6.07030857       2.58696177      -0.27250599       0.07741005       0.33591717
Si       4.34619141       5.39855050       6.58482662       0.16291275      -0.18027841       0.22683851
Si       3.21320704       3.99520696       8.49105452       0.74096271      -0.84904700      -1.29254605
Si       2.73105707       6.05388101       9.15185127      -0.46534561       1.03613047       0.43514258
Si       2.92151484       2.83731212       3.71043695       0.49537877      -0.42085269       0.02064003
Si       3.63240749       4.69232553       2.47552202       0.24870647       0.13293946      -0.29733754
Si       0.99805582       2.36786601       4.97727815      -0.10751791      -0.03983862       0.33581648
Si       4.89691189       6.76453645       8.53680476      -0.35210700       0.02999582      -0.19189460
Si       5.39901074       2.80040908       1.69886598      -0.26278886       0.15259049      -0.16644259
12
Lattice="5.442550519118988 1.3543040147209926 -1.3298397778054252 2.0895414755539896 4.9993558333969075 0.983729286067258 -0.6187034466410372 2.916303246305587 11.611968567373655" Properties=species:S:1:pos:R:3:forces:R:3 unique_starting_index=158 config_type=initial n_minim_iter=6 energy=-1950.6079878582302 stress="0.0015735435488172514 -0.0012911171270142878 0.0009763329340881411 -0.0012911171270142878 0.010177964542728258 0.0028992090728896316 0.0009763329340881411 0.0028992090728896316 0.0017440699967610355" free_energy=-1950.6079878582302 pbc="T T T"
Si       6.23914564       5.63807835       5.20787877      -0.30861887       0.18561970       0.06548882
Si       1.36427238       5.74579348      11.10062404      -0.13314628       0.25964910       0.11812278
Si       1.57052338       2.41841364       1.72459250       0.46711324      -0.35506060       0.32263551
Si       5.78510657       6.00472839       2.67335068      -0.31488555       0.26958030       0.28099740
Si       4.30830417       5.39593159       6.63841278       0.18322380      -0.15338772       0.19232778
Si       3.23305203       4.02191223       8.43938861       0.60120281      -0.57727243      -1.08409284
Si       2.69633755       6.09236417       9.17346674      -0.27647828       0.56023273       0.33501802
Si       2.90638936       2.84412370       3.71072774       0.43069004      -0.57218500       0.08932658
Si       3.60180545       4.68048355       2.46336638       0.34045299       0.23296502      -0.25854471
Si       1.01928438       2.34487270       5.03271623      -0.18702162       0.04780429       0.11529372
Si       4.86573212       6.77773099       8.58465481      -0.42184954       0.05000469      -0.16392726
Si       5.34855240       2.79274229       1.72948383      -0.38068275       0.05204991      -0.01264581
12
Lattice="5.4446166054359155 1.3376156996204973 -1.359308973990512 2.078669324150895 4.9283956514005895 0.9478192140058489 -0.6486534636861323 2.7922964272701827 11.66000833224373" Properties=species:S:1:pos:R:3:forces:R:3 unique_starting_index=158 config_type=initial n_minim_iter=7 energy=-1950.7366633628121 stress="0.002874071539982358 0.00011427074165874942 -0.001897514916818384 0.00011427074165874942 0.00498686919253394 0.000353584587018247 -0.001897514916818384 0.000353584587018247 0.0018008474861121602" free_energy=-1950.7366633628121 pbc="T T T"
Si       6.21842059       5.51794625       5.22290578      -0.33400511       0.14472721      -0.03622752
Si       1.31831652       5.58819811      11.12060677       0.10200586       0.14821940       0.18624194
Si       1.56566893       2.38737574       1.70608550       0.33526766      -0.45690933       0.31273458
Si       5.77472247       5.86518221       2.66885674      -0.23327893       0.43458220       0.27436836
Si       4.27956886       5.26643293       6.64652388       0.40631498      -0.24257239      -0.02149251
Si       3.23193135       3.90621741       8.37534231       0.41396387      -0.17934937      -0.84045746
Si       2.64020320       5.96963812       9.18135785      -0.09115501       0.27657518       0.32763748
Si       2.90310141       2.77514298       3.68990748       0.20402108      -0.51166844       0.28111584
Si       3.60437683       4.59629052       2.39744072       0.27014380       0.12388293      -0.17830178
Si       1.01313760       2.24860460       5.08313728      -0.12582703       0.28774096      -0.26221223
Si       4.83051012       6.62746986       8.57934910      -0.63474416      -0.09497878      -0.03133804
Si       5.33048727       2.75468275       1.69987381      -0.31270701       0.06975043      -0.01206867
12
Lattice="5.465884874245655 1.2898559537844847 -1.3477785416487027 2.0707632800690075 4.834220914392786 0.9535503787209595 -0.6122090114060769 2.7134645595288944 11.756943582159023" Properties=species:S:1:pos:R:3:forces:R:3 unique_starting_index=158 config_type=initial n_minim_iter=8 energy=-1950.8423515465508 stress="0.0032964064851019495 -0.002866064687014012 0.0004801325333465418 -0.002866064687014012 -0.00046417053714074716 4.865201029920195e-05 0.0004801325333465418 4.865201029920195e-05 0.004648932344086706" free_energy=-1950.8423515465508 pbc="T T T"
Si       6.23845269       5.38870848       5.30351949      -0.21290576       0.06699719      -0.16384204
Si       1.34411334       5.46192325      11.22115693      -0.04817175       0.01094006       0.11225825
Si       1.58765785       2.31863458       1.73224557       0.24892943      -0.44151888       0.12093106
Si       5.78067162       5.73368425       2.73099326      -0.17359748       0.36920217       0.22067874
Si       4.32016865       5.12481666       6.72374103       0.38835338      -0.01664998      -0.17410013
Si       3.30240451       3.76937427       8.39106377       0.13291739       0.60850381      -0.29113537
Si       2.65066109       5.87073588       9.28203450       0.20153421      -0.28395695       0.10960689
Si       2.94673625       2.67703109       3.73507414       0.03034835      -0.31868749       0.30545098
Si       3.63007614       4.50253462       2.40259052       0.16399987      -0.04968154      -0.16619219
Si       1.02607599       2.18711865       5.14146658       0.02381791       0.24303182      -0.39421656
Si       4.84798050       6.46740514       8.66202422      -0.57792648      -0.37220450       0.23807304
Si       5.34270220       2.68565499       1.73011293      -0.17729908       0.18402430       0.08248734
12
Lattice="5.490174932525938 1.3346090749228035 -1.3451640183957707 2.110558276287944 4.854758315187558 0.9388020851397044 -0.6098185897727354 2.7074376292144597 11.648451856448505" Properties=species:S:1:pos:R:3:forces:R:3 unique_starting_index=158 config_type=initial n_minim_iter=9 energy=-1950.8953297661444 stress="0.0016989961253233762 0.0009317234086918534 -0.000246133728124809 0.0009317234086918534 -0.0010863844062708667 -4.9197180461690706e-05 -0.000246133728124809 -4.9197180461690706e-05 -0.0011360428543818744" free_energy=-1950.8953297661444 pbc="T T T"
Si       6.27554741       5.44876030       5.23180247      -0.03757515      -0.00968640      -0.07990856
Si       1.37301837       5.47800578      11.11757766      -0.04909326      -0.10911239       0.06367291
Si       1.61745973       2.31259048       1.72201600       0.09884058      -0.40389109       0.14357977
Si       5.82160639       5.80501092       2.69315122      -0.04283531       0.30973411       0.13934939
Si       4.37056424       5.15774226       6.64749893       0.30377463      -0.05516087      -0.19274985
Si       3.33610942       3.78512914       8.29700283      -0.00086624       0.76454312      -0.27902216
Si       2.69051303       5.90468415       9.19888256       0.22539863      -0.30731709      -0.01034618
Si       2.97885108       2.68369017       3.70655989       0.00129465      -0.03478682       0.25873053
Si       3.67305545       4.53976332       2.37320860       0.07809508      -0.23450740      -0.06046391
Si       1.03045710       2.20733981       5.07774380       0.06653573       0.17831409      -0.33993509
Si       4.88152468       6.50168460       8.56970903      -0.51315484      -0.28058083       0.35579770
Si       5.36654865       2.72998387       1.70540612      -0.13041451       0.18245157       0.00129544
12
Lattice="5.466435574493911 1.345232742444913 -1.3583652757279674 2.104290915145021 4.857983289223274 0.9250169328982187 -0.6237829280072429 2.6837718077719117 11.646810416202449" Properties=species:S:1:pos:R:3:forces:R:3 unique_starting_index=158 config_type=initial n_minim_iter=10 energy=-1950.9465022127756 stress="-0.0029305376417792764 0.000889239395073144 0.0006865126200213158 0.000889239395073144 -0.0012448202491276126 -0.0011251389017349395 0.0006865126200213158 -0.0011251389017349395 -0.00243317894121767" free_energy=-1950.9465022127756 pbc="T T T"
Si       6.23210019       5.45488614       5.20400489       0.13860473      -0.09449953      -0.07677511
Si       1.35161820       5.46057252      11.11179887      -0.08322333      -0.09728311       0.07943901
Si       1.62055648       2.28831409       1.72550243      -0.00168503      -0.28997080      -0.02166084
Si       5.78463696       5.83063326       2.67712664       0.08560966       0.18448899       0.08708374
Si       4.35770606       5.14750132       6.62456007       0.17911744       0.01014300      -0.15441529
Si       3.31975708       3.78104930       8.26296373      -0.08441299       0.66931380      -0.23711838
Si       2.67193659       5.89684499       9.19233524      -0.02328787      -0.34413868      -0.00227187
Si       2.97042576       2.66519439       3.71024011       0.03470635       0.21757505       0.24880396
Si       3.66240163       4.54128475       2.35390226      -0.02638461      -0.38614760      -0.02109415
Si       1.01497195       2.21040758       5.05801673       0.15064806       0.09388167      -0.23298382
Si       4.82789797       6.48227971       8.55631124      -0.27060758      -0.17294634       0.35470349
Si       5.33090798       2.74033000       1.69078226      -0.09908483       0.20958357      -0.02371075
12
Lattice="5.468476180512959 1.3524370037381286 -1.3877741923479248 2.1073103588249444 4.861009751287344 0.9342874288839218 -0.6866353745604353 2.731717085380976 11.665603352500545" Properties=species:S:1:pos:R:3:forces:R:3 unique_starting_index=158 config_type=initial n_minim_iter=11 energy=-1951.0064690424417 stress="-0.005288594178489945 0.001857026421930395 0.00236174251698227 0.001857026421930395 -0.0015759156255118723 0.0014897479672508274 0.00236174251698227 0.0014897479672508274 -0.0043348959268535965" free_energy=-1951.0064690424417 pbc="T T T"
Si       6.19401406       5.49238841       5.19116142       0.39842642      -0.26065099      -0.03679909
Si       1.28673328       5.50543557      11.14194165      -0.22107977       0.02346863      -0.09359050
Si       1.62950083       2.25834990       1.73771875      -0.21541032      -0.18506336      -0.06627375
Si       5.76436726       5.87424332       2.69340806       0.33375205       0.04327007      -0.01888363
Si       4.34900792       5.17590755       6.61262027       0.26817731       0.26447454      -0.22656913
Si       3.29228626       3.86798931       8.19520901      -0.42398313      -0.06626222       0.10153912
Si       2.62399418       5.93326361       9.21762875      -0.42054475      -0.29877832       0.10200254
Si       2.96312599       2.67134774       3.72813484       0.03342789       0.53130385       0.20208459
Si       3.66708498       4.53960859       2.33221665      -0.10833985      -0.49785656       0.00148495
Si       0.99237208       2.24539657       5.04417474       0.16226398       0.09523641      -0.12081538
Si       4.73877979       6.50292553       8.58410417       0.25479501       0.12675280       0.21985937
Si       5.29899085       2.78172099       1.66760323      -0.06148484       0.22410516      -0.06403909
12
Lattice="5.483051165187578 1.3341421874186494 -1.424038503626453 2.087211276313463 4.856114833577485 0.9134684419308696 -0.7618930309035719 2.7108941318735043 11.68631233632742" Properties=species:S:1:pos:R:3:forces:R:3 unique_starting_index=158 config_type=initial n_minim_iter=12 energy=-1951.0464630791494 stress="-0.0024155341495844277 0.0002173443348206234 -0.0003107222948804605 0.0002173443348206234 0.0010440740252311148 -0.0005831865957013224 -0.0003107222948804605 -0.0005831865957013224 -0.0003418185700689204" free_energy=-1951.0464630791494 pbc="T T T"
Si       6.16270684       5.45667060       5.14609186       0.29717384      -0.19070262       0.03306794
Si       1.20521869       5.48020916      11.14471595      -0.22977116       0.12109851      -0.03988224
Si       1.61321473       2.23824597       1.72893722      -0.16985382      -0.22728938      -0.12499084
Si       5.74255983       5.86200121       2.65054291       0.26303089       0.00851431       0.01411513
Si       4.31221411       5.15343323       6.58015199       0.15072524       0.25064317      -0.10782854
Si       3.23168251       3.85357619       8.19142536      -0.26945966      -0.21099725      -0.07090658
Si       2.55747488       5.89214703       9.20953393      -0.54096136      -0.19467361       0.12826749
Si       2.93718886       2.66037956       3.72307938       0.09831974       0.46546650       0.21873996
Si       3.64178253       4.51279580       2.31079300      -0.07297909      -0.47092757      -0.02540081
Si       0.96201342       2.24134321       5.02891960       0.26608330       0.02387514      -0.04007060
Si       4.67250095       6.46590188       8.56954799       0.29836198       0.12260401       0.11748071
Si       5.28982912       2.76313339       1.63538950      -0.09066989       0.30238879      -0.10259162
12
Lattice="5.513644753766826 1.313021202951037 -1.4519545727343257 2.0775145150434233 4.839276267282818 0.9036976156409402 -0.8253353546843757 2.7021016145219847 11.710034228210024" Properties=species:S:1:pos:R:3:forces:R:3 unique_starting_index=158 config_type=initial n_minim_iter=13 energy=-1951.102102154258 stress="0.0017525960032013575 -0.00036590934528197194 -0.0010719944258054336 -0.00036590934528197194 0.0018622957766763358 -0.000933993851224921 -0.0010719944258054336 -0.000933993851224921 0.002509622673103884" free_energy=-1951.102102154258 pbc="T T T"
Si       6.16784943       5.40963720       5.13042351       0.20191115      -0.04484894       0.05435946
Si       1.13319370       5.45876594      11.15740120      -0.24473261       0.22121761      -0.00585879
Si       1.60064442       2.21253333       1.72035163      -0.02551352      -0.36427980      -0.07063950
Si       5.75553199       5.82908976       2.63948613       0.13476665       0.08512167       0.04049615
Si       4.30422772       5.13554200       6.55999814       0.15398822       0.29349579      -0.04657579
Si       3.18917618       3.86339995       8.16999383      -0.23083096      -0.63501796      -0.10013339
Si       2.49515960       5.84021462       9.21687209      -0.50457252       0.06258583       0.12746885
Si       2.92535538       2.66516807       3.72885112       0.17519172       0.24234164       0.17887790
Si       3.63694033       4.46007340       2.28646834       0.01652855      -0.28254038      -0.05079952
Si       0.95454173       2.23396022       5.02437193       0.24173389       0.00953107      -0.02843743
Si       4.63203376       6.42747235       8.58370508       0.19595106       0.10503779       0.00043392
Si       5.29404614       2.76037285       1.60900733      -0.11442163       0.30735569      -0.09919185
12
Lattice="5.554852623186576 1.2794694710437629 -1.4854142806558708 2.0642506234583697 4.808096225661172 0.8970615124953 -0.9137616369069077 2.706884196183214 11.719617671861302" Properties=species:S:1:pos:R:3:forces:R:3 unique_starting_index=158 config_type=initial n_minim_iter=14 energy=-1951.156208155148 stress="0.003564396354989659 -0.0012831799659844586 -0.0028440319904302143 -0.0012831799659844586 0.000681890931295276 -2.2268263863802025e-05 -0.0028440319904302143 -2.2268263863802025e-05 0.00439239054795694" free_energy=-1951.156208155148 pbc="T T T"
Si       6.16848917       5.35178321       5.09977507       0.21809480       0.04285865       0.12232985
Si       1.03050901       5.44600575      11.16113135      -0.19121646       0.24144283       0.07335005
Si       1.59172200       2.15881545       1.71484011       0.00028079      -0.43721028      -0.02151985
Si       5.76381410       5.79343259       2.62614867       0.11183354       0.03909418       0.03364895
Si       4.29924699       5.11398800       6.52297833       0.06147278       0.26559557       0.12966190
Si       3.13403533       3.85727628       8.12262864      -0.28204402      -0.68139892      -0.05881657
Si       2.40433122       5.79156478       9.22345405      -0.35702790       0.16283899      -0.10724281
Si       2.91935381       2.66218639       3.73975240       0.20715862       0.10508478       0.12097690
Si       3.63300795       4.38780106       2.25725608       0.06189760      -0.05643092      -0.08267964
Si       0.93927106       2.23523772       5.00298943       0.22356493      -0.01429691       0.02304631
Si       4.56945581       6.37781538       8.58941325       0.02147890       0.01121878      -0.12458789
Si       5.29371573       2.75618984       1.57277399      -0.07549357       0.32120323      -0.10816719
12
Lattice="5.589441966895992 1.2736798572893717 -1.4802648604457342 2.071554917521052 4.795871648057749 0.8764326285078863 -0.9139816585974254 2.6624757142745503 11.657536657236236" Properties=species:S:1:pos:R:3:forces:R:3 unique_starting_index=158 config_type=initial n_minim_iter=15 energy=-1951.2033677418658 stress="0.0039823756249150076 -0.0003870802649197026 -0.0007646120641567558 -0.0003870802649197026 0.0015333170189397373 -0.001237535355148198 -0.0007646120641567558 -0.001237535355148198 0.0039497009330305" free_energy=-1951.2033677418658 pbc="T T T"
Si       6.22434007       5.30673529       5.06794048       0.27129325       0.16023947       0.11076329
Si       1.01736036       5.40530817      11.09586845      -0.18926445       0.23260647       0.12773021
Si       1.59985985       2.10841681       1.70060792       0.06902538      -0.46296758       0.00104609
Si       5.81019292       5.77696648       2.61329073       0.12220243       0.06694313       0.02313287
Si       4.35144036       5.09479266       6.46631921      -0.11582872       0.18658337       0.29261509
Si       3.14203918       3.82220175       8.03985627      -0.30936161      -0.61599248      -0.01891872
Si       2.38696399       5.73276482       9.17327394      -0.08407963       0.19073092      -0.32044954
Si       2.94986623       2.66164356       3.73803970       0.26843749      -0.04515616       0.01447612
Si       3.65921799       4.33259793       2.21769868      -0.05026487       0.27995820       0.00337778
Si       0.96738328       2.21889644       4.96134417       0.16413037      -0.09544113       0.01729061
Si       4.58759013       6.32605453       8.55239361      -0.17379350      -0.04501769      -0.14592462
Si       5.31137859       2.77365360       1.55025820       0.02750387       0.14751349      -0.10513918
12
Lattice="5.611321453336079 1.250555867150379 -1.470397886679221 2.0666537077650657 4.781675030285451 0.882658963325162 -0.93268129104077 2.69429284984694 11.58014066826403" Properties=species:S:1:pos:R:3:forces:R:3 unique_starting_index=158 config_type=initial n_minim_iter=16 energy=-1951.2446013266806 stress="0.0029095994548355296 -0.0015644704249388468 -0.0007206283686919203 -0.0015644704249388468 -0.0008535113949841281 0.0007092036754934183 -0.0007206283686919203 0.0007092036754934183 0.00047903406906027197" free_energy=-1951.2446013266806 pbc="T T T"
Si       6.25106979       5.29005584       5.04132819       0.25826347       0.16836104       0.19159791
Si       0.98229469       5.43549843      11.03354994      -0.09130472       0.17459352       0.17860741
Si       1.60119039       2.06546615       1.69529636       0.10692684      -0.46096548       0.06785765
Si       5.82767213       5.76995346       2.61071709       0.16448139      -0.00596098       0.01067698
Si       4.36744657       5.10700715       6.42579504      -0.21216728       0.05100627       0.37370696
Si       3.12222554       3.80602052       7.97724693      -0.33880007      -0.15189658      -0.01129101
Si       2.35177270       5.73879885       9.12315128       0.13835350       0.07166040      -0.58509648
Si       2.96879869       2.67146627       3.73383480       0.26684304      -0.16085254      -0.00392330
Si       3.66230602       4.30186856       2.20716146      -0.04569620       0.50836215      -0.04748374
Si       0.97627861       2.23194304       4.91859531       0.07954141      -0.10533844       0.04198530
Si       4.57916800       6.32245669       8.51202062      -0.37614635      -0.20040657      -0.14456539
Si       5.31682147       2.78063041       1.53497921       0.04970499       0.11143722      -0.07207228
12
Lattice="5.594332092712177 1.2700568063077877 -1.455283650230068 2.0761661875650512 4.792475645698885 0.8789107853816751 -0.8991925310595275 2.6857725105574803 11.531916066819143" Properties=species:S:1:pos:R:3:forces:R:3 unique_starting_index=158 config_type=initial n_minim_iter=17 energy=-1951.289642361114 stress="-0.0011649269736758866 0.0008868132412020534 0.0008872115943134076 0.0008868132412020534 -0.0013204889556425107 -0.00040437446106620067 0.0008872115943134076 -0.00040437446106620067 -0.0007394332121858929" free_energy=-1951.289642361114 pbc="T T T"
Si       6.27497652       5.31258915       5.03651270       0.26982301       0.13032230       0.19647937
Si       0.99994230       5.44933565      10.99594100       0.01092692       0.10579412       0.16449534