10
Lattice="3.2890999999999995 -2.270048291610333e-16 -3.826649271931738e-17 3.8394466714888943e-16 5.56302 -3.378724697425919e-16 -1.4407616800030518 7.821213934693734e-16 11.240288957314874" Properties=species:S:1:pos:R:3:forces:R:3 unique_starting_index=388 config_type=initial n_minim_iter=1 energy=-1602.7967226015023 stress="-0.29085239435372046 -0.09247632162732797 -0.34813307491855744 -1.0629502473160668e-11 0.14982736396220975 -7.059238061839317e-13" pbc="T T T"
Si       0.36988363       3.71885551       8.02462213       0.28794743      -0.24865483      -0.26379360
Si       2.01443363       1.84416449       8.02462213       0.28794743       0.24865483      -0.26379359
Si       1.05281321       3.93108194       1.22051666       8.59096428      -7.63708617     -23.47741398
Si       2.69736321       1.63193806       1.22051666       8.59096428       7.63708617     -23.47741398
Si       0.16421153       0.65791390       5.90760363       0.11493083       4.60827393      -0.47362779
Si       1.80876153       4.90510610       5.90760363       0.11493083      -4.60827393      -0.47362779
Si       2.15153806       1.18793063       2.65750330      -2.33978837     -12.73664736      18.03388082
Si       0.50698806       4.37508937       2.65750330      -2.33978837      12.73664736      18.03388082
Si       0.65437137       1.90577160       3.37891516      -6.65405416       5.25020939       6.18095455
Si       2.29892137       3.65724840       3.37891516      -6.65405416      -5.25020939       6.18095455
10
Lattice="3.3088496868290833 -2.2812924357712804e-16 -0.010202058698512 3.861272559298487e-16 5.57361057178892 -3.383640462821358e-16 -1.4842777420583766 7.902354130580163e-16 11.325580408184598" Properties=species:S:1:pos:R:3:forces:R:3 unique_starting_index=388 config_type=initial n_minim_iter=2 energy=-1604.1141399700296 stress="-0.27582994251271303 -0.08786051788948195 -0.31860530698990686 -2.6762019480990628e-12 0.13949390325882682 2.2966064755725288e-12" pbc="T T T"
Si       0.34724308       3.72591035       8.08114867       0.25414687      -0.21930267      -0.24659939
Si       2.00166792       1.84770022       8.07604764       0.25414687       0.21930267      -0.24659939
Si       1.05622068       3.93780056       1.22365982       7.98752979      -7.03478045     -21.61266878
Si       2.71064553       1.63581002       1.21855879       7.98752979       7.03478045     -21.61266878
Si       0.14688519       0.65962811       5.94952476       0.11848599       4.38053368      -0.49329414
Si       1.80131003       4.91398247       5.94442373       0.11848599      -4.38053368      -0.49329414
Si       2.15597319       1.18891606       2.67175538      -2.08045620     -11.94829805      16.37351966
Si       0.50154835       4.38469451       2.67685641      -2.08045620      11.94829805      16.37351966
Si       0.64714864       1.90992572       3.40180591      -6.27970646       4.98649285       5.97904264
Si       2.30157348       3.66368485       3.39670488      -6.27970646      -4.98649285       5.97904264
10
Lattice="3.6298713599388184 -2.47067338132299e-16 -0.18016726951906123 4.203968274548752e-16 5.7382292278923 -3.462125872083786e-16 -2.2057437380393097 9.204423578557644e-16 12.675491770745532" Properties=species:S:1:pos:R:3:forces:R:3 unique_starting_index=388 config_type=initial n_minim_iter=3 energy=-1617.088937166687 stress="-0.08931886674258845 -0.0172203238754703 -0.09304537771227434 2.9167675436431696e-12 0.051964354708605755 7.37816159313772e-12" pbc="T T T"
Si      -0.03085547       3.83559687       8.97213599       0.00340636       1.16880767      -0.13005178
Si       1.78408021       1.90263236       8.88205235       0.00340636      -1.16880767      -0.13005178
Si       1.11219474       4.04256888       1.26798217       2.98572564      -2.94443281      -6.79448828
Si       2.92713042       1.69566034       1.17789854       2.98572564       2.94443281      -6.79448828
Si      -0.14210645       0.68629394       6.61048686       0.05038410       1.25420925      -0.27238505
Si       1.67282923       5.05193529       6.52040323       0.05038410      -1.25420925      -0.27238505
Si       2.22333562       1.20443757       2.89186643      -1.24835253      -4.43250087       4.41524465
Si       0.40839994       4.53379166       2.98195007      -1.24835253       4.43250087       4.41524465
Si       0.52469260       1.97451325       3.76280225      -1.79116357       1.75762818       2.78168046
Si       2.33962828       3.76371598       3.67271861      -1.79116357      -1.75762818       2.78168046
10
Lattice="3.8637197894713027 -2.5923589633162245e-16 -0.32767161545257006 4.480486678691791e-16 5.805091231236698 -3.664364741207764e-16 -2.812265682325484 9.817749790945234e-16 13.584874038267516" Properties=species:S:1:pos:R:3:forces:R:3 unique_starting_index=388 config_type=initial n_minim_iter=4 energy=-1619.7229818383212 stress="-0.004151581968594911 0.020204069853428524 -0.011869770315054397 -2.4696815687833937e-12 0.014959693447004027 1.7666814301032859e-12" pbc="T T T"
Si      -0.36431291       3.88352293       9.55813978      -0.02265059       2.13336763      -0.53281180
Si       1.56754699       1.92156830       9.39430398      -0.02265059      -2.13336763      -0.53281180
Si       1.14800717       4.08152703       1.28426058       1.08323132      -1.52951333      -1.92185645
Si       3.07986706       1.72356420       1.12042478       1.08323132       1.52951333      -1.92185645
Si      -0.39502244       0.69776051       7.04607462       0.01394489       0.23339919       0.10504322
Si       1.53683745       5.10733072       6.88223881       0.01394488      -0.23339919       0.10504322
Si       2.24943847       1.20620890       3.01320240      -0.92723984      -1.61051394       1.08036254
Si       0.31757858       4.59888233       3.17703821      -0.92723984       1.61051394       1.08036254
Si       0.41121338       2.00238293       3.99907566      -0.14728578       0.52198260       1.26926249
Si       2.34307327       3.80270830       3.83523985      -0.14728578      -0.52198260       1.26926249
10
Lattice="3.882404107143231 -2.538731859347928e-16 -0.3812715013667971 4.595172824709728e-16 5.703602814836972 -4.036254436870274e-16 -3.003624368493054 9.183361963090196e-16 13.764182576021742" Properties=species:S:1:pos:R:3:forces:R:3 unique_starting_index=388 config_type=initial n_minim_iter=5 energy=-1620.0826125933243 stress="-0.00010234334425962626 0.018632266442670766 -0.0037788948813205583 8.771375107044779e-12 0.011211719682581634 -5.866658209034388e-12" pbc="T T T"
Si      -0.49266134       3.82228470       9.66109408      -0.04808946       1.83867775      -0.61562563
Si       1.44854072       1.88131811       9.47045833      -0.04808946      -1.83867775      -0.61562563
Si       1.14100965       4.00539905       1.27387532       0.83210527      -1.42224516      -1.28039771
Si       3.08221170       1.69820377       1.08323957       0.83210527       1.42224516      -1.28039771
Si      -0.49035411       0.68629000       7.12570595       0.01041856       0.12664718       0.25780447
Si       1.45084794       5.01731281       6.93507020       0.01041856      -0.12664718       0.25780447
Si       2.21305520       1.18009639       3.02096437      -0.95838750      -1.36758452       0.49037071
Si       0.27185315       4.52350643       3.21160012      -0.95838750       1.36758452       0.49037071
Si       0.35792529       1.96900453       4.04128262       0.16395313       0.36268479       1.14784817
Si       2.29912735       3.73459828       3.85064687       0.16395313      -0.36268479       1.14784817
10
Lattice="3.8937671051899025 -2.6266667833898137e-16 -0.4792246410473334 4.461620257140947e-16 5.477178425191598 -4.472220771256097e-16 -3.343350423170942 8.523447697670447e-16 13.955189728350906" Properties=species:S:1:pos:R:3:forces:R:3 unique_starting_index=388 config_type=initial n_minim_iter=6 energy=-1620.5973717059364 stress="-0.003045545996158083 0.011387020550583172 0.002139360411059247 3.2916147668507946e-12 0.007623372985169601 -1.5737372952688605e-12" pbc="T T T"
Si      -0.72937414       3.68407502       9.74915427      -0.14718716       0.84176560      -0.68209558
Si       1.21750941       1.79310340       9.50954195      -0.14718716      -0.84176560      -0.68209558
Si       1.12180120       3.83592571       1.24107711       0.55942979      -1.32643567      -0.56486526
Si       3.06868475       1.64125272       1.00146479       0.55942980       1.32643567      -0.56486526
Si      -0.66616457       0.65997722       7.20141197       0.10756265       0.23456218       0.53044511
Si       1.28071899       4.81720121       6.96179965       0.10756265      -0.23456218       0.53044511
Si       2.12896768       1.12318548       3.00037139      -1.14833399      -1.29201799      -0.23699210
Si       0.18208413       4.35399294       3.23998371      -1.14833399       1.29201799      -0.23699210
Si       0.25788327       1.89350672       4.07926831       0.62852871       0.09340594       0.95350783
Si       2.20476682       3.58367171       3.83965599       0.62852871      -0.09340594       0.95350783
10
Lattice="3.9530078991148025 -2.8355871698212983e-16 -0.5924358711807965 4.2398471894319916e-16 5.250414003388186 -5.138109982905423e-16 -3.756192478959192 7.402652780849162e-16 13.948643333854898" Properties=species:S:1:pos:R:3:forces:R:3 unique_starting_index=388 config_type=initial n_minim_iter=7 energy=-1621.0598997037393 stress="-0.0010413218246645578 0.007194188517719541 0.0051857491513464015 -4.6515474526066e-12 0.006787299134958427 2.0753984645478085e-12" pbc="T T T"
Si      -0.99790723       3.54160382       9.68381320      -0.34153777       0.04268797      -0.67785477
Si       0.97859672       1.70881018       9.38759526      -0.34153777      -0.04268797      -0.67785477
Si       1.11530129       3.66126633       1.18408066       0.42947453      -1.08599271      -0.13816288
Si       3.09180524       1.58914767       0.88786273       0.42947453       1.08599271      -0.13816288
Si      -0.86726923       0.63545512       7.17603532       0.36425172       0.47555049       0.67291712
Si       1.10923472       4.61495888       6.87981738       0.36425172      -0.47555049       0.67291712
Si       2.05397913       1.06124928       2.91462957      -1.20532579      -1.28859111      -0.53987077
Si       0.07747518       4.18916472       3.21084751      -1.20532579       1.28859111      -0.53987077
Si       0.15879607       1.81622817       4.05569754       0.75313731      -0.25076486       0.68297131
Si       2.13530002       3.43418583       3.75947960       0.75313731       0.25076486       0.68297131
10
Lattice="3.9992882602395667 -3.1447638211133e-16 -0.7312989952282312 3.8899339385693327e-16 5.0492092480381565 -5.498413882427803e-16 -4.251021037122188 6.832291655176448e-16 13.713628279145112" Properties=species:S:1:pos:R:3:forces:R:3 unique_starting_index=388 config_type=initial n_minim_iter=8 energy=-1621.615267451073 stress="-0.0033658813958538226 0.004999756048223206 0.0048223087360325925 -2.408029804668571e-12 0.00934443606480122 2.3505763669351916e-12" pbc="T T T"
Si      -1.33425406       3.40659849       9.44094546      -0.47603882      -0.48181703      -0.61841271
Si       0.66539007       1.64261076       9.07529596      -0.47603882       0.48181703      -0.61841271
Si       1.09677663       3.50277260       1.09978465       0.43527743      -0.67969274      -0.06353274
Si       3.09642076       1.54643665       0.73413515       0.43527743       0.67969274      -0.06353274
Si      -1.11049736       0.61906775       7.02952245       0.49349417       0.85339868       0.56863994
Si       0.88914677       4.43014149       6.66387295       0.49349417      -0.85339868       0.56863994
Si       1.93927812       0.99899956       2.74974925      -1.28265661      -1.29643565      -0.68727378
Si      -0.06036601       4.05020969       3.11539875      -1.28265661       1.29643565      -0.68727377
Si       0.03881815       1.74242752       3.95109753       0.82992383      -0.37694769       0.80057928
Si       2.03846228       3.30678173       3.58544803       0.82992383       0.37694769       0.80057928
10
Lattice="4.053249073787614 -3.382666951599512e-16 -0.8266393370037891 3.6703670566731307e-16 4.983692055734596 -5.815082295536553e-16 -4.600477625011962 6.418719292462338e-16 13.653851765891524" Properties=species:S:1:pos:R:3:forces:R:3 unique_starting_index=388 config_type=initial n_minim_iter=9 energy=-1621.927717285208 stress="0.0072017142278909515 0.010659833306857089 0.008069051542904828 -6.760396910334637e-13 0.009966690893259295 -1.8280635579289876e-12" pbc="T T T"
Si      -1.56377514       3.35847764       9.35185477      -0.53993566      -0.50987024      -0.63673098
Si       0.46284940       1.62521442       8.93853511      -0.53993566       0.50987024      -0.63673098
Si       1.08934343       3.45179485       1.05403759       0.47819750      -0.48647706       0.05344891
Si       3.11596797       1.53189720       0.64071792       0.47819750       0.48647706       0.05344891
Si      -1.27521166       0.61797403       6.97649868       0.53872274       0.79252353       0.56289553
Si       0.75141287       4.36571803       6.56317901       0.53872274      -0.79252353       0.56289553
Si       1.87935315       0.97549526       2.66207848      -1.28956049      -1.12048012      -0.77030588
Si      -0.14727139       4.00819680       3.07539815      -1.28956049       1.12048012      -0.77030588
Si      -0.04172499       1.71675321       3.90788329       0.81257592      -0.41792050       0.79069241
Si       1.98489955       3.26693884       3.49456362       0.81257592       0.41792051       0.79069241
10
Lattice="4.001088277032168 -3.5523329200439365e-16 -0.9105466152305112 3.3750648635608353e-16 4.84908705609899 -6.118624401561769e-16 -4.864376799779071 5.838909758600802e-16 13.492907301966225" Properties=species:S:1:pos:R:3:forces:R:3 unique_starting_index=388 config_type=initial n_minim_iter=10 energy=-1622.3246018503555 stress="-0.019053652372204855 -0.003679228631230835 0.006482117801141158 1.633473955857828e-11 0.01675931144131628 3.770340007315852e-12" pbc="T T T"
Si      -1.77761554       3.26378668       9.19644996      -0.40502777      -0.62065665      -0.40843403
Si       0.22292859       1.58530038       8.74117666      -0.40502777       0.62065665      -0.40843403
Si       1.05005954       3.35476615       1.00351731       0.45512672      -0.37422330      -0.42991954
Si       3.05060368       1.49432090       0.54824400       0.45512672       0.37422330      -0.42991954
Si      -1.42457765       0.60747185       6.87231257       0.48816305       0.80305885       0.50536390
Si       0.57596648       4.24161521       6.41703926       0.48816305      -0.80305885       0.50536390
Si       1.76243351       0.94039830       2.55884670      -1.66933689      -1.27087438      -0.99175830
Si      -0.23811063       3.90868876       3.01412000      -1.66933689       1.27087438      -0.99175830
Si      -0.13252992       1.66712177       3.83647776       1.13107489      -0.45534061       1.32474797
Si       1.86801421       3.18196529       3.38120446       1.13107489       0.45534061       1.32474797
10
Lattice="4.049509251153868 -3.666969599492206e-16 -0.948533658609935 3.305419390033275e-16 4.858542252357611 -6.461744788578475e-16 -5.015405478822496 5.261542333936211e-16 13.49430395899433" Properties=species:S:1:pos:R:3:forces:R:3 unique_starting_index=388 config_type=initial n_minim_iter=11 energy=-1622.4696426025241 stress="-0.00586607151715278 0.004522467143299381 0.009852796226731925 4.939045465410327e-12 0.013753683554901011 2.835891775930256e-12" pbc="T T T"
Si      -1.86534520       3.26910969       9.18084490      -0.39092946      -0.56682163      -0.41115871
Si       0.15940943       1.58943257       8.70657807      -0.39092946       0.56682163      -0.41115871
Si       1.05574528       3.36067990       0.98702078       0.44505180      -0.34771483      -0.27584243
Si       3.08049990       1.49786235       0.51275395       0.44505180       0.34771483      -0.27584243
Si      -1.48959748       0.61000332       6.86303456       0.46948471       0.67241631       0.51740922
Si       0.53515715       4.24853893       6.38876773       0.46948470      -0.67241631       0.51740922
Si       1.75741500       0.94010034       2.53074968      -1.56332850      -1.11876984      -1.00099856
Si      -0.26733963       3.91844191       3.00501651      -1.56332850       1.11876984      -1.00099856
Si      -0.16049968       1.66960873       3.82648494       1.03972146      -0.46456447       1.17059048
Si       1.86425495       3.18893352       3.35221811       1.03972146       0.46456447       1.17059048
10
Lattice="4.077133272120916 3.4924320444839676e-17 -0.9879671293107772 1.0185470717172396e-15 4.842013261644641 -1.0443297188416069e-15 -5.1622673061078315 -4.534249900164796e-16 13.450267272714743" Properties=species:S:1:pos:R:3:forces:R:3 unique_starting_index=388 config_type=initial n_minim_iter=12 energy=-1622.608417720892 stress="-0.0018110159031608287 0.005959321279747681 0.008573719868786018 -7.950222792348174e-13 0.011166041117703859 1.6271758528967113e-12" pbc="T T T"
Si      -1.95907996       3.25664847       9.13211181      -0.37832077      -0.53178403      -0.41089797
Si       0.07948667       1.58536479       8.63812825      -0.37832077       0.53178404      -0.41089797
Si       1.05449841       3.34842497       0.96523105       0.43944078      -0.32368768      -0.21289379
Si       3.09306505       1.49358830       0.47124749       0.43944078       0.32368768      -0.21289379
Si      -1.55810678       0.60951716       6.82971028       0.44413096       0.56932215       0.51105644
Si       0.48045985       4.23249610       6.33572672       0.44413096      -0.56932215       0.51105644
Si       1.73685991       0.93425812       2.49041131      -1.53232705      -1.04378237      -1.03793040
Si      -0.30170672       3.90775514       2.98439488      -1.53232705       1.04378237      -1.03793040
Si      -0.19359964       1.66283075       3.80242799       1.02707608      -0.48407693       1.15066572
Si       1.84496700       3.17918251       3.30844443       1.02707608       0.48407693       1.15066572
10
Lattice="4.122567036557858 -1.6574516942411287e-16 -1.086588158830027 7.3001749817372245e-16 4.772350322098435 -1.2510503647456557e-15 -5.5192002348248925 -7.406574653018843e-16 13.322816650224878" Properties=species:S:1:pos:R:3:forces:R:3 unique_starting_index=388 config_type=initial n_minim_iter=13 energy=-1622.8895040107998 stress="0.0018205666816625793 0.002356894257103053 0.0013931564721617298 -6.829688404243222e-12 0.0028183960198449997 -5.460807271845639e-12" pbc="T T T"
Si      -2.19655296       3.20578509       8.99741081      -0.33734755      -0.49845924      -0.46861316
Si      -0.13526944       1.56656523       8.45411673      -0.33734755       0.49845924      -0.46861316
Si       1.04525454       3.29781012       0.90807598       0.36925829      -0.29660385      -0.14309951
Si       3.10653806       1.47454020       0.36478190       0.36925829       0.29660385      -0.14309950
Si      -1.73032832       0.60504032       6.73791527       0.34490678       0.34746600       0.44035105
Si       0.33095520       4.16731000       6.19462119       0.34490678      -0.34746600       0.44035105
Si       1.66714408       0.91294720       2.38492028      -1.44631620      -0.91742107      -1.13181270
Si      -0.39413944       3.85940312       2.92821436      -1.44631620       0.91742107      -1.13181270
Si      -0.27960553       1.63525761       3.73815994       1.06949868      -0.55598709       1.30317432
Si       1.78167799       3.13709271       3.19486586       1.06949868       0.55598709       1.30317432
10
Lattice="4.10926747850081 -3.812990698848047e-16 -1.1152594077334235 3.7390914373690057e-16 4.737844249873044 -1.3094192713267136e-15 -5.611356638957246 -7.517579847239697e-16 13.312224072498863" Properties=species:S:1:pos:R:3:forces:R:3 unique_starting_index=388 config_type=initial n_minim_iter=14 energy=-1623.0762468023374 stress="-9.206966109658773e-05 0.0003094473437675672 0.00099519335574824 -6.4144808621096475e-12 0.0010080846055290475 -2.8904769921977424e-12" pbc="T T T"
Si      -2.26998534       3.17780376       8.97276380      -0.30131146      -0.56661569      -0.41678661
Si      -0.21535160       1.56004049       8.41513409      -0.30131146       0.56661569      -0.41678661
Si       1.04059657       3.27110810       0.88934591       0.30629384      -0.28849985      -0.13826230
Si       3.09523031       1.46673615       0.33171620       0.30629384       0.28849985      -0.13826230
Si      -1.77996488       0.60401313       6.72860014       0.28382208       0.27309623       0.35783722
Si       0.27466886       4.13383112       6.17097044       0.28382208      -0.27309623       0.35783722
Si       1.61554013       0.89750775       2.35583174      -1.27817119      -0.79771374      -1.17049876
Si      -0.43909361       3.84033650       2.91346144      -1.27817119       0.79771374      -1.17049876
Si      -0.30274411       1.61807763       3.73800469       0.98936673      -0.50703760       1.36771044
Si       1.75188963       3.11976662       3.18037498       0.98936673       0.50703760       1.36771044
10
Lattice="4.118035543164629 -3.8653381436893893e-16 -1.1358695546808057 3.738661518298119e-16 4.729117980822354 -1.3695899791158978e-15 -5.6856312729655505 -8.755251577612584e-16 13.269325660066341" Properties=species:S:1:pos:R:3:forces:R:3 unique_starting_index=388 config_type=initial n_minim_iter=15 energy=-1623.3535189829677 stress="0.007623359479936725 0.004547394894855522 0.004369523300578425 -2.358774810038097e-12 -0.0018170394903202986 2.395198104410397e-12" pbc="T T T"
Si      -2.32328488       3.16130309       8.92488888      -0.26630880      -0.60501842      -0.32411636
Si      -0.26426711       1.56781489       8.35695410      -0.26630880       0.60501842      -0.32411636
Si       1.05292857       3.25966187       0.86550044       0.24479258      -0.27623743      -0.01005234
Si       3.11194634       1.46945611       0.29756566       0.24479258       0.27623743      -0.01005234
Si      -1.81198423       0.60803260       6.70700294       0.23668250       0.17874195       0.26715345
Si       0.24703354       4.12108538       6.13906817       0.23668250      -0.17874195       0.26715345
Si       1.57330919       0.88086424       2.31504561      -0.90664161      -0.42391512      -1.13386490
Si      -0.48570858       3.84825374       2.88298038      -0.90664161       0.42391512      -1.13386490
Si      -0.30859137       1.60556927       3.74669507       0.69147533      -0.36180103       1.20088015
Si       1.75042640       3.12354871       3.17876029       0.69147533       0.36180103       1.20088015
10
Lattice="4.0370738371315955 -2.1629122009517638e-16 -1.1019532182155605 6.367630530504033e-16 4.676604121004869 -1.7397783992153894e-15 -5.5342597896287895 -1.72529743981907e-15 13.099976325081075" Properties=species:S:1:pos:R:3:forces:R:3 unique_starting_index=388 config_type=initial n_minim_iter=16 energy=-1623.3952841857458 stress="-0.02543347399770908 -0.010247318806282536 -0.008686494564562752 4.1487221745072756e-12 0.005025268093365673 1.4556482179063212e-12" pbc="T T T"
Si      -2.25151150       3.12153958       8.81646896      -0.24415261      -0.72929634      -0.10258415
Si      -0.23297458       1.55506454       8.26549235      -0.24415261       0.72929634      -0.10258415
Si       1.04058490       3.22133808       0.85978888       0.21128972      -0.15506390      -0.49318678
Si       3.05912181       1.45526604       0.30881227       0.21128972       0.15506390      -0.49318678
Si      -1.75345976       0.60265728       6.62902988       0.22455479       0.20114531       0.11289583
Si       0.26507716       4.07394684       6.07805327       0.22455479      -0.20114531       0.11289583
Si       1.54536487       0.86781823       2.29010627      -1.00660588      -0.58494906      -1.09045824
Si      -0.47317205       3.80878589       2.84108288      -1.00660588       0.58494906      -1.09045824
Si      -0.28823406       1.58495421       3.71780130       0.81491398      -0.33424258       1.57333335
Si       1.73030286       3.09164991       3.16682469       0.81491398       0.33424258       1.57333335
10
Lattice="4.099816476976087 -4.1921799824023103e-16 -1.124357095046698 3.1175183607622514e-16 4.704464423928289 -1.75625185328291e-15 -5.638307474568811 -1.656045305783277e-15 13.186217517165673" Properties=species:S:1:pos:R:3:forces:R:3 unique_starting_index=388 config_type=initial n_minim_iter=17 energy=-1623.4721471356697 stress="0.0010120724510224027 0.0016977324706731675 0.0022030034252798194 3.255644583790626e-12 -0.0005666236129175528 1.4076800488093607e-12" pbc="T T T"
Si      -2.30011398       3.13876229       8.86840243      -0.26154559      -0.64643765      -0.23340881
Si      -0.25020574       1.56570213       8.30622389      -0.26154559       0.64643765      -0.23340881
Si       1.05694454       3.24023678       0.85724214       0.22781667      -0.22223095      -0.10758047
Si       3.10685278       1.46422764       0.29506359       0.22781667       0.22223095      -0.10758047
Si      -1.78954456       0.60662635       6.66816822       0.22981614       0.15083531       0.19458442
Si       0.26036368       4.09783807       6.10598967       0.22981614      -0.15083531       0.19458442
Si       1.56309147       0.87188652       2.29265904      -0.85066192      -0.37163795      -1.10530682
Si      -0.48681677       3.83257790       2.85483759      -0.85066192       0.37163795      -1.10530682
Si      -0.29816701       1.59376691       3.74087541       0.65457471      -0.31826632       1.25171168
Si       1.75174123       3.11069751       3.17869686       0.65457471       0.31826632       1.25171168
10
Lattice="4.097072856059137 -5.185044009971426e-16 -1.1220963618153492 1.4208595489518962e-16 4.699958430470902 -1.864886236378724e-15 -5.629379743986784 -1.8351737030129607e-15 13.16837319957188" Properties=species:S:1:pos:R:3:forces:R:3 unique_starting_index=388 config_type=initial n_minim_iter=18 energy=-1623.4920905807442 stress="-0.00022035021817169508 0.001176425629593766 0.0017201593281457536 1.0765066268612484e-11 -0.00032800135588534893 2.25302290859336e-12" pbc="T T T"
Si      -2.29554857       3.13459476       8.85642325      -0.26019353      -0.65174788      -0.21843684
Si      -0.24701214       1.56536367       8.29537507      -0.26019353       0.65174787      -0.21843684
Si       1.05792071       3.23673405       0.85553240       0.22621705      -0.21271382      -0.12732946
Si       3.10645714       1.46322438       0.29448422       0.22621705       0.21271382      -0.12732946
Si      -1.78504372       0.60631626       6.65957301       0.22803001       0.14644892       0.18139647
Si       0.26349271       4.09364217       6.09852483       0.22803001      -0.14644892       0.18139648
Si       1.56193433       0.87038385       2.28794658      -0.84346950      -0.36229499      -1.09785097
Si      -0.48660210       3.82957459       2.84899476      -0.84346950       0.36229500      -1.09785097
Si      -0.29615241       1.59166868       3.73911971       0.64941597      -0.31208290       1.26222080
Si       1.75238402       3.10828975       3.17807152       0.64941597       0.31208290       1.26222080
10
Lattice="4.097457453137512 -4.553605975933053e-16 -1.1201823805687225 2.466956749582023e-16 4.694923848180546 -1.941534355836502e-15 -5.623007304858092 -2.021780532652964e-15 13.146891382392097" Properties=species:S:1:pos:R:3:forces:R:3 unique_starting_index=388 config_type=initial n_minim_iter=19 energy=-1623.523539218764 stress="-0.000408194346647805 0.00113453068414662 0.0016533154142292816 -4.6707167395066164e-12 -0.0002898982596413137 -4.481523677926004e-12" pbc="T T T"
Si      -2.29192742       3.12934596       8.84163386      -0.25893269      -0.65249500      -0.20621831
Si      -0.24319870       1.56557789       8.28154267      -0.25893269       0.65249500      -0.20621831
Si       1.06065446       3.23264969       0.85270731       0.22687412      -0.20126737      -0.13266511
Si       3.10938319       1.46227416       0.29261612       0.22687412       0.20126737      -0.13266511
Si      -1.78059821       0.60609170       6.64900665       0.22522939       0.13758191       0.16691363
Si       0.26813051       4.08883215       6.08891546       0.22522940      -0.13758191       0.16691363
Si       1.56158244       0.86840030       2.28085523      -0.82460281      -0.33536508      -1.08493005
Si      -0.48714628       3.82652354       2.84094642      -0.82460281       0.33536508      -1.08493005
Si      -0.29375694       1.58905819       3.73803308       0.63143198      -0.30175299       1.25689984
Si       1.75497178       3.10586566       3.17794189       0.63143198       0.30175299       1.25689984
10
Lattice="4.11444408591602 -3.211274280525524e-16 -1.0955852804722461 4.501679754066646e-16 4.622369496862913 -2.2238512879131436e-15 -5.5463891348368595 -2.712433930428338e-15 12.842656292984838" Properties=species:S:1:pos:R:3:forces:R:3 unique_starting_index=388 config_type=initial n_minim_iter=20 energy=-1623.9406196419884 stress="0.0005183733197290368 0.0016101131524155847 -0.00145473437307965 -4.037361310148484e-12 -6.227808369178529e-05 -1.0748496457223298e-12" pbc="T T T"
Si      -2.24717217       3.05286131       8.63191282      -0.20040984      -0.62135674      -0.09974357
Si      -0.18995013       1.56950819       8.08412018      -0.20040984       0.62135674      -0.09974357
Si       1.10473297       3.17401781       0.81041884       0.21770104      -0.01168508      -0.12582976