8
Lattice="5.891890000000003 -3.611156889016768e-16 -1.8000650865705165e-16 2.2746949448253027 5.435083318596529 -2.348386746518488e-16 2.274694944825302 1.5138710529607209 5.219992827111341" Properties=species:S:1:pos:R:3:forces:R:3 unique_starting_index=302 config_type=initial n_minim_iter=1 energy=-1298.7271648221108 stress="0.041485110420397715 0.025905210421248413 0.020507832148928273 0.009305375049754561 0.013981963356281615 0.018613057262905512" pbc="T T T"
Si       3.86808214       3.09861120       4.07156935       0.12280093      -0.25705179       0.21424408
Si       5.89677803       1.72526211       1.84190318       0.17117495       0.06148182      -0.30655398
Si       4.35173042       4.57109981       1.14394786      -0.18971217       0.26496030       0.14443529
Si       7.69749727       4.71514473       1.12003089       0.08188710      -0.57139199       1.16620426
Si       5.17561130       6.17835429       4.21657553       0.91801311      -0.29543797      -0.87361033
Si       7.32136251       2.54646808       4.75937753      -0.49547681       1.20253738      -0.04041349
Si       6.62798143       4.41110104       3.31357993       0.02211893       0.01472075       0.01105810
Si       2.58523062       1.72054095       1.29245509      -0.63080603      -0.41981849      -0.31536392
8
Lattice="5.887806057287114 -0.0018320322300604045 -0.0013762063453880056 2.2714282559263763 5.432023306535807 -0.001376206345388551 2.2714282559263754 1.5116969830818732 5.217437237574904" Properties=species:S:1:pos:R:3:forces:R:3 unique_starting_index=302 config_type=initial n_minim_iter=2 energy=-1298.7391411041938 stress="0.04147475029112323 0.025860107774522127 0.020450693567609438 0.009326125648803427 0.014013142554634395 0.01865456360156376" pbc="T T T"
Si       3.86349876       3.09540851       4.06881023       0.12417041      -0.24817923       0.20997072
Si       5.89174113       1.72240155       1.83959575       0.17019736       0.06337553      -0.29684226
Si       4.34700652       4.56761662       1.14184321      -0.18099880       0.26025382       0.14354899
Si       7.69044220       4.71047894       1.11723270       0.07813026      -0.57490925       1.16311046
Si       5.16920961       6.17338550       4.21287378       0.91291797      -0.29737815      -0.87612666
Si       7.31433471       2.54246962       4.75563645      -0.50017179       1.19897895      -0.04157600
Si       6.62124391       4.40661703       3.31021159       0.02184692       0.01453972       0.01092211
Si       2.58253879       1.71874946       1.29110934      -0.62609232      -0.41668139      -0.31300736
8
Lattice="5.204130641427602 -0.29994583018149074 -0.2253166445412208 1.7324795751726225 4.916447676493531 -0.22531664454122283 1.7324795751726205 1.15301204878747 4.7846409020277445" Properties=species:S:1:pos:R:3:forces:R:3 unique_starting_index=302 config_type=initial n_minim_iter=3 energy=-1299.3254018549367 stress="-0.052043425045095223 -0.06597901108993903 -0.07080674614634658 0.008323279038963452 0.012506296830254624 0.0166486217169517" pbc="T T T"
Si       3.10520267       2.56398856       3.60675754       1.13467651       1.22502195      -1.06544430
Si       5.05307896       1.25136986       1.45790517      -0.19111752       1.31003019       1.47330787
Si       3.56403128       3.98615811       0.79576724       1.56811130      -0.86346758       0.84781590
Si       6.51708047       3.93494389       0.65940868      -1.16023241      -1.36783092       1.04739937
Si       4.11132526       5.34415183       3.59555098       0.12857042      -1.31155676      -1.60543909
Si       6.14592565       1.88467584       4.13116641      -1.70971452       0.85492741      -0.81247864
Si       5.50335105       3.66262908       2.75133444      -0.60895598      -0.40527668      -0.30444025
Si       2.13693814       1.42219017       1.06833663       0.83866220       0.55815239       0.41927912
8
Lattice="5.4637966042786745 -0.39925477817673566 -0.2999166445534511 1.7411200023367743 5.1943217890584075 -0.2999166445534512 1.7411200023367743 1.158762486928101 5.072297146348519" Properties=species:S:1:pos:R:3:forces:R:3 unique_starting_index=302 config_type=initial n_minim_iter=4 energy=-1299.9229480115935 stress="0.02222238762954551 0.009887675305126374 0.0056145344089559256 0.00736712842901074 0.011069615052488414 0.014736083442445022" pbc="T T T"
Si       3.17832674       2.65190857       3.78043087       0.38955352       0.27946726      -0.03399383
Si       5.25776846       1.24497305       1.49397136       0.19208527       0.34190297       0.27787602
Si       3.67336589       4.16229251       0.77957781       0.40819554       0.03739132       0.25097362
Si       6.75630605       4.06089273       0.60249140      -0.22174072      -0.51269531       0.58200508
Si       4.18561853       5.57239052       3.73236903       0.29829397      -0.36521974      -0.65451554
Si       6.35446785       1.87793406       4.31226381      -0.55855324       0.55713101      -0.16845966
Si       5.67609386       3.77759410       2.83769515      -0.50085444      -0.33333218      -0.25039618
Si       2.20943357       1.47043785       1.10457985      -0.00697991      -0.00464532      -0.00348952
8
Lattice="5.365918964584873 -0.46410722581485736 -0.3486332274219809 1.6435078221109003 5.12907047038793 -0.3486332274219827 1.6435078221108987 1.0937989390042357 5.023197477553648" Properties=species:S:1:pos:R:3:forces:R:3 unique_starting_index=302 config_type=initial n_minim_iter=5 energy=-1300.1081360076096 stress="0.01438793827158964 0.002666745098185585 -0.0013938530639077374 0.007000693106207348 0.010519020864764037 0.014003121931042074" pbc="T T T"
Si       3.04787780       2.56517812       3.71364193       0.53050458       0.43542014      -0.19950988
Si       5.12594861       1.15872949       1.42927640       0.13993233       0.51652773       0.47375948
Si       3.54299707       4.07395555       0.71476723       0.60647446      -0.10212879       0.36412695
Si       6.56629450       3.93220534       0.51198513      -0.34771224      -0.53571703       0.54156084
Si       3.99901007       5.44450843       3.63398369       0.20791256      -0.46395239      -0.66536097
Si       6.16239959       1.75602612       4.21684653      -0.62842415       0.48839567      -0.26026417
Si       5.48804709       3.65244388       2.74368341      -0.74727789      -0.49733366      -0.37359263
Si       2.13701619       1.42224212       1.06837565       0.23859034       0.15878833       0.11928038
8
Lattice="5.266633867939267 -0.571311741990585 -0.4291643081500072 1.50628380995501 5.0788717732709765 -0.4291643081500073 1.50628380995501 1.0024726447921182 4.997416241335321" Properties=species:S:1:pos:R:3:forces:R:3 unique_starting_index=302 config_type=initial n_minim_iter=6 energy=-1300.315733840133 stress="0.005370568171295074 -0.0019528811741387642 -0.004489959509907913 0.004374061632374621 0.006572327203314317 0.008749207769490015" pbc="T T T"
Si       2.87451842       2.45618856       3.64412682       0.64429932       0.49110406      -0.30670105
Si       4.96942766       1.03630691       1.34396257       0.10320548       0.65525761       0.55709643
Si       3.37552839       3.97436847       0.62095250       0.70177412      -0.18182733       0.47415425
Si       6.33279023       3.76895698       0.37495970      -0.52870497      -0.44070947       0.43796984
Si       3.74551591       5.29747120       3.51536244       0.07066995      -0.60271829      -0.54525937
Si       5.92165861       1.58198142       4.10866860      -0.61065892       0.33218301      -0.42699120
Si       5.24590818       3.49129388       2.62262897      -0.73621491      -0.48997095      -0.36806183
Si       2.04634424       1.36189748       1.02304529       0.35562995       0.23668135       0.17779293
8
Lattice="5.214940421254125 -0.6905851396987157 -0.5187614255307228 1.3763004470458098 5.077234336906694 -0.5187614255307209 1.3763004470458111 0.9159651986299955 5.020799705563024" Properties=species:S:1:pos:R:3:forces:R:3 unique_starting_index=302 config_type=initial n_minim_iter=7 energy=-1300.4614608279642 stress="0.0058830775429565395 0.004882091539469622 0.004535317805941755 0.0005978568599023513 0.0008983208850669635 0.0011958619606157134" pbc="T T T"
Si       2.72441974       2.36887311       3.60220324       0.59942146       0.33937274      -0.24285669
Si       4.85190105       0.92278008       1.27177985       0.10345701       0.60650260       0.39358679
Si       3.23703371       3.90492691       0.53202399       0.54448065      -0.11572409       0.47287216
Si       6.14532502       3.63310145       0.23746321      -0.61810183      -0.21987744       0.35001245
Si       3.51641716       5.19013253       3.42318116       0.01497028      -0.67631729      -0.30866728
Si       5.72396104       1.41636796       4.03125369      -0.44146196       0.20098948      -0.56357719
Si       5.04019141       3.35438380       2.51978333      -0.55586889      -0.36994579      -0.27789999
Si       1.97329306       1.31327995       0.98652423       0.35310329       0.23499980       0.17652976
