20
Lattice="3.5344299999999986 -1.1300213704068754e-15 1.2279507956476665e-16 5.55560374209029e-16 11.51906 1.0317692745005453e-15 -1.264369908125951 -5.7595285189822745 10.013855691733104" Properties=species:S:1:pos:R:3:forces:R:3 unique_starting_index=474 config_type=initial n_minim_iter=1 energy=-3200.0967194206355 stress="-0.4034703574175502 -0.2933633027261114 -0.18368420291420617 0.01793002307273645 0.05201420842030254 0.014071809951251459" pbc="T T T"
Si       0.23916479      -2.60148009       7.57893561       1.83662372       2.89537290     -18.55277853
Si       1.00147698       5.70766014       3.14603301     -11.35868357      -8.16812931       2.81987642
Si       1.63117268       9.47053449       3.40862335       3.20760579      11.85987979       3.91266453
Si       1.15491701       0.43562109       9.10339794       8.70109133       7.34696899      -5.06502018
Si       2.06903233       0.26130332       6.31542535       1.77005577       0.21215768       2.26320823
Si       2.46592046       9.49758654       0.27053733      -0.53179420      -0.49492897       0.00609203
Si       2.36724824       6.71548626       2.77819906      26.39734978     -10.60958258       0.07430638
Si       0.99787579      -0.05343798       4.53319136      19.04814524     -12.95311694       2.48021371
Si       1.81803887       1.29434869       2.00627999      23.66045702      10.59464008     -10.43024300
Si      -0.11684345       7.47927919       1.26665361      -2.03181150       4.71845392      -1.90547897
Si       0.94205665      -4.23663301       8.33953301       1.75200059     -10.60564889       1.00111129
Si      -0.48157853       0.65117565       9.85515911      -5.40818087      -1.03827493       2.13675186
Si       1.23258690       7.84341763       2.75013423     -17.78958562       7.64864574      -1.47029799
Si       0.81971245      -1.35230468       8.72450067       1.56647501       0.58639132       6.01105736
Si      -0.82720147      -3.42693001       8.69334156      -7.14757014      -3.93376457      10.66198433
Si       0.24064910       4.10700648       5.60825387       4.78873658      -5.90774504       5.13513256
Si       0.48242014       0.61718182       2.57527629     -18.57826289     -10.92999725       0.44821885
Si       2.69571161       5.24494086       4.54303999      -3.32062956       5.25400350      -3.73283111
Si       2.14208677       4.86373408       7.16175538      -0.98363754       0.99460423       1.04543579
Si      -0.29993583       0.81630572       4.18499458     -25.57838495      12.53007032       3.16059643
20
Lattice="3.5930586158626774 -0.0020539559293168874 -0.007584660148707103 -0.006694047296777483 11.65766410047935 -0.008495664468460135 -1.3034851635137241 -5.835481320303348 10.096115028768562" Properties=species:S:1:pos:R:3:forces:R:3 unique_starting_index=474 config_type=initial n_minim_iter=2 energy=-3205.1296102041442 stress="-0.34583260515230524 -0.25392498130372726 -0.15614564155994856 0.017328800277346016 0.04659593648885769 0.008104274471919774" pbc="T T T"
Si       0.22857043      -2.63821703       7.63546031       1.50427709       2.53479880     -16.98145480
Si       1.00686643       5.77260959       3.16361778     -10.54700156      -7.54094959       2.60021339
Si       1.64573661       9.58222743       3.42416161       2.96733559      11.30787425       3.52615476
Si       1.15517135       0.43422095       9.16853771       7.83780988       6.63758775      -4.54812731
Si       2.08982824       0.25860848       6.35850850       1.62262531       0.05090578       2.11140400
Si       2.50067089       9.61018448       0.26027590      -0.45979072      -0.54690916       0.10395354
Si       2.39933554       6.79179099       2.78905923      23.91479241      -9.20250463      -0.17667814
Si       1.00666816      -0.05931643       4.56542306      16.81389945     -11.36703503       2.06848867
Si       1.84554562       1.30845845       2.01545328      20.63734793       9.24399967      -9.12732898
Si      -0.12605262       7.56888576       1.27072074      -1.75220668       4.49683172      -1.98914868
Si       0.94242778      -4.29538229       8.40344567       1.73623001      -9.64275372       0.91776048
Si      -0.51164403       0.65191743       9.93003375      -4.93222500      -0.95961619       2.03801137
Si       1.24076464       7.93582485       2.76223891     -15.74510962       6.23023803      -1.27005078
Si       0.81553129      -1.37542854       8.78994730       1.51112938       0.86636401       5.61979120
Si      -0.85831551      -3.47449423       8.76408896      -6.46049025      -3.85354025       9.65150680
Si       0.23070536       4.15154975       5.64739593       4.33921979      -5.33600062       4.63448433
Si       0.48264931       0.62132332       2.59320036     -15.94980365      -9.62471417      -0.20851489
Si       2.72729356       5.30366608       4.56717206      -3.11719851       4.54692099      -3.21578799
Si       2.15932400       4.91583118       7.20752906      -0.98951362       1.02627664       0.94551309
Si      -0.31696790       0.82448507       4.21682785     -22.93132721      11.13222572       3.29980995
20
Lattice="4.103580190346429 -0.014522212691141203 -0.07872172617597979 -0.0473293400412476 12.850716634652954 -0.09238308508506225 -1.6673438760515416 -6.5004729583597 10.788734497592136" Properties=species:S:1:pos:R:3:forces:R:3 unique_starting_index=474 config_type=initial n_minim_iter=3 energy=-3229.3108815785095 stress="-0.08122339807150486 -0.06429692752726972 -0.03118917209484466 0.0007933000561239661 -0.0006903980439607544 0.003625431328725878" pbc="T T T"
Si       0.12180040      -2.96092375       8.10599934      -0.25447460       0.27241294      -6.58696216
Si       1.05657507       6.32953409       3.30121220      -3.39430601      -2.82431245       1.47144454
Si       1.78241755      10.54419842       3.53848529       2.27232706       5.69879879       1.29432582
Si       1.14583504       0.41585109       9.70576679       2.34058119       2.60406145      -0.97239901
Si       2.26236401       0.23240932       6.71131344       0.87678123      -0.37753973       0.63775329
Si       2.81740498      10.58263552       0.15848790      -0.25218261      -1.10398099       0.65408053
Si       2.68771112       7.44909151       2.86528409       9.22214115      -4.51399814      -0.74247763
Si       1.07804493      -0.11326605       4.83048561       6.51600267      -5.20730609       1.31735324
Si       2.08583694       1.43105864       2.08510683       6.38641147       3.17132225      -2.48051532
Si      -0.19668701       8.33940085       1.29573547      -0.24918175       2.08796932      -1.33836085
Si       0.92750586      -4.80824302       8.93697474       0.65083411      -3.54387092      -0.37587268
Si      -0.78726343       0.64830102      10.55244239      -1.59074662      -1.15735486       0.46846128
Si       1.31865772       8.73035801       2.85110365      -7.21352058       2.47257990      -0.27328026
Si       0.76460434      -1.58108019       9.33351453       1.83582161       1.61652631       2.18000144
Si      -1.14792584      -3.89386430       9.35817998      -2.70336498      -0.27026501       3.45887108
Si       0.14272884       4.52963843       5.96730833       2.00620619      -0.67699379       1.79979741
Si       0.48101482       0.65489063       2.74006958      -4.67556355      -3.85846618      -1.76800558
Si       3.00339991       5.80905874       4.75523672      -1.80477680       0.97842078      -0.88362863
Si       2.30632806       5.36092441       7.57709595      -0.49262761       0.04335512      -0.61617182
Si      -0.47247368       0.89123081       4.48193560      -9.47636157       4.58864130       2.75558530
20
Lattice="4.360171727946471 -0.02681944583713335 -0.07995398102553282 -0.08740724975871499 13.482990184175264 -0.10312827916955937 -1.742586553385985 -6.821551680077126 11.046971689678525" Properties=species:S:1:pos:R:3:forces:R:3 unique_starting_index=474 config_type=initial n_minim_iter=4 energy=-3233.5046909757934 stress="-0.024098735890093925 -0.026957651913081325 -0.004540098417843428 -0.004148231118043115 -0.0075088367175883625 0.0007931553114517058" pbc="T T T"
Si       0.14564811      -3.11082563       8.28874687       0.34602268      -0.31047462      -3.21479736
Si       1.10108060       6.63116210       3.37749881      -1.98441798      -1.96965833       1.61556266
Si       1.87099356      11.06556348       3.61679747       1.90851397       3.12899777       0.21816695
Si       1.23001093       0.43208210       9.93257567       0.80112123       1.11185054      -0.37717746
Si       2.41120450       0.23297470       6.87053699       0.33355291      -0.25000635       0.08699927
Si       2.96275052      11.09317305       0.15664935      -0.75225603      -0.92014583      -0.03705612
Si       2.85466311       7.79832407       2.92656445       4.82505105      -2.71070805       0.04800785
Si       1.16274524      -0.13374688       4.94625045       2.94930919      -2.45981661       0.54514812
Si       2.22635702       1.49979011       2.12923376       3.73185987       1.66107008      -1.05313354
Si      -0.23219854       8.75306240       1.31856473       0.69911495       1.05401868      -0.50285565
Si       1.00921455      -5.05851887       9.15031040      -0.36032427      -1.19124698      -0.30499202
Si      -0.83131888       0.67450605      10.80134283      -0.97990710      -1.26829138       0.05467154
Si       1.36499557       9.15884283       2.91264675      -4.43367879       1.15776663      -0.26785341
Si       0.82918429      -1.66355726       9.55777232       1.83003580       0.85100512       1.11367070
Si      -1.20491485      -4.08790415       9.58660700      -1.86228729       0.92607764       1.84165850
Si       0.14798705       4.74742946       6.10755865       0.86509181       0.23777161       0.69213351
Si       0.50315491       0.67766408       2.80192178      -1.78333847      -2.02780642      -1.41401919
Si       3.17564601       6.08534908       4.86256295      -0.31413630       0.70694734      -0.61391621
Si       2.44144998       5.61391676       7.75144237      -0.43914835      -0.20770293      -0.89768082
Si      -0.51853327       0.94190984       4.59164662      -5.38017888       2.48035210       2.46746269
20
Lattice="4.501625506893067 -0.0326617217469881 -0.03972344028323579 -0.10644780983266165 13.975010888392024 -0.03217879377491936 -1.669686062324759 -7.003793552116188 11.061565370972179" Properties=species:S:1:pos:R:3:forces:R:3 unique_starting_index=474 config_type=initial n_minim_iter=5 energy=-3234.677739417881 stress="0.008587999372338189 -0.0043511203312307555 0.010962428675081036 -0.002070229671849496 -0.0056905452987824874 0.0016623016170423234" pbc="T T T"
Si       0.24694221      -3.17652678       8.31606743       0.84091465      -0.49322524      -1.76669156
Si       1.16047518       6.88649108       3.44831597      -1.47822667      -1.26621566       1.41273792
Si       1.96574777      11.49834328       3.71617493       1.38273382       1.60776410      -0.65332517
Si       1.38209711       0.50848553      10.00612974       0.42375512       0.38552598      -0.36585193
Si       2.56670453       0.27885725       6.93659743      -0.01734265      -0.04942915      -0.16420205
Si       3.04640265      11.49368937       0.24493361      -0.67233453       0.60166388      -0.25990484
Si       2.98725812       8.08944592       3.01289591       2.97748136      -2.19779752       1.14921424
Si       1.26516796      -0.11796327       4.98786523       1.54100080      -1.28069563       0.02737189
Si       2.33302005       1.56964440       2.16820640       3.16526766       0.96625709      -0.52574524
Si      -0.23269801       9.08390741       1.37011599       0.99328239       0.09502244      -0.20862360
Si       1.14789404      -5.19378972       9.18786348      -1.02422746      -0.26641279      -0.13536760
Si      -0.74288870       0.76005379      10.86347502      -0.99957627      -1.11034773       0.00439136
Si       1.41712420       9.51282624       2.99208735      -2.91313946       0.81159917      -0.15505939
Si       0.96960504      -1.66636774       9.61766355       1.45946667       0.42701346       0.68131508
Si      -1.13990271      -4.17670283       9.61670002      -1.44438862       0.23797694       1.08693031
Si       0.21779692       4.95739400       6.17343543       0.06548148       0.57811482       0.50840431
Si       0.54422500       0.71262022       2.82408536      -1.29370402      -1.96008126      -1.19834553
Si       3.32527739       6.33525436       4.95321385       0.69144985       1.02626691      -0.83070047
Si       2.59924814       5.86172145       7.84967484      -0.06384617       0.16698191      -0.59085954
Si      -0.50350027       1.01137027       4.62643420      -3.63404795       1.72001829       1.98431181
20
Lattice="4.453739291034981 -0.04167514590813557 -0.010012691268355725 -0.13582345844296478 14.05098411774761 0.0017571172627389474 -1.5536905221717126 -7.009054309427944 10.88420038194502" Properties=species:S:1:pos:R:3:forces:R:3 unique_starting_index=474 config_type=initial n_minim_iter=6 energy=-3235.147324840784 stress="0.0025848086244877545 -0.008013422170347988 0.005758331504950266 -0.0022997457373058316 -0.0043891753691762785 0.0006078355938753656" pbc="T T T"
Si       0.31621520      -3.17339407       8.19378914       1.11376270      -0.20109977      -1.95901022
Si       1.15496574       6.92752548       3.42921694      -1.59936649      -1.42946192       1.39882901
Si       1.95189445      11.57105686       3.70545087       1.47112921       1.46723119      -0.82147674
Si       1.44279446       0.53626868       9.88043215       0.67528205       0.21295734      -0.44111416
Si       2.59102922       0.29377296       6.85993497      -0.10337156       0.01986640      -0.24017561
Si       2.98915154      11.55244745       0.28900410      -0.73054006       0.61147975      -0.44661830
Si       2.96939006       8.12962758       3.01380522       2.56766103      -1.99740796       1.19433633
Si       1.29401270      -0.11121504       4.92846261       1.39208228      -1.35526960       0.06097861
Si       2.33029072       1.58183994       2.15670659       3.39090213       1.12521206      -0.40948973
Si      -0.23674745       9.13752590       1.37185143       1.01555192       0.39101487      -0.45985998
Si       1.21312806      -5.20034728       9.05828047      -0.92543946      -0.40889777      -0.23988386
Si      -0.65782742       0.79171128      10.71384739      -1.12321852      -1.17154672       0.14368140
Si       1.39560837       9.57198410       2.98391219      -2.49534752       0.82359594      -0.02501779
Si       1.03940138      -1.65057035       9.49142539       1.45309436       0.56151372       0.74700032
Si      -1.05069558      -4.17080898       9.47157674      -1.87932707       0.06377832       1.51744900
Si       0.25130988       5.00187817       6.10469786       0.30679200       0.66469983       0.48759173
Si       0.55455909       0.71784070       2.78870605      -1.15042981      -1.92730337      -1.65553963
Si       3.31555530       6.37910060       4.92162912       0.55972836       0.87184276      -0.70369065
Si       2.61787280       5.90989091       7.77363877      -0.19344497       0.01968120      -0.53150034
Si      -0.47616872       1.03489998       4.56750858      -3.74550058       1.65811375       2.38351061
20
Lattice="4.436017874895541 -0.04595716369767244 0.017930467789371577 -0.1497789816358836 14.226657986625828 0.04863998628164106 -1.4612038719200673 -7.054602768199494 10.754312449070312" Properties=species:S:1:pos:R:3:forces:R:3 unique_starting_index=474 config_type=initial n_minim_iter=7 energy=-3235.6185331615607 stress="0.004042446294515278 -0.004289563308098617 0.004986190386258068 -0.0012520208006194114 -0.0028255918410672785 0.00011324615435551578" pbc="T T T"
Si       0.38177855      -3.18343839       8.10728675       1.31495245       0.00340083      -1.85501596
Si       1.16249220       7.02117288       3.43337341      -1.55063675      -1.39595594       1.33562320
Si       1.96430127      11.73277362       3.72210160       1.43327814       1.16774355      -0.99467780
Si       1.51070706       0.57940815       9.80273748       0.87788458       0.03316927      -0.53823573
Si       2.62989927       0.32101659       6.81588544      -0.22767555       0.06588229      -0.25396887
Si       2.96477675      11.69750828       0.34331087      -0.64389774       0.82633384      -0.53103217
Si       2.98047839       8.23298090       3.03660809       2.00701767      -1.79348490       1.36363298
Si       1.32989698      -0.09998781       4.89276930       1.11508648      -1.33279500       0.02494029
Si       2.34718784       1.61133712       2.15659747       3.39120578       1.09112490      -0.32091281
Si      -0.23165067       9.25828480       1.38806747       1.01838628       0.42276748      -0.64445408
Si       1.27618885      -5.23378149       8.96743669      -0.92213894      -0.41151993      -0.25442096
Si      -0.58214971       0.83830567      10.61796899      -1.24238372      -0.99583264       0.27580891
Si       1.39282663       9.70457223       2.99873884      -2.00930443       0.85625428       0.10032620
Si       1.11112702      -1.63471893       9.41037729       1.35264755       0.60988449       0.74659457
Si      -0.98015895      -4.18623475       9.37102070      -2.06546977      -0.19780347       1.68535945
Si       0.29055953       5.08926437       6.07057139       0.34314838       0.78831442       0.47930658
Si       0.56786466       0.73023847       2.76551947      -1.01677398      -1.97976350      -2.01160535
Si       3.33350546       6.47738425       4.91874605       0.57433013       0.80320078      -0.62622761
Si       2.65715061       6.01070137       7.73998396      -0.21196915       0.00002990      -0.48956594
Si      -0.45573969       1.07128954       4.53395608      -3.53768739       1.43904935       2.50852508
20
Lattice="4.376541647167775 -0.04745850904017513 0.05603537252519124 -0.15467201589628315 14.433602064586921 0.10379368706708796 -1.3295209665926029 -7.1095909801753505 10.535131580340583" Properties=species:S:1:pos:R:3:forces:R:3 unique_starting_index=474 config_type=initial n_minim_iter=8 energy=-3236.397641360553 stress="-0.001309775053368325 -0.002638933392891658 0.0001852613286203336 0.0005087221267284177 -0.0009267690235305008 -0.0006345451046003433" pbc="T T T"
Si       0.46986219      -3.19450657       7.95326190       1.52229357       0.36320909      -1.87154733
Si       1.16627092       7.12769891       3.42211980      -1.44363509      -1.41894783       1.19474660
Si       1.97997383      11.92779176       3.71944244       1.48558902       0.92253814      -1.09444140
Si       1.59552028       0.63061685       9.65297044       1.28204856      -0.19357807      -0.78384660
Si       2.66123703       0.35558130       6.72573837      -0.39834887       0.07848514      -0.07408909
Si       2.91712919      11.87474083       0.40748852      -0.57643060       0.96342116      -0.72765317
Si       2.98254492       8.35138009       3.05318513       1.28413904      -1.44966209       1.40131795
Si       1.37013082      -0.09060319       4.82309546       0.76779499      -1.52000141       0.05257638
Si       2.36231725       1.65149371       2.14648614       3.25743945       1.10543580      -0.33319303
Si      -0.21168863       9.40195685       1.39686025       0.89638638       0.75865041      -0.92556606
Si       1.34505216      -5.27373492       8.80740471      -0.80716371      -0.53210008      -0.29979315
Si      -0.47711541       0.88982697      10.44178488      -1.37272329      -0.80995944       0.45962923
Si       1.38370647       9.86532747       3.00064098      -1.33619643       0.94243736       0.35251128
Si       1.20221322      -1.61289467       9.26206109       1.25685230       0.69692765       0.75900598
Si      -0.88600479      -4.20676941       9.19969828      -2.27229314      -0.46229006       1.95270065
Si       0.34773037       5.19579881       5.99586601       0.54632934       0.82684406       0.49203299
Si       0.57999233       0.73775791       2.71599513      -0.81466030      -1.97959603      -2.51464102
Si       3.33905517       6.59839927       4.88897084       0.32024571       0.48069498      -0.35022650
Si       2.69457784       6.13145942       7.65634265      -0.30387067      -0.07201359      -0.46976760
Si      -0.43158012       1.11861226       4.47303081      -3.29379626       1.29950482       2.78024389
20
Lattice="4.396241385393633 -0.0382003619303196 0.06904260632814424 -0.12449879078014175 14.56358837267301 0.08111633229064572 -1.3148022584194239 -7.19761011755014 10.535532488966957" Properties=species:S:1:pos:R:3:forces:R:3 unique_starting_index=474 config_type=initial n_minim_iter=9 energy=-3237.0084933349763 stress="0.009085443864574825 0.005369793338304523 0.005317423136498993 6.721131870274269e-06 -0.0012321302852348107 -0.0013663223031949818" pbc="T T T"
Si       0.50366944      -3.23548864       7.94425955       1.26410773       0.06405864      -1.40851646
Si       1.18730403       7.17692521       3.41889198      -1.20387771      -1.22803728       1.11376050
Si       2.03795436      12.03988329       3.69882621       1.34879542       0.82359926      -1.06097705
Si       1.64664312       0.61905178       9.64648211       1.17472998      -0.06837981      -0.73375458
Si       2.69355704       0.35219906       6.72838460      -0.44003977       0.10956343      -0.10448549
Si       2.95186816      11.99565402       0.39346598      -0.34570215       0.91860714      -0.61711345
Si       3.03449392       8.41581770       3.05543590       0.79326569      -1.31174892       1.41200486
Si       1.39869058      -0.11022532       4.82460605       0.40276438      -1.34986481      -0.02395998
Si       2.40897922       1.67587469       2.14848981       2.84027419       0.80875191      -0.17969906
Si      -0.18130158       9.48965650       1.37590165       0.68798405       0.59675701      -0.66348753
Si       1.36346976      -5.33995721       8.81206238      -0.89654575      -0.45243243      -0.23799737
Si      -0.45252984       0.86996845      10.43475595      -1.20224563      -0.56441298       0.38580610
Si       1.41038137       9.95957924       2.98954898      -1.05714548       0.69963489       0.38138945
Si       1.24548849      -1.63752753       9.26698158       1.16538568       0.53984219       0.70608500
Si      -0.88503812      -4.26810629       9.20842595      -1.83547946      -0.26577440       1.58918885
Si       0.38485400       5.23839370       5.98818070       0.38876674       0.92824809       0.47113116
Si       0.58675367       0.72430006       2.70017605      -0.67059202      -1.83475846      -2.42123533
Si       3.38690281       6.65971811       4.88379910       0.56629211       0.64093821      -0.38308992
Si       2.74309510       6.17729019       7.64738809      -0.31441964      -0.04397317      -0.55285093
Si      -0.44145025       1.13020839       4.48255488      -2.66631837       0.98938150       2.32780124
20
Lattice="4.34778657662711 -0.030515391909173472 0.07451052311237043 -0.09945270675194337 14.468205927853097 0.08060292663657753 -1.2944997124033155 -7.153114366502948 10.465510079490262" Properties=species:S:1:pos:R:3:forces:R:3 unique_starting_index=474 config_type=initial n_minim_iter=10 energy=-3237.2323624972487 stress="-0.0017519423773291404 -0.003292805256985832 -0.0005633726816720915 5.0626324992259855e-05 -0.0018729161441436955 -0.000321022523250321" pbc="T T T"
Si       0.50938714      -3.21364325       7.89078197       1.25873854       0.32710702      -1.62785464
Si       1.18828794       7.12850634       3.40055402      -1.19883292      -1.33981782       1.05375175
Si       2.04463808      11.96680806       3.67579451       1.56105211       0.91383586      -1.06665075
Si       1.64861091       0.61723636       9.58491799       1.28590765      -0.21868739      -0.89557263
Si       2.67431063       0.35458288       6.68823708      -0.40715151       0.04301908       0.02966216
Si       2.93829284      11.92487082       0.39379940      -0.55430524       1.00410811      -0.85423227
Si       3.02202832       8.36212124       3.04271355       0.88042651      -1.25971401       1.25537490
Si       1.39222677      -0.11115997       4.79521827       0.46828312      -1.58047947       0.05316147
Si       2.39643714       1.67111779       2.13775266       2.80887865       0.94560747      -0.21883705
Si      -0.15987315       9.42895302       1.36561689       0.62392096       0.99862545      -0.75718345
Si       1.35190178      -5.30427958       8.75625162      -0.76162623      -0.67619551      -0.30600502
Si      -0.43212482       0.86165633      10.36730112      -1.15759264      -0.99854321       0.33098180
Si       1.41295084       9.89884983       2.97292266      -0.98668227       0.87480734       0.51394141
Si       1.24767547      -1.62348324       9.21020915       1.20819828       0.61329912       0.72818556
Si      -0.87185121      -4.24262134       9.15062871      -1.94620893      -0.18609726       1.74492555
Si       0.40005013       5.20728482       5.95102345       0.66373119       0.78374883       0.54472625
Si       0.58394708       0.71519290       2.67854015      -0.67706287      -1.69319916      -2.42740491
Si       3.36987558       6.62357914       4.85613771       0.16392107       0.34802100      -0.19120161
Si       2.73455247       6.14120750       7.60053995      -0.40562338      -0.12301388      -0.45186192
Si      -0.43453250       1.12495398       4.45744459      -2.82797208       1.22356846       2.54209339
20
Lattice="4.3545563029400975 -0.029331413321935857 0.08117078101877706 -0.09559400241062375 14.509780057027475 0.08011672773463413 -1.2799807475719152 -7.174747636746067 10.468895503573307" Properties=species:S:1:pos:R:3:forces:R:3 unique_starting_index=474 config_type=initial n_minim_iter=11 energy=-3237.3773331849006 stress="0.0012977004813725505 -0.000641947465265862 0.001074061355384107 0.00010718789065739926 -0.0015412214302452604 -0.00064213663952277" pbc="T T T"
Si       0.52558455      -3.22263712       7.89325730       1.24053776       0.25999930      -1.52019196
Si       1.19570596       7.14639796       3.40528907      -1.16089567      -1.29712035       1.04031340
Si       2.06045143      12.00342239       3.67898302       1.50008143       0.87699887      -1.06424382
Si       1.67067221       0.61836116       9.59092488       1.27858830      -0.18487484      -0.87735266
Si       2.68944765       0.35605360       6.69562394      -0.44210425       0.06120205      -0.00003550
Si       2.94547585      11.96209162       0.39689959      -0.48121978       0.99884215      -0.82129534
Si       3.03611232       8.38423611       3.05046663       0.76112816      -1.22818225       1.27581214
Si       1.40374304      -0.11468804       4.79978711       0.39072014      -1.52608140       0.03590769
Si       2.40987567       1.67837622       2.14230320       2.71227909       0.86161221      -0.18509321
Si      -0.15402557       9.45798105       1.36476233       0.60002331       0.93180023      -0.69039147
Si       1.36643189      -5.32110177       8.76226462      -0.79147991      -0.62762134      -0.27775470
Si      -0.41657878       0.86129043      10.37212906      -1.13554716      -0.89002055       0.33165949
Si       1.42102786       9.92939945       2.97699016      -0.94272321       0.81829973       0.50040288
Si       1.26779447      -1.62712602       9.21785819       1.17772640       0.56712882       0.70971700
Si      -0.86198627      -4.25597209       9.15634423      -1.86124629      -0.17750902       1.66388274
Si       0.41386262       5.22361613       5.95529377       0.60592538       0.82405279       0.52218398
Si       0.58827794       0.71368650       2.67711482      -0.63252016      -1.68290035      -2.40574638
Si       3.38564652       6.64401732       4.86323857       0.25342234       0.38107799      -0.19631704
Si       2.75290978       6.15892192       7.60761409      -0.39331505      -0.10601812      -0.47342041
Si      -0.43256646       1.13045193       4.46250137      -2.67938083       1.13931409       2.43196317
20
Lattice="4.348576298972728 -0.026249863583856812 0.0877810426782733 -0.08555092436807635 14.5197806203117 0.0785896796917461 -1.2641346649474239 -7.182177785893587 10.455445029727452" Properties=species:S:1:pos:R:3:forces:R:3 unique_starting_index=474 config_type=initial n_minim_iter=12 energy=-3237.5423605435685 stress="0.0014665089428958457 -0.0004993889722430529 0.0011050284420146942 0.00013137864420276218 -0.0014654555777425182 -0.0006460128241309114" pbc="T T T"
Si       0.53982719      -3.22506143       7.88259951       1.21714652       0.26973824      -1.48260565
Si       1.20225213       7.14843740       3.40428823      -1.12536390      -1.28872128       1.01021186
Si       2.07584848      12.01488500       3.67507302       1.50275307       0.88093516      -1.05475627
Si       1.68911992       0.61804369       9.58087159       1.28947359      -0.18664023      -0.90076536
Si       2.69689935       0.35741725       6.69194384      -0.45468228       0.05380833       0.00762848
Si       2.94882152      11.97502127       0.39841803      -0.47005326       0.99413562      -0.83685906
Si       3.04502451       8.38862653       3.05319497       0.68766479      -1.18611892       1.24585266
Si       1.41136700      -0.11841371       4.79646253       0.34614511      -1.53673768       0.03902174
Si       2.41812763       1.68308454       2.14331361       2.62284263       0.82433903      -0.16338861
Si      -0.14359558       9.46660939       1.36094230       0.56942650       0.97540282      -0.65656357
Si       1.37478181      -5.32670343       8.75411207      -0.78320229      -0.64178839      -0.26764672