16
Lattice="2.5170109924077453 0.11777588752330906 0.2433855543075639 1.0121900128024526 10.655505722790538 -0.043509321524740255 1.0838626013154342 0.5573660932763567 15.08212557884116" Properties=species:S:1:pos:R:3:forces:R:3 unique_starting_index=92 config_type=initial n_minim_iter=1 energy=-2601.793110951747 stress="0.001350101767940058 -0.00012951963132006071 0.000382503984065917 -0.00012951963132006071 0.0010305964858795342 -0.0005502070514285642 0.000382503984065917 -0.0005502070514285642 0.0012011588356793256" free_energy=-2601.793110951747 pbc="T T T"
Si       1.85143342      11.47353290       7.47791447      -0.00783989       0.00456628       0.03925562
Si       0.47828972       0.68339808      -0.15145310       0.00062754       0.01412725      -0.01750531
Si       1.78511698       9.03647154       8.50553500       0.01647832       0.01320184      -0.00109623
Si       2.30297315       5.01999724       5.78302877      -0.00793336      -0.02165972      -0.04918079
Si       4.05804090       7.91503062      13.02947251      -0.03488753      -0.00835334      -0.00624014
Si       1.68533239       5.24917193      12.21452238      -0.03098702      -0.04484021       0.03798262
Si       2.18022875       3.26171143       7.56431807       0.00166991      -0.06077346       0.02451753
Si       2.23033380       7.48855610       5.19880984       0.00815817       0.01643129      -0.02660033
Si       1.73521180       7.37829758      10.38485657       0.02076724       0.05909525      -0.03773757
Si       1.51246866       3.54779901      14.09370158       0.02506166       0.01087713       0.06358004
Si       1.93701961       4.96634853       9.54974648       0.01320073       0.00808310      -0.05287401
Si       2.64764211       9.56851751      14.23808467      -0.01192729       0.00799045      -0.02340666
Si       2.37370907       0.49927423       5.46789361       0.00448401       0.04801597       0.01126851
Si       2.02141894       6.72957236       7.60395600      -0.00486510      -0.02704237       0.01983661
Si       3.52533242       9.21560738       4.01793517       0.02950014      -0.02161584       0.00879088
Si       1.51722448       2.50735127       1.28217681      -0.02150753       0.00189637       0.00940925
16
Lattice="2.5153364744070803 0.1179388595523502 0.24281228357332407 1.012204143090487 10.650267000416088 -0.04084691741869987 1.08041418201525 0.5611536787362376 15.073346789493334" Properties=species:S:1:pos:R:3:forces:R:3 unique_starting_index=92 config_type=initial n_minim_iter=2 energy=-2601.7936432262813 stress="-0.0003417352129560766 -8.407197022360923e-05 0.00028151393286387783 -8.407197022360923e-05 -0.0004331198730698473 -0.0004900389352346998 0.00028151393286387783 -0.0004900389352346998 -4.729307055661178e-05" free_energy=-2601.7936432262813 pbc="T T T"
Si       1.84955778      11.46993903       7.47633426      -0.00679038       0.00215114       0.05550789
Si       0.47804992       0.68306548      -0.15129354      -0.00023084       0.01100299      -0.01887163
Si       1.78297249       9.03436621       8.50267801       0.01533913       0.02099466       0.00294460
Si       2.30071354       5.01915488       5.78052944      -0.00713389      -0.02625967      -0.05291838
Si       4.05345303       7.91479667      13.02327582      -0.03483458      -0.01531632      -0.00966045
Si       1.68227627       5.24985373      12.20858108      -0.02869304      -0.04262944       0.02360185
Si       2.17762274       3.26215935       7.56043342       0.00056281      -0.05812915       0.02865463
Si       2.22840234       7.48637465       5.19734328       0.00955226       0.00817657      -0.02917236
Si       1.73265536       7.37756565      10.38043785       0.02156675       0.05560746      -0.04471424
Si       1.50914018       3.54987980      14.08628475       0.02303816       0.01918277       0.05678029
Si       1.93432624       4.96654396       9.54511641       0.01486599      -0.00028855      -0.05670503
Si       2.64387965       9.56771464      14.23186596      -0.01023373      -0.00047605      -0.01777447
Si       2.37119454       0.50068115       5.46443840       0.00184191       0.04447667       0.00583586
Si       2.01911729       6.72833975       7.60099103      -0.00542292      -0.02585870       0.02305675
Si       3.52290961       9.21229051       4.01741360       0.03044844      -0.01440274      -0.00178817
Si       1.51613196       2.50654308       1.28183120      -0.02387608       0.02176836       0.03522285
16
Lattice="2.5154360872704307 0.11868591164684465 0.2413418265793887 1.014276167273761 10.654161803039793 -0.030776467160857208 1.0715959157649153 0.576638360902798 15.068082228993987" Properties=species:S:1:pos:R:3:forces:R:3 unique_starting_index=92 config_type=initial n_minim_iter=3 energy=-2601.794039748919 stress="-6.809189658400422e-05 -8.452108221913573e-05 0.00010291438594573166 -8.452108221913573e-05 0.00015096828185935277 0.00024658275705765893 0.00010291438594573166 0.00024658275705765893 -7.847404468354669e-05" free_energy=-2601.794039748919 pbc="T T T"
Si       1.84732268      11.48181436       7.48440425      -0.00606760       0.01014269       0.05505695
Si       0.47830811       0.68330006      -0.15093682      -0.00198650      -0.00221348      -0.01517344
Si       1.77978261       9.04648415       8.50774488       0.01355221       0.01551149      -0.00308922
Si       2.29834609       5.02700357       5.78192968      -0.00680349      -0.01598869      -0.05191126
Si       4.04730256       7.93129419      13.02425337      -0.03621431       0.00371220       0.00424006
Si       1.67594142       5.26401710      12.20876516      -0.02525276      -0.02045248       0.01217712
Si       2.17389634       3.27098333       7.55993725       0.00064160      -0.06470164       0.03506078
Si       2.22691374       7.49467058       5.20157500       0.01099045       0.00164222      -0.02492829
Si       1.72806283       7.39115341      10.38300262       0.02137354       0.05081314      -0.03142365
Si       1.50161656       3.56559661      14.08438470       0.01671955       0.01316192       0.05836371
Si       1.92977383       4.97820837       9.54537078       0.01418438      -0.00337477      -0.05679619
Si       2.63730656       9.58582026      14.23487786      -0.00673804      -0.00614243      -0.03733047
Si       2.36823957       0.50698898       5.46167725       0.00092964       0.03236417      -0.00205729
Si       2.01595939       6.73855818       7.60401888      -0.00679243      -0.02084008       0.02151562
Si       3.52266370       9.22012466       4.02314766       0.02686959       0.00557856       0.00433873
Si       1.51584301       2.50907905       1.28314648      -0.01540585       0.00078718       0.03195685
16
Lattice="2.5164313695402747 0.12029948756021885 0.23814348948440558 1.0221719672986878 10.649877706795172 -0.03500520042497861 1.0534550170808372 0.5729524228718851 15.067405673006881" Properties=species:S:1:pos:R:3:forces:R:3 unique_starting_index=92 config_type=initial n_minim_iter=4 energy=-2601.794576405447 stress="0.0002656023399462994 0.00013196785445140986 -0.00022439613448371003 0.00013196785445140986 -0.0002488233655205261 5.655236903279706e-05 -0.00022439613448371003 5.655236903279706e-05 -1.654458130469343e-05" free_energy=-2601.794576405447 pbc="T T T"
Si       1.84655997      11.47580624       7.48039457      -0.00405204       0.00421513       0.04847568
Si       0.47917517       0.68338459      -0.15206010      -0.00940506       0.00249240      -0.01483432
Si       1.77641977       9.04145955       8.50343593       0.00742374       0.01605471      -0.00047468
Si       2.29548563       5.02426526       5.77692084      -0.00625123      -0.01412604      -0.04530919
Si       4.03755863       7.92675155      13.01768079      -0.03462809      -0.00345321      -0.00949284
Si       1.66442393       5.25880512      12.20619202      -0.01829400      -0.02913976       0.01230238
Si       2.16765892       3.26761249       7.55736092       0.00389921      -0.04954988       0.02692302
Si       2.22680559       7.49133803       5.19645970       0.01417121      -0.00140154      -0.02144657
Si       1.72130611       7.38706144      10.37865954       0.02152474       0.04818429      -0.02720955
Si       1.48736275       3.56136872      14.08344322       0.00224303       0.01572940       0.05879417
Si       1.92236471       4.97453168       9.54095881       0.01355774      -0.00013362      -0.04749017
Si       2.62705219       9.57913943      14.22904765      -0.00200558      -0.00435544      -0.02729318
Si       2.36285626       0.50759635       5.45885795      -0.00358112       0.03196377       0.00554049
Si       2.01184796       6.73425064       7.60046416      -0.00773837      -0.02241576       0.01159133
Si       3.52621026       9.21711732       4.01643151       0.01918993      -0.00286731       0.00179436
Si       1.51633482       2.50871067       1.28123843       0.00394591       0.00880287       0.02812906
16
Lattice="2.5135773090638547 0.12091806689948441 0.23645859489388496 1.023767184899512 10.661717320566655 -0.04171828765430042 1.0425825518306213 0.5652667429044204 15.06786123112442" Properties=species:S:1:pos:R:3:forces:R:3 unique_starting_index=92 config_type=initial n_minim_iter=5 energy=-2601.7950801867005 stress="-0.00125956567012622 0.0001273252680790912 -0.0006062877259938349 0.0001273252680790912 0.0008771411846912941 -0.00023672442017123088 -0.0006062877259938349 -0.00023672442017123088 0.0007612445679649536" free_energy=-2601.7950801867005 pbc="T T T"
Si       1.84224540      11.48481726       7.47612416       0.00075469      -0.00827563       0.04562524
Si       0.47871597       0.68444687      -0.15359272      -0.01300553      -0.00106354      -0.01467442
Si       1.77181431       9.04774434       8.49791742       0.00627923       0.01183352      -0.00980029
Si       2.29013528       5.02610139       5.77055502      -0.00863155      -0.02148571      -0.02001204
Si       4.02480820       7.92882915      13.01165970      -0.02523856      -0.02305885      -0.02112547
Si       1.65470972       5.25652573      12.20409882      -0.01586524      -0.01847344       0.01571596
Si       2.16126015       3.26437298       7.55642450       0.00619688      -0.01806234       0.00656137
Si       2.22348525       7.49718701       5.18998823       0.01462829       0.00012673      -0.00675373
Si       1.71562084       7.39226186      10.37267023       0.01985606       0.02007857      -0.02322595
Si       1.47808894       3.55837970      14.08485703      -0.00384847       0.03105766       0.03278837
Si       1.91601951       4.97491329       9.53503423       0.00980888       0.00986920      -0.03121457
Si       2.61698903       9.58188835      14.22172493      -0.00688722       0.01179411      -0.01364765
Si       2.35683005       0.50744128       5.45768744      -0.00617889       0.02013028       0.00551438
Si       2.00602164       6.73657317       7.59702255      -0.00676634      -0.02048985       0.00027076
Si       3.52336933       9.22563091       4.00942426       0.01287672       0.00074841       0.00183326
Si       1.51393523       2.51145429       1.28053007       0.01602105       0.00527089       0.03214478
16
Lattice="2.5180042708455295 0.12064635030823405 0.23825112044433783 1.0250011328469366 10.6610449513728 -0.04795947330778746 1.0599213468469084 0.5546963071641772 15.023835910568614" Properties=species:S:1:pos:R:3:forces:R:3 unique_starting_index=92 config_type=initial n_minim_iter=6 energy=-2601.797142042729 stress="0.000522444652152058 0.00024354530854922628 -0.0002591238667364292 0.00024354530854922628 -9.344933278984944e-05 -0.0003145409448369615 -0.0002591238667364292 -0.0003145409448369615 -0.0006852369667006373" free_energy=-2601.797142042729 pbc="T T T"
Si       1.85171321      11.47976941       7.45657886       0.00500025      -0.01468914       0.02818245
Si       0.47851657       0.68483782      -0.15576323      -0.01209417       0.00657409      -0.01091558
Si       1.78515048       9.04394786       8.46795446       0.00427882       0.01964129      -0.00981806
Si       2.29859399       5.01870953       5.74424287      -0.00717430      -0.02056661       0.01485070
Si       4.03880560       7.91846865      12.97092677      -0.00057707      -0.06218825      -0.03264311
Si       1.66599341       5.24296514      12.16848803      -0.01488150      -0.01681200       0.00514289
Si       2.17289479       3.24942825       7.53886203       0.00503140       0.03044496      -0.03331702
Si       2.23430941       7.49336540       5.16771947       0.01443520      -0.02833259      -0.00383645
Si       1.73258043       7.39281647      10.33315605       0.01143385      -0.02394220      -0.02267428
Si       1.49698826       3.55101335      14.05169184      -0.00884438       0.05105759       0.01686878
Si       1.93125544       4.96778915       9.49649636       0.00027710       0.03080835       0.01238807
Si       2.63473019       9.57076506      14.17067764      -0.02457490       0.04251325       0.02523092
Si       2.36626997       0.50925255       5.44401493      -0.00184264      -0.00883682       0.02129570
Si       2.01579935       6.72700063       7.57472479      -0.00003924      -0.01054281      -0.03972074
Si       3.53709495       9.22186122       3.99514146       0.01185444       0.01252602      -0.02033160
Si       1.51624803       2.51154716       1.28166822       0.01771713      -0.00765513       0.04929732
16
Lattice="2.5167207422008517 0.1185511413299428 0.24231014091555605 1.0152365786652986 10.643411903897027 -0.03623755055513654 1.0789538677336563 0.5677190463293645 15.061721726813603" Properties=species:S:1:pos:R:3:forces:R:3 unique_starting_index=92 config_type=initial n_minim_iter=7 energy=-2601.7976694377744 stress="0.00013693249594814153 -1.1226809681832752e-05 7.288716962574917e-06 -1.1226809681832752e-05 -0.0005175249095475288 0.00013012013262994086 7.288716962574917e-06 0.00013012013262994086 0.00046951819111423933" free_energy=-2601.7976694377744 pbc="T T T"
Si       1.85078443      11.46747155       7.48947600       0.00977490      -0.02098456       0.00200110
Si       0.47721964       0.68327495      -0.15524131      -0.00188439       0.00459427       0.00222355
Si       1.78800908       9.03710988       8.49927881       0.00883060       0.00690189      -0.01197126
Si       2.30042346       5.01395749       5.76530843      -0.00781625       0.00651361       0.01826654
Si       4.04639358       7.91457641      13.01468754       0.00503484      -0.03104669      -0.05029963
Si       1.67621388       5.24468566      12.20529289      -0.01998950      -0.01322301      -0.01415965
Si       2.17902830       3.24925424       7.56311615      -0.00543189       0.03697180      -0.03119986
Si       2.23390588       7.48450444       5.18996864       0.00791857      -0.03380116       0.01031516
Si       1.73962804       7.39048517      10.36658806       0.00529337      -0.01980868       0.01166296
Si       1.51204532       3.55894702      14.09198113       0.00507711       0.04564559       0.03023100
Si       1.93885162       4.96807847       9.52585193      -0.00328504       0.01975967       0.01890524
Si       2.64356236       9.56795453      14.21721375      -0.03183438       0.01175984       0.00265994
Si       2.37169534       0.51228126       5.46096692       0.00415754      -0.01672350       0.04331728
Si       2.01889191       6.72167341       7.60198127       0.00559578      -0.00594253      -0.05020685
Si       3.53308152       9.20852397       4.01830014       0.02103014       0.02104749      -0.01184592
Si       1.51494589       2.50755171       1.29040846      -0.00247140      -0.01166403       0.03010042
16
Lattice="2.5162306851343432 0.11839749097905695 0.2425920138818997 1.014188525068148 10.65406421499443 -0.03936896126807202 1.0820221574050117 0.563385851575747 15.047020264641981" Properties=species:S:1:pos:R:3:forces:R:3 unique_starting_index=92 config_type=initial n_minim_iter=8 energy=-2601.798178660594 stress="-6.786228487269665e-05 -4.9202294041438056e-05 6.043790005982838e-05 -4.9202294041438056e-05 2.6851769825946192e-05 7.070232902678496e-05 6.043790005982838e-05 7.070232902678496e-05 8.52259556923276e-05" free_energy=-2601.798178660594 pbc="T T T"
Si       1.85132920      11.47616636       7.47861593       0.00687940      -0.01305047       0.01399380
Si       0.47701860       0.68400105      -0.15509068      -0.00192659       0.00726718      -0.00291969
Si       1.78884418       9.04335620       8.48829161       0.01084797       0.00765025      -0.01275693
Si       2.30076718       5.01710463       5.75922664      -0.00744065      -0.00752626       0.01288217
Si       4.04815191       7.91753924      12.99973575       0.00013589      -0.03276577      -0.03067352
Si       1.67807031       5.24601616      12.19177649      -0.02094235      -0.00841512      -0.00542126
Si       2.17993342       3.25088933       7.55446177      -0.00302742       0.02573193      -0.02742417
Si       2.23403514       7.48973529       5.18328819       0.00865661      -0.02345700      -0.00036080
Si       1.74090613       7.39373427      10.35475312       0.00665702      -0.01990096      -0.00485074
Si       1.51452473       3.55845420      14.07724375       0.00741727       0.04237128       0.02660041
Si       1.94001749       4.97021503       9.51602872      -0.00163595       0.02091780       0.01163840
Si       2.64501812       9.57316328      14.20115761      -0.02993204       0.01656499       0.00074119
Si       2.37241340       0.51035181       5.45645250       0.00443911      -0.01481307       0.03115365
Si       2.01974650       6.72594564       7.59203723       0.00386798      -0.00426515      -0.03682297
Si       3.53258615       9.21656656       4.01199920       0.02098899       0.01896213      -0.01072233
Si       1.51479635       2.50929221       1.28895204      -0.00498523      -0.01527177       0.03494279
16
Lattice="2.5156985567215826 0.11848851900494638 0.24270313486874143 1.0146772371829773 10.67217537636554 -0.05143480507169727 1.086647518709472 0.5467220832638443 15.011974747494396" Properties=species:S:1:pos:R:3:forces:R:3 unique_starting_index=92 config_type=initial n_minim_iter=9 energy=-2601.799142173297 stress="-0.0002981237377587499 -2.6804647664392833e-05 6.032474360997697e-05 -2.6804647664392833e-05 0.0008617469574032986 -0.00015268675832686237 6.032474360997697e-05 -0.00015268675832686237 -0.0006347894131854296" free_energy=-2601.799142173297 pbc="T T T"
Si       1.85455691      11.48560686       7.45318406       0.00290557       0.00331018       0.02514236
Si       0.47623674       0.68617112      -0.15668556      -0.00512060       0.02826537      -0.01149499
Si       1.79351230       9.05079401       8.45721962       0.01229068      -0.00259389      -0.01145465
Si       2.30117860       5.01708859       5.73952884      -0.00347035      -0.03632300       0.00421903
Si       4.04994152       7.91154789      12.95779556      -0.01094534      -0.02273318       0.01214559
Si       1.67839227       5.23792767      12.15837037      -0.01699370      -0.00408151       0.01515592
Si       2.18195507       3.24745086       7.53247889       0.00309945       0.01647108      -0.02680637
Si       2.23742912       7.49371191       5.16200454       0.01085782       0.00856280      -0.03028088
Si       1.74640611       7.39478136      10.32030026       0.00434563      -0.02113126      -0.03817890
Si       1.52016038       3.55388394      14.04714259       0.00275688       0.02821857       0.02558126
Si       1.94360552       4.96999236       9.48718189      -0.00091263       0.02153952       0.01174444
Si       2.64602648       9.57490076      14.15684882      -0.02049596       0.00971408      -0.00735808
Si       2.37395431       0.50540869       5.44755809       0.00496928      -0.01921140       0.01660631
Si       2.02214970       6.72657785       7.56400041       0.00119879       0.00839017      -0.01044669
Si       3.53724320       9.22964532       3.99186658       0.01615203       0.00006550      -0.00448718
Si       1.51438219       2.51101522       1.28935676      -0.00063754      -0.01846302       0.02991283
16
Lattice="2.5160200679507283 0.11718367362048165 0.24459865345537532 1.0108857163378864 10.651027412355406 -0.058118890585179245 1.0975254953383669 0.5347735601279787 15.021165547488573" Properties=species:S:1:pos:R:3:forces:R:3 unique_starting_index=92 config_type=initial n_minim_iter=10 energy=-2601.8014683448005 stress="3.22077999945554e-05 -4.60753886677255e-05 -1.79488119675819e-05 -4.60753886677255e-05 -6.92845844146897e-05 1.592810668291959e-05 -1.79488119675819e-05 1.592810668291959e-05 9.883790190596784e-05" free_energy=-2601.8014683448005 pbc="T T T"
Si       1.85701788      11.45475135       7.46544171       0.00885794       0.01685078      -0.02103118
Si       0.47381332       0.68837844      -0.16121939      -0.00785503       0.05631060      -0.00452522
Si       1.80176150       9.03180193       8.45335324       0.01098298      -0.04457473       0.00193672
Si       2.30040082       4.99580025       5.73544622       0.00582264      -0.01429400      -0.00872331
Si       4.04972878       7.87488224      12.95363170      -0.01923242       0.05189601       0.02366282
Si       1.67525834       5.21013239      12.16529497      -0.00337735      -0.01668814       0.01603150
Si       2.18642420       3.23231068       7.53338688      -0.00083448       0.02704192      -0.02279599
Si       2.24392761       7.46897010       5.15574918       0.00709613       0.03991246      -0.05079455
Si       1.75757662       7.37618234      10.31360457      -0.01242242      -0.00189217      -0.01396518
Si       1.53275212       3.55211684      14.07310506      -0.01198920      -0.00511133       0.05617265
Si       1.95113764       4.95935385       9.48454336      -0.01169847      -0.00373399       0.03786870
Si       2.64368214       9.54971033      14.15538425      -0.00208239      -0.05482944      -0.04470731
Si       2.37889359       0.50184098       5.46177323       0.00911228      -0.04273708       0.04311188
Si       2.02506135       6.70214491       7.55800191       0.00656332       0.03388031      -0.00430430
Si       3.54753995       9.21170689       3.98766972       0.01305828      -0.02908616       0.01007283
Si       1.51270974       2.50192345       1.30559853       0.00799818      -0.01294505      -0.01801006
16
Lattice="2.5165914837912817 0.12007665648162531 0.24609968064491347 1.0239009435281732 10.648425572906197 -0.0626950364205348 1.1079979255497672 0.5284768040833009 15.018095732828192" Properties=species:S:1:pos:R:3:forces:R:3 unique_starting_index=92 config_type=initial n_minim_iter=11 energy=-2601.80310635729 stress="8.301303676247619e-05 0.0003767400857047279 5.001583715829272e-05 0.0003767400857047279 -0.0002884363216037674 -4.24502113134074e-06 5.001583715829272e-05 -4.24502113134074e-06 1.8284253009783985e-05" free_energy=-2601.80310635729 pbc="T T T"
Si       1.87722979      11.44888642       7.46521573      -0.00046111       0.02101541      -0.01831264
Si       0.47292118       0.69490274      -0.16378802       0.00899317      -0.00745699      -0.01773249
Si       1.82194617       9.02601925       8.44608086       0.00054940      -0.03325448       0.00931087
Si       2.30905340       4.98929294       5.73008099       0.01647590       0.01760064      -0.02497002
Si       4.06320016       7.86820776      12.94601502      -0.02145021       0.04365048       0.00252189
Si       1.68392521       5.19873505      12.16318448       0.00120936      -0.01591847       0.03152616
Si       2.19535003       3.23134554       7.52769942       0.00580003       0.01701014      -0.00558746
Si       2.25986130       7.46613717       5.14571395       0.01260390       0.01235874      -0.03260659
Si       1.77562199       7.37162830      10.30303160      -0.02555779       0.00190338       0.00298394
Si       1.54727013       3.55387971      14.08292286      -0.01383664       0.01168118       0.03226894
Si       1.96370545       4.95860755       9.48119572      -0.00220220      -0.01804029       0.03623224
Si       2.65928041       9.54105781      14.14351342       0.00007488      -0.00424738      -0.01308730
Si       2.38451394       0.49934532       5.47022275       0.01212438      -0.04413138       0.01577850
Si       2.03867537       6.69828156       7.54962358       0.00643108       0.01878620      -0.01668460
Si       3.56815236       9.21096740       3.98362417       0.00846929      -0.01606315      -0.00493550
Si       1.51641807       2.49957417       1.31246259      -0.00922344      -0.00489402       0.00329406
16
Lattice="2.5170383101638434 0.11589322814648388 0.24593692448920668 1.0072497175660136 10.644636559856783 -0.06992478680753567 1.1076675477876095 0.5163487849391328 15.009705100031212" Properties=species:S:1:pos:R:3:forces:R:3 unique_starting_index=92 config_type=initial n_minim_iter=12 energy=-2601.804121048887 stress="8.457971200413986e-05 -5.2703363419627664e-05 -0.0001205493988014426 -5.2703363419627664e-05 -0.0001741561291896337 -6.874525630994547e-05 -0.0001205493988014426 -6.874525630994547e-05 -0.00010511880941964576" free_energy=-2601.804121048887 pbc="T T T"
Si       1.86095103      11.43845139       7.45867682       0.00614225       0.02958174      -0.00834943
Si       0.47049118       0.69995293      -0.16696673      -0.00674669      -0.06702442      -0.03304383
Si       1.81170160       9.01427038       8.43351957       0.00701065      -0.01854724       0.01497059
Si       2.30078047       4.97651607       5.72063078       0.01470200       0.04713039      -0.04377009
Si       4.04695518       7.84961101      12.93042292      -0.01357278       0.03600798      -0.00847761
Si       1.67072137       5.18115120      12.15582749       0.00698246      -0.00959374       0.04443393
Si       2.19087172       3.22423060       7.51729884      -0.00172720      -0.00327905       0.01702590
Si       2.25210551       7.45724779       5.13096786       0.00539170      -0.01269547      -0.01482965
Si       1.76609350       7.36079064      10.28717235      -0.02490386       0.00409256       0.01894433
Si       1.54285626       3.54951056      14.08690531      -0.02053921       0.02501558       0.00692283
Si       1.95651712       4.95111882       9.47398053      -0.02268112      -0.02970449       0.02545573
Si       2.63949007       9.52400414      14.12398948       0.00763821       0.04342517       0.01168328
Si       2.38589503       0.48801553       5.47573190       0.01312024      -0.04549333      -0.02014213
Si       2.02923030       6.68885333       7.53579653       0.01386148       0.00390393      -0.02265934
Si       3.56096559       9.20080834       3.97422183       0.00995267       0.00199291      -0.02074239
Si       1.51235087       2.49284893       1.31751035       0.00536918      -0.00481255       0.03257787
16
Lattice="2.5161950568122156 0.11637175164258373 0.2512753592429192 1.008338962023643 10.648397607495086 -0.06652070408803215 1.138806009513503 0.5185373480543747 15.014775552712726" Properties=species:S:1:pos:R:3:forces:R:3 unique_starting_index=92 config_type=initial n_minim_iter=13 energy=-2601.805064649509 stress="-0.00025948497598887694 5.882907658542816e-05 0.00033275991377630887 5.882907658542816e-05 0.0005487584609486997 0.00017124083751498707 0.00033275991377630887 0.00017124083751498707 0.00019457019998049123" free_energy=-2601.805064649509 pbc="T T T"
Si       1.87929269      11.44523075       7.46858351      -0.00387757       0.02599180       0.00211950
Si       0.46835296       0.70281136      -0.16995332       0.01863612      -0.07377249      -0.03183640
Si       1.83354892       9.01568728       8.43897198       0.00420721       0.00585996       0.01040492
Si       2.31241237       4.97797244       5.72279716       0.02220435       0.05491316      -0.05437228
Si       4.06839411       7.85560179      12.93913315      -0.01178210       0.02043924      -0.01476892
Si       1.69191045       5.17944992      12.16682892       0.00121918       0.01980211       0.04195140
Si       2.20591439       3.22966782       7.51987796      -0.00181832      -0.02083001       0.03280156
Si       2.26624894       7.46042266       5.13017800       0.00745545      -0.03124151       0.00498545
Si       1.78768387       7.36464177      10.29004620      -0.03456507      -0.00116874       0.03110108
Si       1.57157916       3.56136324      14.10593284      -0.00161888       0.01946315       0.00337872
Si       1.97478524       4.95557742       9.48413728      -0.01115249      -0.03043896       0.01282126
Si       2.66479287       9.52987587      14.12861468      -0.00055062       0.06188998       0.01529669
Si       2.39842356       0.48235195       5.48923477       0.02154295      -0.02831888      -0.04590436
Si       2.04654211       6.69373540       7.53596832       0.01366678      -0.01564424      -0.01631597
Si       3.57516095       9.20493692       3.98167423       0.01356455       0.01763509      -0.02709630
Si       1.51471445       2.49078311       1.32893473      -0.03713154      -0.02457966       0.03543366
16
Lattice="2.517825850598197 0.11313896956517329 0.24970216857156546 0.9965170664719165 10.638870565939449 -0.07412144053977057 1.1313141651004257 0.5067309070582299 15.000338470824001" Properties=species:S:1:pos:R:3:forces:R:3 unique_starting_index=92 config_type=initial n_minim_iter=14 energy=-2601.807631136824 stress="-7.473901870846939e-05 -0.00015018511287544705 -2.2184110939379387e-05 -0.00015018511287544705 0.00016341560037917534 -5.1285265247168564e-05 -2.2184110939379387e-05 -5.1285265247168564e-05 -6.348449497893382e-05" free_energy=-2601.807631136824 pbc="T T T"
Si       1.86596081      11.43468661       7.46262187       0.01003137      -0.00639095       0.00075804