22
Lattice="5.5212273412058925 1.0819262118127406 -0.39050328898105563 3.892477541882568 6.340830533888086 -0.9033003654871591 0.42130662510403805 -1.2910448008194961 12.891355247046546" Properties=species:S:1:pos:R:3:forces:R:3 unique_starting_index=40 config_type=initial n_minim_iter=1 energy=-3581.648935758152 stress="0.0006387712869461302 0.00015602236736464477 -0.0002651364955255559 0.00015602236736464477 0.00013256246592979946 0.00022246794223323508 -0.0002651364955255559 0.00022246794223323508 4.057411565706076e-05" free_energy=-3581.648935758152 pbc="T T T"
Si       7.04871284       2.51691818       9.73055207      -0.01569575      -0.04902403       0.03219730
Si       1.30250558       2.01316049       3.69550418      -0.00945733       0.08838436       0.05077564
Si       4.57361764       1.07351674       5.31745734       0.04627573       0.11786862       0.18572301
Si       3.68559574       2.69370754       9.44312323      -0.09439077      -0.15587047      -0.11674750
Si       3.59676134       0.65108001      11.37967161       0.06075760      -0.01589805      -0.06071735
Si       8.00165856       4.96649839       4.29833610      -0.04989563      -0.09816791       0.00480455
Si       6.78590220       2.92187758       0.96219500      -0.03333029       0.19980666      -0.15314700
Si       5.35819040       4.12187065       6.56813169      -0.12129412       0.03225953       0.18215579
Si       4.79696238       3.92611598       0.04548163      -0.00609857      -0.02344088       0.16877493
Si       5.59536835       3.96319174      11.02721970       0.06902059       0.05566720      -0.01516674
Si       5.46187896       1.97906695       7.84360717       0.02671779      -0.02941741       0.02583417
Si       3.72571575       4.84194362       8.10928090      -0.01520623      -0.09187270      -0.04701176
Si       2.47234387       3.54482394       0.15246041      -0.08430688      -0.11895828      -0.01815536
Si       1.34862001      -0.09136812       6.35167713      -0.00240089      -0.03221402      -0.07888817
Si       3.32178604      -0.94795295      13.18844480      -0.12183308      -0.02340158      -0.08929978
Si       7.61055769       4.61236010       6.63079536       0.25047878       0.15881899      -0.07761903
Si       4.45041181       2.95677730       3.62838651       0.03125420      -0.03117970       0.00656504
Si       6.21870189       6.23785535       3.10433443      -0.01058505      -0.02908062       0.02597647
Si       4.44490829       4.95026032       2.12950714       0.20294107      -0.10563273      -0.03960798
Si       3.08558791       1.39638755       7.16668345       0.03836914       0.01871634       0.04904616
Si       5.90684409       0.51311728      10.71339460      -0.00170926       0.03929847       0.04723124
Si       4.03338748       0.85957294       2.44835039      -0.15961105       0.09333822      -0.08272365
22
Lattice="5.49993374110172 1.0767769390004658 -0.38355727316993204 3.8716487278104723 6.3338397299051845 -0.9052319413385697 0.44009726221379913 -1.3065634295018722 12.890681766822263" Properties=species:S:1:pos:R:3:forces:R:3 unique_starting_index=40 config_type=initial n_minim_iter=2 energy=-3581.6524399600335 stress="-0.004126347469724458 -0.0005410416277755695 0.0006702937667900705 -0.0005410416277755695 -0.0015336871432003875 -0.0009540091669698145 0.0006702937667900705 -0.0009540091669698145 -0.002198560040135695" free_energy=-3581.6524399600335 pbc="T T T"
Si       7.03552204       2.49601771       9.73614938       0.01302940      -0.05070980       0.00793252
Si       1.30144071       2.00716716       3.69481356       0.01316794       0.07659912       0.01857135
Si       4.56487243       1.06374917       5.32436637       0.03975760       0.11583140       0.13641067
Si       3.68274063       2.67445731       9.44143673      -0.11363405      -0.13803925      -0.09572203
Si       3.60109980       0.63300075      11.38076894       0.01819686      -0.04227102      -0.05359749
Si       7.97434771       4.94903091       4.30312586      -0.04503800      -0.05679836       0.00750498
Si       6.76000162       2.91541893       0.96622500      -0.04232515       0.15769402      -0.09407963
Si       5.34344333       4.10636812       6.57206245      -0.07037977       0.01409656       0.13664476
Si       4.77633721       3.91860471       0.05010885       0.02752337      -0.00624093       0.09666368
Si       5.58924609       3.94236265      11.02787910       0.03361155       0.05588198       0.01379980
Si       5.45263738       1.96259271       7.84785314       0.04849722      -0.03076286       0.03326032
Si       3.71998096       4.82363995       8.10626756      -0.03058009      -0.04175705       0.02949346
Si       2.45941758       3.53813808       0.15141356      -0.09978627      -0.08527831      -0.02519355
Si       1.35328112      -0.10087637       6.35123506       0.02480409      -0.06359299      -0.07537565
Si       3.32859862      -0.96696778      13.19031071      -0.09541880      -0.02203041      -0.08432360
Si       7.59269595       4.59624971       6.63374359       0.21157034       0.13381903      -0.08174959
Si       4.43773176       2.94570445       3.63058421       0.00919515      -0.03775424      -0.00526637
Si       6.19544478       6.22348125       3.10545614      -0.00175484       0.00208092       0.03127477
Si       4.43071796       4.93851972       2.12888981       0.14046050      -0.10182149       0.00087377
Si       3.08452265       1.38395895       7.16860802      -0.00502877       0.03570090       0.06766610
Si       5.90115499       0.49473770      10.71978933       0.04995311       0.02018669       0.03719090
Si       4.01956125       0.85367975       2.45153383      -0.12582136       0.06516608      -0.10197918
22
Lattice="5.505082137591682 1.0753668593405654 -0.3775174101046538 3.8711212675437303 6.34145790878443 -0.9060336033885263 0.4600174410074868 -1.3151238628441637 12.939005376714496" Properties=species:S:1:pos:R:3:forces:R:3 unique_starting_index=40 config_type=initial n_minim_iter=3 energy=-3581.6609577555023 stress="-0.0008142807969717586 -0.0010942730470719193 0.0014339821857491972 -0.0010942730470719193 0.0019166685297400349 -0.0015401162785241371 0.0014339821857491972 -0.0015401162785241371 0.0019220972175757324" free_energy=-3581.6609577555023 pbc="T T T"
Si       7.05592395       2.48933186       9.78151999       0.00268198      -0.04865515      -0.01169821
Si       1.30694110       2.01020549       3.71059072       0.01327890       0.02307534      -0.07220457
Si       4.57859745       1.06361299       5.35532153       0.04426353       0.09984208       0.11873098
Si       3.69613592       2.66698684       9.47645301      -0.10257234      -0.12662200      -0.10513239
Si       3.62298565       0.62562441      11.42539704      -0.01654801      -0.02450520      -0.02178673
Si       7.98539571       4.94683965       4.32811516      -0.03534433      -0.00904238       0.00329019
Si       6.76641187       2.92123785       0.97370534      -0.02242977       0.11487972       0.02839970
Si       5.35329766       4.10701718       6.60710601       0.06615447       0.04194085       0.10417546
Si       4.77962148       3.92098940       0.06010029       0.00703014       0.03289121       0.01803522
Si       5.61127528       3.94122740      11.07396587      -0.00160651       0.03184859       0.06257346
Si       5.47004721       1.95756239       7.88425913       0.05840546      -0.03288870       0.05072512
Si       3.73266453       4.82209563       8.13780449      -0.00699033       0.01147363       0.15381991
Si       2.45778983       3.53844048       0.15320441      -0.04990498      -0.03181096      -0.05384195
Si       1.36413749      -0.10607152       6.37403600       0.02957273      -0.07082362      -0.04602313
Si       3.34850068      -0.97754709      13.24103437      -0.04806397      -0.02141351      -0.05608900
Si       7.61576615       4.60010512       6.66432490       0.09414376       0.05532187      -0.11526229
Si       4.44723072       2.94473202       3.64896722      -0.01848608      -0.05672657      -0.02988789
Si       6.20318346       6.22686420       3.12353053      -0.00031603       0.03838088       0.02381755
Si       4.44189734       4.93903493       2.13966260       0.02960305      -0.03776786       0.01644158
Si       3.09860851       1.38133105       7.20014608      -0.05341245       0.05649057       0.04307991
Si       5.92336468       0.48785267      10.76861092       0.06028580      -0.04673069      -0.01544562
Si       4.02254459       0.85412113       2.46325005      -0.04974502       0.00084192      -0.09571731
22
Lattice="5.517763675800446 1.080182733051177 -0.38249697570490376 3.8902262206498324 6.3262013051595885 -0.8943077484884752 0.43946829208017124 -1.2768334275157411 12.921179520522042" Properties=species:S:1:pos:R:3:forces:R:3 unique_starting_index=40 config_type=initial n_minim_iter=4 energy=-3581.6696270451703 stress="0.0003910584583198399 -6.163836558010308e-05 0.0006695822665242854 -6.163836558010308e-05 -0.0015828864043803553 0.00038414768932246325 0.0006695822665242854 0.00038414768932246325 0.0005604123702869557" free_energy=-3581.6696270451703 pbc="T T T"
Si       7.05841539       2.51699478       9.76794924      -0.01989550      -0.03362101       0.00260053
Si       1.30708571       2.01857895       3.71094353      -0.00378980       0.01449249      -0.09769834
Si       4.58260491       1.08585736       5.35163905       0.03911582       0.08414906       0.12366665
Si       3.68993015       2.68424807       9.46385544      -0.09414856      -0.16196986      -0.10009927
Si       3.61538623       0.65858150      11.40762090       0.00849906      -0.00789757      -0.04398828
Si       8.00047657       4.95335314       4.32471356      -0.00622562       0.02522774      -0.04008067
Si       6.78134409       2.93243787       0.96603636       0.00248927       0.03009284       0.11403023
Si       5.35727841       4.12158858       6.60869217       0.20999622       0.03135940       0.09222704
Si       4.79499520       3.91664719       0.06801088      -0.10280350       0.04315563      -0.03393145
Si       5.61377808       3.96901936      11.06416795       0.03679012      -0.01079520       0.08047040
Si       5.47304734       1.97998622       7.87395944       0.07042634      -0.02719301       0.04738586
Si       3.73499668       4.83219412       8.13594337       0.01869502       0.07067041       0.19182846
Si       2.46517194       3.52853822       0.15772737       0.04464353       0.02853915      -0.10533921
Si       1.35724410      -0.08846311       6.36237076       0.04670605      -0.00375634      -0.05376884
Si       3.32968515      -0.93555639      13.21650081      -0.05205722      -0.02322453      -0.03494673
Si       7.63560575       4.62086891       6.65496021      -0.10057565       0.04976338      -0.08081185
Si       4.45577130       2.95128928       3.64614387      -0.01225640      -0.06617839      -0.01073301
Si       6.22020799       6.22570976       3.12815157       0.00489317       0.00692543       0.00494070
Si       4.46119763       4.93353173       2.14273582      -0.04452107       0.06318044       0.02618003
Si       3.09668787       1.40183284       7.19329171      -0.03852987      -0.03110631       0.04849441
Si       5.91977972       0.52486962      10.75095575      -0.00657091      -0.02496146      -0.05276875
Si       4.02294066       0.86720462       2.45379056      -0.00088049      -0.05685228      -0.07765790
22
Lattice="5.517203745460813 1.088099376249048 -0.3952290801778505 3.8959576305352126 6.349117314270155 -0.9021992143582533 0.4067078543371805 -1.2809829412296148 12.893582910382348" Properties=species:S:1:pos:R:3:forces:R:3 unique_starting_index=40 config_type=initial n_minim_iter=5 energy=-3581.6729318923435 stress="0.0001548608451838944 7.705193746909544e-05 -0.0005587445946648806 7.705193746909544e-05 0.0005578846358403125 -7.28974072404006e-05 -0.0005587445946648806 -7.28974072404006e-05 -0.00034980260607404763" free_energy=-3581.6729318923435 pbc="T T T"
Si       7.03334897       2.52931340       9.73085680      -0.03114014      -0.03000863       0.03172294
Si       1.29906694       2.02693173       3.69973761       0.00620553      -0.02666986      -0.06098483
Si       4.56936392       1.09495277       5.33260211       0.00360724       0.07410284       0.10596160
Si       3.66546934       2.69204887       9.43303103      -0.10419468      -0.15873328      -0.11658217
Si       3.58720329       0.66279578      11.37426030       0.00938656      -0.01387259      -0.02754132
Si       7.98987688       4.97425000       4.29588263       0.02014845       0.04524972      -0.06980448
Si       6.77805601       2.94980404       0.94656976       0.03550516       0.01963074       0.07648699
Si       5.34255077       4.13920086       6.58478134       0.21757023       0.04765093       0.08198196
Si       4.79526835       3.93290362       0.05765401      -0.13580726       0.05684297      -0.08797021
Si       5.58864491       3.98616100      11.02813473       0.03351490      -0.04414378       0.09088216
Si       5.45407590       1.98971692       7.84508193       0.07595608      -0.03305169       0.01862648
Si       3.71745401       4.84949714       8.11118142       0.03624332       0.07274694       0.16825949
Si       2.46584851       3.54034296       0.15017350       0.03305426       0.01960420      -0.11073402
Si       1.34147237      -0.08848925       6.34459130       0.08809687      -0.01117234      -0.02282296
Si       3.29340383      -0.93675882      13.17983223      -0.04810010       0.00830315      -0.05140323
Si       7.62222132       4.64351302       6.62073163      -0.13225967      -0.01256638      -0.05072739
Si       4.44759155       2.96302506       3.62757041      -0.01351882      -0.05695297       0.01079575
Si       6.21496275       6.24990760       3.10669528       0.00693022       0.03075907       0.00492224
Si       4.46011708       4.95160804       2.12707806      -0.06792835       0.07099096       0.04837702
Si       3.07895264       1.40858972       7.17191478      -0.04731252      -0.00832643       0.04902453
Si       5.89157633       0.53107094      10.71449260      -0.01428066      -0.00241878      -0.03870659
Si       4.01403270       0.87374416       2.43714596       0.02832339      -0.04796479      -0.04976396
22
Lattice="5.510572342428215 1.1039649697306204 -0.37926112193021205 3.9056156564407405 6.365931181283844 -0.8736439351553581 0.43290445072302175 -1.2390982356876572 12.912486589013326" Properties=species:S:1:pos:R:3:forces:R:3 unique_starting_index=40 config_type=initial n_minim_iter=6 energy=-3581.6944650433666 stress="-0.0009957365419129113 0.0009116450589450015 0.0009807445915199595 0.0009116450589450015 0.002108516042089421 0.0017926644558149264 0.0009807445915199595 0.0017926644558149264 3.6524329028720256e-05" free_energy=-3581.6944650433666 pbc="T T T"
Si       7.04872545       2.57778666       9.77652712      -0.06307687      -0.02946488       0.01292738
Si       1.31160047       2.04993039       3.71002600       0.02895028      -0.01843043      -0.01530260
Si       4.58291611       1.14407479       5.38093062       0.02353869       0.03080327       0.02688861
Si       3.67128904       2.70875512       9.44627270      -0.12144268      -0.14963780      -0.14653646
Si       3.61438714       0.70850124      11.39689489      -0.07075116       0.00967428       0.00844316
Si       7.99910251       5.01614425       4.33248109       0.02829397       0.12252680      -0.10185612
Si       6.77807580       2.99230829       0.97480139       0.02311020      -0.05848116       0.05903738
Si       5.37797879       4.18880706       6.64387441       0.08458504       0.00492282       0.08470791
Si       4.78570370       3.95674822       0.08469271      -0.06927071       0.06315634       0.00202688
Si       5.62476896       4.04429729      11.08290252       0.03811267       0.03289877       0.06192371
Si       5.48006885       2.02825942       7.88335631       0.10921429      -0.01803614      -0.00278965
Si       3.74652712       4.89611149       8.16843563      -0.03225790      -0.07156780       0.04194605
Si       2.47012876       3.54748868       0.15433938       0.01245187       0.06924484      -0.11927722
Si       1.36246425      -0.06804884       6.34930445       0.12085992       0.03869797       0.04759846
Si       3.30339251      -0.88731107      13.19596080       0.01524536       0.02304346       0.01782973
Si       7.64244906       4.70464046       6.65264214       0.05348116       0.04382030       0.08985675
Si       4.45756739       2.98253510       3.65436649      -0.03969204      -0.13152479      -0.05191203
Si       6.23022508       6.28778866       3.14982998      -0.02756445      -0.00909754      -0.06567794
Si       4.47817234       4.97833248       2.16012020      -0.08557564       0.12199537       0.03659553
Si       3.09160805       1.44326739       7.20522256      -0.13155010      -0.00730322       0.05871379
Si       5.90893442       0.58451098      10.74666615       0.04831701      -0.03301183      -0.00032379
Si       4.00753537       0.89447443       2.44076575       0.05502110      -0.03422863      -0.04481953
22
Lattice="5.522943821211328 1.1010466155712797 -0.38810810113964345 3.915388525816426 6.343629988416212 -0.8936499260228535 0.4204980796307993 -1.2630962731801052 12.939649327813674" Properties=species:S:1:pos:R:3:forces:R:3 unique_starting_index=40 config_type=initial n_minim_iter=7 energy=-3581.712939931278 stress="0.0002556187103210765 8.969093504253558e-05 4.596577085033565e-05 8.969093504253558e-05 0.0005174475022760066 -0.00017899356794541852 4.596577085033565e-05 -0.00017899356794541852 0.00019509287065683583" free_energy=-3581.712939931278 pbc="T T T"
Si       7.05013417       2.53956710       9.78627250      -0.07282856       0.00429246       0.02199520
Si       1.31109449       2.03799943       3.70545566      -0.02357167      -0.05275398      -0.00839010
Si       4.59255322       1.14479312       5.40830930       0.04317894       0.02429430       0.00205538
Si       3.65100314       2.64884073       9.43358117      -0.14071190      -0.15775218      -0.17203747
Si       3.61406044       0.67793925      11.40615694      -0.06595267      -0.03293285      -0.00575144
Si       8.01021164       4.98694006       4.31471827       0.09139995       0.22199850      -0.07190015
Si       6.79224483       2.99439606       0.96415453      -0.02162965      -0.10175809      -0.01643759
Si       5.39971586       4.16506584       6.66332898      -0.03797555      -0.00973866       0.10854234
Si       4.78292916       3.94660449       0.07380296       0.03217992       0.02961865      -0.02395695
Si       5.63358009       4.00517154      11.09898120      -0.03080289       0.05700373       0.05316519
Si       5.49497513       1.99782232       7.89353258       0.13189612       0.00206259      -0.03188498
Si       3.74828483       4.86121199       8.18757742      -0.01004552      -0.20660249      -0.16968053
Si       2.47347089       3.52909489       0.13005993      -0.03161170       0.13188234      -0.05896753
Si       1.36791695      -0.08555094       6.35174690       0.10029087       0.02741149       0.09587895
Si       3.28408703      -0.91486209      13.20914085       0.13559931       0.07615494       0.06249007
Si       7.65655075       4.68371760       6.63520417       0.12494858       0.08313623       0.14822985
Si       4.46344557       2.95340092       3.64999927      -0.02892128      -0.08411478      -0.05577430
Si       6.24076337       6.25825882       3.13732264       0.02399311       0.03011775      -0.09802153
Si       4.49141392       4.95572915       2.15119016      -0.21536776       0.15273072       0.03702439
Si       3.08672977       1.42215454       7.22194394      -0.15064721      -0.00462375       0.03429587
Si       5.91100674       0.55921510      10.75811311       0.07686402      -0.06479154       0.16799568
Si       4.00593522       0.88586100       2.42636063       0.06971555      -0.12563538      -0.01887034
22
Lattice="5.521966124797069 1.0996564120085057 -0.38975983369050826 3.917704501743202 6.3240763441355154 -0.886581803114248 0.41426144750809657 -1.2349529808757214 12.980430720104955" Properties=species:S:1:pos:R:3:forces:R:3 unique_starting_index=40 config_type=initial n_minim_iter=8 energy=-3581.730527596916 stress="-0.0014905533639366854 -0.0010676912440637657 -0.0009164200964111699 -0.0010676912440637657 -0.0009206173686708937 0.0005884408456803387 -0.0009164200964111699 0.0005884408456803387 0.0009537131115906856" free_energy=-3581.730527596916 pbc="T T T"
Si       7.03579495       2.54148130       9.82827911      -0.12064954       0.07780475       0.05667007
Si       1.30960055       2.04424034       3.71050637      -0.03513635      -0.03499791       0.03935928
Si       4.59988416       1.18318276       5.46858100       0.06400686       0.01654257      -0.06047884
Si       3.61007034       2.60497120       9.42617334      -0.13030619      -0.13114207      -0.17559066
Si       3.61235958       0.69273508      11.43091425      -0.08952279      -0.02811404       0.00796058
Si       8.00837940       4.98991885       4.32112788       0.14667736       0.27626808      -0.02250811
Si       6.79089630       3.01240160       0.97172610      -0.07672382      -0.17911298      -0.11298587
Si       5.42509855       4.17843544       6.73204421      -0.22473445      -0.05278211       0.10114077
Si       4.76165206       3.94614902       0.08258891       0.17548964       0.01987531       0.11095629
Si       5.64115514       4.01910621      11.15978410      -0.04713039       0.07372206      -0.02825751
Si       5.51455341       1.99972830       7.92908792       0.14906146       0.01911156      -0.05722361
Si       3.74886691       4.85940028       8.24784310       0.03512670      -0.31594151      -0.31746564
Si       2.46997232       3.51664455       0.10970166      -0.10174215       0.14772491      -0.00583133
Si       1.38369233      -0.07823497       6.36088106       0.06309307       0.02447424       0.16657905
Si       3.26009809      -0.88623742      13.23394398       0.26707155       0.16060424       0.16265879
Si       7.66421952       4.70764750       6.64757441       0.24308574       0.11106326       0.19581237
Si       4.46065856       2.93363526       3.66366450      -0.04530923      -0.06164698      -0.09251835
Si       6.24156841       6.25097637       3.15666348       0.03083939       0.03012797      -0.16202474
Si       4.49261473       4.95384372       2.17176486      -0.24941121       0.11136323      -0.03957154
Si       3.07091494       1.43266870       7.26456989      -0.17079166      -0.02522064      -0.05467565
Si       5.90797850       0.57880105      10.79565209       0.07314473      -0.11832765       0.25777707
Si       3.99331645       0.88441749       2.41135801       0.04386128      -0.12139629       0.03021757
22
Lattice="5.544360668904061 1.118061969540299 -0.37344685338790534 3.9502061536300777 6.334157475721637 -0.8834709729217631 0.4514614957470469 -1.256376668008568 12.945199467821906" Properties=species:S:1:pos:R:3:forces:R:3 unique_starting_index=40 config_type=initial n_minim_iter=9 energy=-3581.7428867530307 stress="0.0007829450534438087 0.0009435748420046481 0.0008352243512893412 0.0009435748420046481 -0.0010619092148447223 -0.001178149574245853 0.0008352243512893412 -0.001178149574245853 -0.0024551439909253287" free_energy=-3581.7428867530307 pbc="T T T"
Si       7.09387107       2.54052523       9.82022496      -0.10734087       0.02231321       0.03931994
Si       1.33185120       2.04174263       3.69483674      -0.08171061       0.01805853       0.15133379
Si       4.64288585       1.20150876       5.48288491       0.15810733      -0.00228520      -0.10691495
Si       3.64129247       2.57042144       9.38223112      -0.13737615      -0.09531638      -0.10749554
Si       3.66315951       0.68027728      11.40083136      -0.07908087      -0.06154278      -0.06816797
Si       8.06928567       5.01247936       4.31664821       0.11404802       0.28371410      -0.03907588
Si       6.82765820       3.03857276       0.98468971      -0.10805151      -0.14407207      -0.24043878
Si       5.49088521       4.18595581       6.74125370      -0.12502678      -0.06918581      -0.00889648
Si       4.78358307       3.96394216       0.09155453       0.20609191      -0.07731156       0.09636155
Si       5.71409027       4.01680591      11.14546524      -0.03764040       0.15987274      -0.01501466
Si       5.57867168       1.99822542       7.92172960       0.16915871       0.03207684      -0.05245116
Si       3.80555301       4.84792038       8.23416991      -0.03042095      -0.33780069      -0.31738184
Si       2.48816034       3.52334240       0.09774675      -0.08598669       0.16009921       0.08382805
Si       1.41813635      -0.08706157       6.34343958       0.00887319       0.01882053       0.20981325
Si       3.30514792      -0.89698911      13.20071610       0.28544365       0.14158910       0.14112889
Si       7.73476283       4.72915590       6.63870457       0.16212386       0.12144664       0.27541513
Si       4.49637797       2.92951241       3.65898349      -0.00615833      -0.03126892      -0.11363539
Si       6.29549246       6.26361206       3.15282959       0.00051068      -0.01955968      -0.20268411
Si       4.52819372       4.96712256       2.17295308      -0.18820758       0.14543433       0.04467754
Si       3.10054867       1.42819742       7.25730154      -0.23465307      -0.06731660      -0.10472972
Si       5.96681838       0.57616568      10.78519613       0.08140690      -0.10381230       0.29928714
Si       4.01439302       0.88814058       2.40461313       0.03588956      -0.09395325       0.03572119
22
Lattice="5.544089801988087 1.1143319165959362 -0.3720641329138632 3.947090264129386 6.326462538856045 -0.8823798151389681 0.45643318012660883 -1.2525404234590212 12.968435238799321" Properties=species:S:1:pos:R:3:forces:R:3 unique_starting_index=40 config_type=initial n_minim_iter=10 energy=-3581.782617251334 stress="0.0001340711971332302 0.001186641120115904 7.185558887100969e-05 0.001186641120115904 -0.0012154755106305497 -0.0005946068756964957 7.185558887100969e-05 -0.0005946068756964957 -0.00013843975701331197" free_energy=-3581.782617251334 pbc="T T T"
Si       7.08786467       2.53586338       9.84498623      -0.11450195       0.01639081       0.06280489
Si       1.32984679       2.03841348       3.70083856      -0.06768046       0.10634909       0.13246793
Si       4.65149162       1.20772720       5.50230814       0.14124870       0.02882174      -0.05158038
Si       3.62498684       2.54561926       9.37986608      -0.09477787      -0.08044207      -0.07161638
Si       3.66257284       0.67689796      11.41876373      -0.04603052      -0.02323384      -0.07784969
Si       8.07652874       5.02360410       4.32055139       0.06619944       0.16918374       0.04813102
Si       6.82417925       3.02847887       0.98681812      -0.09670896      -0.07431309      -0.23250370
Si       5.49613731       4.18214974       6.77075707      -0.02431876      -0.07303144      -0.09178845
Si       4.78142363       3.96187472       0.09518469       0.18679385      -0.07361113       0.17824817
Si       5.71717306       4.01792351      11.17529083       0.05970189       0.12878012       0.00996769
Si       5.59642163       1.99404493       7.93772560       0.13387206       0.00726629      -0.00807814
Si       3.80709519       4.82840995       8.24571120       0.06223134      -0.12253310       0.00051136
Si       2.48324902       3.52840386       0.09061280      -0.06765067       0.02312328       0.13752560
Si       1.43069472      -0.08553068       6.36178554      -0.06052021      -0.03760935       0.14836241
Si       3.31918398      -0.88751531      13.22849351       0.20406308       0.12525076       0.08985430
Si       7.74402602       4.73301212       6.66242333       0.01228638       0.05807222       0.07392312
Si       4.49372463       2.91581748       3.66211279      -0.00978288       0.01254055      -0.11195874
Si       6.29536379       6.25814388       3.15294357      -0.02649543      -0.04946830      -0.15273314
Si       4.51109834       4.97336753       2.18289132       0.00483567      -0.00038470      -0.00868491
Si       3.08739536       1.42499042       7.27472797      -0.13205727      -0.06113235      -0.19555031
Si       5.97577370       0.56904502      10.81982752      -0.04275109      -0.09648095       0.08979762
Si       4.01754657       0.87623731       2.40519282      -0.08795634       0.01646172       0.03074973
22
Lattice="5.550846027915219 1.0889970772337902 -0.3605223512137705 3.9243498799546326 6.315620167735627 -0.863210489860175 0.4832928178026073 -1.2359686235495189 12.92204271570848" Properties=species:S:1:pos:R:3:forces:R:3 unique_starting_index=40 config_type=initial n_minim_iter=11 energy=-3581.795683862547 stress="0.0011513711834346312 -0.001563013036833523 0.0005426274150511575 -0.001563013036833523 -6.269435580379865e-05 0.000528456005804935 0.0005426274150511575 0.000528456005804935 -0.0021275754735735996" free_energy=-3581.795683862547 pbc="T T T"
Si       7.10081338       2.52133173       9.82862711      -0.13549894       0.05863927       0.10560044
Si       1.32677856       2.04122197       3.69419002      -0.04771530       0.10000949       0.15441555
Si       4.66994569       1.20054428       5.49518956       0.17988545       0.03453509      -0.01788541
Si       3.62458710       2.53424316       9.34473003      -0.04916054      -0.09141000      -0.05195890
Si       3.68195456       0.67651507      11.38302768       0.00810723       0.05600147      -0.11199966
Si       8.08254825       5.01161686       4.32269930       0.05492950       0.09269059       0.02084614