14
Lattice="3.8796779572538482 0.5525723385220368 0.02941522504190015 3.5346620373590945 6.509524643248097 -1.3750012334886308 1.381036999447613 1.4670038873232008 11.395902081592721" Properties=species:S:1:pos:R:3:forces:R:3 unique_starting_index=296 config_type=initial n_minim_iter=1 energy=-2280.749652392369 stress="-0.0003381352889727131 0.0006500182402319816 -0.0001916104833688968 0.0006500182402319816 -0.00011058126226896511 -0.0002959367379517159 -0.0001916104833688968 -0.0002959367379517159 -0.00025599429731955683" free_energy=-2280.749652392369 pbc="T T T"
Si       5.84940689       1.44192457       1.05734758       0.01358805       0.10402129       0.01224273
Si       2.94597011       7.08717630       8.99296849      -0.01358805      -0.10402129      -0.01224273
Si       4.50794468       7.21385198       3.12484845       0.01231922       0.03425892      -0.01017112
Si       4.28743231       1.31524889       6.92546763      -0.01231922      -0.03425892       0.01017112
Si       5.33268093       4.11238632       8.70740509       0.07325103       0.04719527      -0.02929504
Si       3.46269607       4.41671455       1.34291098      -0.07325103      -0.04719527       0.02929504
Si       2.59436169       3.04825525       6.65128496      -0.09282306       0.04942202      -0.01697099
Si       6.20101531       5.48084562       3.39903111       0.09282306      -0.04942202       0.01697099
Si       3.23133996       4.83579959       9.54575061      -0.08513761      -0.01762799      -0.03688508
Si       5.56403704       3.69330128       0.50456547       0.08513761       0.01762799       0.03688508
Si       3.99351988       0.73816516       2.30461524      -0.02338622      -0.06409458      -0.00935978
Si       4.80185712       7.79093571       7.74570083       0.02338622       0.06409458       0.00935978
Si       3.50705925       4.91265575       5.41768240       0.05044633       0.01376584       0.03430284
Si       5.28831774       3.61644511       4.63263367      -0.05044633      -0.01376584      -0.03430284
14
Lattice="3.8818847011804993 0.546938374153766 0.03151487212103918 3.5270845598591074 6.504972715594018 -1.3698308327108342 1.3849337319939838 1.4730616865541222 11.404213432206516" Properties=species:S:1:pos:R:3:forces:R:3 unique_starting_index=296 config_type=initial n_minim_iter=2 energy=-2280.7504753392377 stress="0.0007164017587353367 -0.00044605168043170484 5.295927063704807e-05 -0.00044605168043170484 8.112543807724564e-05 0.00022753577625447396 5.295927063704807e-05 0.00022753577625447396 0.000508787532953956" free_energy=-2280.7504753392377 pbc="T T T"
Si       5.85238375       1.43515213       1.06162723       0.02651442       0.08866313       0.00013229
Si       2.94151925       7.08982064       9.00427024      -0.02651442      -0.08866313      -0.00013229
Si       4.50215570       7.21137371       3.13348835       0.02501205       0.00897891      -0.01195924
Si       4.29174730       1.31359906       6.93240912      -0.02501205      -0.00897891       0.01195924
Si       5.33513661       4.11178696       8.71742394       0.05182033       0.04673374      -0.02604779
Si       3.45876638       4.41318581       1.34847353      -0.05182033      -0.04673374       0.02604779
Si       2.59396891       3.05009774       6.65826925      -0.08634355       0.02906780      -0.01643441
Si       6.19993408       5.47487503       3.40762822       0.08634355      -0.02906780       0.01643441
Si       3.23011182       4.83854841       9.55576508      -0.05779263      -0.01905941      -0.02943431
Si       5.56379117       3.68642437       0.51013239       0.05779263       0.01905941       0.02943431
Si       3.99634218       0.73341429       2.30815063      -0.02799821      -0.06032162      -0.01062389
Si       4.79756082       7.79155848       7.75774684       0.02799821       0.06032162       0.01062390
Si       3.50525973       4.91247011       5.42604273       0.07077726       0.00211107       0.00108073
Si       5.28864326       3.61250266       4.63985474      -0.07077726      -0.00211107      -0.00108073
14
Lattice="3.8752813991035238 0.5451350235653535 0.03327521973516915 3.5175948705314215 6.503530071031085 -1.36594755198667 1.3870467434492688 1.4738701324644066 11.392358803073833" Properties=species:S:1:pos:R:3:forces:R:3 unique_starting_index=296 config_type=initial n_minim_iter=3 energy=-2280.751785322483 stress="-0.0011791337588359923 -0.0009264212560683223 0.00024060117040291892 -0.0009264212560683223 -0.0008644928145497936 0.000281346616889356 0.00024060117040291892 0.000281346616889356 -0.0010810963319497933" free_energy=-2280.751785322483 pbc="T T T"
Si       5.84313103       1.43516021       1.06338913       0.02571136       0.06056872      -0.01721782
Si       2.93679199       7.08737501       8.99629734      -0.02571136      -0.06056872       0.01721782
Si       4.49324939       7.21061002       3.13259945       0.03081617      -0.00212198      -0.01285033
Si       4.28667362       1.31192521       6.92708702      -0.03081617       0.00212198       0.01285033
Si       5.32997617       4.11181206       8.70989542       0.00425323       0.03118621      -0.02040044
Si       3.44994685       4.41072316       1.34979105      -0.00425323      -0.03118621       0.02040044
Si       2.58883750       3.05089618       6.65196153      -0.06002555       0.00927032      -0.01952993
Si       6.19108552       5.47163905       3.40772494       0.06002555      -0.00927033       0.01952993
Si       3.22488452       4.83797428       9.54630866      -0.01814819      -0.00598061      -0.01616903
Si       5.55503849       3.68456094       0.51337781       0.01814819       0.00598061       0.01616903
Si       3.98978935       0.73018000       2.30718765      -0.02801200      -0.05260868      -0.00065071
Si       4.79013366       7.79235523       7.75249882       0.02801200       0.05260868       0.00065071
Si       3.50123643       4.91195898       5.42262972       0.05115727       0.01449243       0.02417679
Si       5.27868658       3.61057624       4.63705675      -0.05115727      -0.01449243      -0.02417679
14
Lattice="3.8763635955172764 0.5503609622130002 0.03372902119152266 3.5249163638748273 6.519620073949299 -1.3685424479451431 1.390664274965484 1.4740331142328371 11.39941589884162" Properties=species:S:1:pos:R:3:forces:R:3 unique_starting_index=296 config_type=initial n_minim_iter=4 energy=-2280.753479198304 stress="-0.00045231676219773025 -0.00014987369990540693 3.695213358412207e-05 -0.00014987369990540693 0.000984582594814394 -0.00020024829189266977 3.695213358412207e-05 -0.00020024829189266977 0.0002506579105775867" free_energy=-2280.753479198304 pbc="T T T"
Si       5.84653397       1.44780648       1.06461028      -0.00672250       0.00543458      -0.02372602
Si       2.94541027       7.09620767       8.99999220       0.00672250      -0.00543458       0.02372602
Si       4.50311786       7.22822333       3.13231109       0.03118063      -0.00630419      -0.00422925
Si       4.28882638       1.31579082       6.93229138      -0.03118063       0.00630418       0.00422925
Si       5.33886372       4.12398756       8.71376110      -0.04190770      -0.00798386       0.00027897
Si       3.45308052       4.42002659       1.35084137       0.04190770       0.00798386      -0.00027897
Si       2.58979904       3.05841700       6.65483368      -0.03340951       0.01667742      -0.05379014
Si       6.20214519       5.48559715       3.40976879       0.03340951      -0.01667742       0.05379014
Si       3.22934469       4.84615672       9.54994270       0.01896781      -0.00294111       0.00979027
Si       5.56259954       3.69785743       0.51465977      -0.01896781       0.00294111      -0.00979027
Si       3.99029525       0.73236589       2.30868029       0.00077678      -0.05561852       0.00593901
Si       4.80164899       7.81164826       7.75592218      -0.00077678       0.05561852      -0.00593901
Si       3.51055684       4.92314520       5.42577530       0.00069929       0.02605217       0.03512149
Si       5.28138740       3.62086895       4.63882717      -0.00069929      -0.02605217      -0.03512149
14
Lattice="3.8799143198639277 0.551771883502731 0.033750527834369194 3.531345315519561 6.513668926464646 -1.3667867824332205 1.3922818449041263 1.4758425451176105 11.397481676673264" Properties=species:S:1:pos:R:3:forces:R:3 unique_starting_index=296 config_type=initial n_minim_iter=5 energy=-2280.753866886122 stress="3.266025006723714e-05 8.295739802736158e-05 -1.1331698132928384e-05 8.295739802736158e-05 -0.0003022576946934398 2.6154327681689746e-05 -1.1331698132928384e-05 2.6154327681689746e-05 0.00020843362059360602" free_energy=-2280.753866886122 pbc="T T T"
Si       5.85237065       1.45047036       1.06447092      -0.01232707      -0.03399294      -0.00894355
Si       2.95117083       7.09081300       8.99997450       0.01232707       0.03399294       0.00894355
Si       4.51102569       7.22321109       3.13317510       0.02936046      -0.01236401      -0.00574113
Si       4.29251579       1.31807226       6.93127033      -0.02936046       0.01236401       0.00574113
Si       5.34557769       4.12460619       8.71261280      -0.04690470       0.01506905      -0.00057094
Si       3.45796379       4.41667716       1.35183262       0.04690470      -0.01506905       0.00057093
Si       2.59228665       3.05835151       6.65367981      -0.02953660       0.01792137      -0.05265552
Si       6.21125483       5.48293184       3.41076561       0.02953660      -0.01792137       0.05265552
Si       3.23378517       4.84442749       9.54887738       0.02884210      -0.03065494       0.01600065
Si       5.56975631       3.69685586       0.51556804      -0.02884211       0.03065494      -0.01600065
Si       3.99369720       0.73319566       2.30823745       0.01305359      -0.02510426      -0.00503223
Si       4.80984428       7.80808769       7.75620797      -0.01305359       0.02510426       0.00503223
Si       3.51658148       4.92091763       5.42620993      -0.00579107       0.02044611       0.03634605
Si       5.28696000       3.62036573       4.63823549       0.00579107      -0.02044611      -0.03634605
14
Lattice="3.883789888458843 0.5527670086025559 0.0339099499130951 3.53569771224235 6.519051519198068 -1.3634809600100433 1.394270021241602 1.4785434036687923 11.377866350788088" Properties=species:S:1:pos:R:3:forces:R:3 unique_starting_index=296 config_type=initial n_minim_iter=6 energy=-2280.7543885348978 stress="0.0006259121942101678 2.0448807778529485e-05 -4.04795844279182e-06 2.0448807778529485e-05 0.0003343884911920239 -1.7737612102841842e-05 -4.04795844279182e-06 -1.7737612102841842e-05 -0.0010072045103279481" free_energy=-2280.7543885348978 pbc="T T T"
Si       5.85827390       1.45304950       1.06260930      -0.01976560      -0.02566552       0.00771902
Si       2.95548372       7.09731243       8.98568604       0.01976560       0.02566553      -0.00771902
Si       4.51798199       7.22968631       3.12840570       0.04617970      -0.01357751       0.00189363
Si       4.29577563       1.32067562       6.91988964      -0.04617970       0.01357751      -0.00189363
Si       5.35087848       4.13062959       8.69773298      -0.04379776       0.01491454       0.00925036
Si       3.46287914       4.41973234       1.35056237       0.04379776      -0.01491454      -0.00925036
Si       2.59313728       3.06302201       6.64042372      -0.00424376       0.00920936      -0.03620281
Si       6.22062034       5.48733992       3.40787162       0.00424376      -0.00920937       0.03620281
Si       3.23800839       4.84866835       9.53302061       0.02078738      -0.01129709      -0.01601605
Si       5.57574923       3.70169359       0.51527473      -0.02078738       0.01129709       0.01601605
Si       3.99775782       0.73255164       2.30424478       0.01521485      -0.01928931      -0.01412231
Si       4.81599980       7.81781029       7.74405056      -0.01521485       0.01928931       0.01412231
Si       3.52168578       4.92679010       5.41905464       0.01276295       0.01753246       0.05121122
Si       5.29207184       3.62357183       4.62924070      -0.01276295      -0.01753246      -0.05121122
14
Lattice="3.880799728135602 0.5535521804360878 0.03436577113544248 3.5339829349503344 6.520016819738874 -1.362307426215843 1.3943091613653338 1.4819080188299623 11.38486197174759" Properties=species:S:1:pos:R:3:forces:R:3 unique_starting_index=296 config_type=initial n_minim_iter=7 energy=-2280.7556452323115 stress="-5.051577773259016e-06 -2.665808701461956e-06 4.2260096690432e-05 -2.665808701461956e-06 9.16615072221055e-05 0.0001608647842384811 4.2260096690432e-05 0.0001608647842384811 -0.00036434962854390077" free_energy=-2280.7556452323115 pbc="T T T"
Si       5.85351915       1.45494522       1.06338397      -0.01858565      -0.02952045       0.00637610
Si       2.95557267       7.10053180       8.99353634       0.01858565       0.02952045      -0.00637610
Si       4.51913868       7.23160207       3.13177971       0.03229539      -0.02702649       0.00676561
Si       4.28995314       1.32387495       6.92514061      -0.03229539       0.02702649      -0.00676561
Si       5.34580085       4.13634545       8.70358154      -0.00989915       0.00742277      -0.01454119
Si       3.46329097       4.41913157       1.35333877       0.00989915      -0.00742277       0.01454119
Si       2.58783287       3.06772065       6.64076853      -0.00075038       0.00519454       0.00156157
Si       6.22125896       5.48775637       3.41615179       0.00075038      -0.00519454      -0.00156157
Si       3.23746415       4.85004242       9.53989795      -0.00822361       0.02193461      -0.01040748
Si       5.57162768       3.70543460       0.51702237       0.00822361      -0.02193461       0.01040748
Si       3.99507481       0.72996498       2.30545846       0.01893683       0.00867409      -0.00612352
Si       4.81401701       7.82551203       7.75146185      -0.01893683      -0.00867409       0.00612352
Si       3.52170559       4.93127284       5.42727281       0.01633962       0.00571361       0.04416422
Si       5.28738624       3.62420418       4.62964750      -0.01633962      -0.00571361      -0.04416422
14
Lattice="3.88091309701533 0.5531090541121672 0.033388078923998664 3.5338915124895407 6.518891397236711 -1.3678462586917948 1.3925179345321663 1.4733239779596372 11.386816764508323" Properties=species:S:1:pos:R:3:forces:R:3 unique_starting_index=296 config_type=initial n_minim_iter=8 energy=-2280.756031231947 stress="8.73151190314908e-06 -0.00011421946045025385 -2.0331120586616588e-05 -0.00011421946045025385 -0.00010648272516644932 -0.0002130221045393803 -2.0331120586616588e-05 -0.0002130221045393803 4.037104225091798e-05" free_energy=-2280.756031231947 pbc="T T T"
Si       5.85287845       1.45286662       1.06143735      -0.01465676      -0.01744706       0.01793512
Si       2.95444409       7.09245781       8.99092124       0.01465676       0.01744706      -0.01793512
Si       4.52064810       7.22620422       3.12663029       0.02640254      -0.03601308       0.01406389
Si       4.28667445       1.31912021       6.92572830      -0.02640254       0.03601307      -0.01406389
Si       5.34289123       4.12984034       8.70166012       0.00440558       0.00093784      -0.02370709
Si       3.46443132       4.41548409       1.35069846      -0.00440558      -0.00093783       0.02370710
Si       2.58429193       3.06328783       6.63759127       0.00077827       0.00485911       0.01721673
Si       6.22303061       5.48203659       3.41476732      -0.00077827      -0.00485911      -0.01721673
Si       3.23595913       4.84086256       9.53860546      -0.01909909       0.04159112      -0.00607319
Si       5.57136341       3.70446187       0.51375312       0.01909909      -0.04159112       0.00607319
Si       3.99534471       0.72584628       2.30458925       0.01618010       0.01895791      -0.00522529
Si       4.81197784       7.81947815       7.74776934      -0.01618010      -0.01895791       0.00522529
Si       3.52167406       4.92696436       5.42753572       0.01630442      -0.01064370       0.03542188
Si       5.28564848       3.61836007       4.62482287      -0.01630442       0.01064370      -0.03542188
14
Lattice="3.880644223536815 0.5549028929905915 0.03364007809138592 3.5362364191761584 6.521044001822152 -1.3646774980221645 1.3929176817524667 1.4797709897284186 11.387451516526543" Properties=species:S:1:pos:R:3:forces:R:3 unique_starting_index=296 config_type=initial n_minim_iter=9 energy=-2280.756387380724 stress="-9.648488552200305e-05 0.00010966821106708564 0.0001636599869733583 0.00010966821106708564 1.311993041406814e-05 7.760952121441331e-05 0.0001636599869733583 7.760952121441331e-05 0.0003635145764523335" free_energy=-2280.756387380724 pbc="T T T"
Si       5.85195039       1.45547286       1.06212280      -0.00139866      -0.01713691       0.01342118
Si       2.95784794       7.10024502       8.99429130       0.00139866       0.01713691      -0.01342118
Si       4.52565063       7.22980270       3.13013221       0.01555713      -0.02706858       0.01395523
Si       4.28414769       1.32591518       6.92628189      -0.01555713       0.02706858      -0.01395523
Si       5.34263309       4.13830382       8.70264187       0.02234126       0.00239933      -0.02373590
Si       3.46716523       4.41741406       1.35377222      -0.02234126      -0.00239933       0.02373590
Si       2.58305064       3.06952974       6.63703515      -0.00515844       0.00555766       0.02428363
Si       6.22674769       5.48618815       3.41937894       0.00515844      -0.00555766      -0.02428363
Si       3.23741091       4.84778873       9.54073571      -0.03518290       0.04364596      -0.01096711
Si       5.57238742       3.70792915       0.51567839       0.03518290      -0.04364596       0.01096711
Si       3.99583656       0.72729747       2.30446827       0.00614309       0.02118416       0.00632650
Si       4.81396177       7.82842041       7.75194583      -0.00614309      -0.02118416      -0.00632650
Si       3.52446488       4.93299575       5.43293864       0.01355197      -0.00994930       0.02392712
Si       5.28533344       3.62272213       4.62347546      -0.01355197       0.00994930      -0.02392712
14
Lattice="3.880914644598157 0.5551871105123314 0.029954636224246482 3.538219580691835 6.521482411999579 -1.366813338227653 1.3821355549520922 1.4812014188642049 11.38174831902941" Properties=species:S:1:pos:R:3:forces:R:3 unique_starting_index=296 config_type=initial n_minim_iter=10 energy=-2280.7568967551993 stress="-0.0001284063299583155 4.711616106886103e-05 -0.00030177421658533906 4.711616106886103e-05 2.196827891465594e-05 0.00013977685840680024 -0.00030177421658533906 0.00013977685840680024 0.0004436012884828641" free_energy=-2280.7568967551993 pbc="T T T"
Si       5.85040795       1.45481357       1.05662056       0.00392475      -0.01349221       0.01357523
Si       2.95086183       7.10305738       8.98826906      -0.00392475       0.01349221      -0.01357523
Si       4.52682105       7.22864271       3.12569877       0.00522335      -0.01199441       0.02048243
Si       4.27444873       1.32922823       6.91919085      -0.00522335       0.01199441      -0.02048243
Si       5.33383600       4.14121583       8.69287010       0.01148407      -0.00101216      -0.02352087
Si       3.46743378       4.41665511       1.35201951      -0.01148407       0.00101216       0.02352087
Si       2.57444310       3.07219865       6.63052048      -0.00492826       0.00407174       0.03330076
Si       6.22682668       5.48567229       3.41436914       0.00492826      -0.00407174      -0.03330076
Si       3.22776392       4.85027708       9.53382306      -0.02076671       0.03943048      -0.00982236
Si       5.57350586       3.70759386       0.51106656       0.02076671      -0.03943048       0.00982236
Si       3.99495507       0.72656769       2.29934585       0.00331097       0.01179023       0.01392242
Si       4.80631471       7.83130326       7.74554377      -0.00331097      -0.01179023      -0.01392242
Si       3.52155767       4.93491492       5.43219047       0.02029282      -0.01643366       0.01517901
Si       5.27971211       3.62295602       4.61269914      -0.02029282       0.01643366      -0.01517901
14
Lattice="3.8830271437010024 0.5558036510078948 0.031206925981488522 3.54063581817911 6.522200599727839 -1.3672423004407546 1.3876886299677647 1.475590470828872 11.369822186280233" Properties=species:S:1:pos:R:3:forces:R:3 unique_starting_index=296 config_type=initial n_minim_iter=11 energy=-2280.757272022248 stress="5.042485362066108e-05 0.00012115842109195871 0.0004708863902233459 0.00012115842109195871 -4.4990605678424686e-05 -7.229573227551452e-05 0.0004708863902233459 -7.229573227551452e-05 0.00020355147731352722" free_energy=-2280.757272022248 pbc="T T T"
Si       5.85263182       1.45301073       1.05824153       0.04351818      -0.00181379       0.01379898
Si       2.95871977       7.10058399       8.97554528      -0.04351818       0.00181379      -0.01379898
Si       4.53671691       7.22359759       3.12179912      -0.00106960       0.00955740       0.01839902
Si       4.27463468       1.32999713       6.91198769       0.00106960      -0.00955740      -0.01839902
Si       5.33976692       4.13926825       8.68105138      -0.00268231       0.00043631       0.01635314
Si       3.47158467       4.41432647       1.35273544       0.00268231      -0.00043631      -0.01635314
Si       2.57558077       3.07125161       6.62193716      -0.01210490      -0.00097686      -0.00683785
Si       6.23577082       5.48234311       3.41184965       0.01210490       0.00097686       0.00683785
Si       3.23204491       4.84833447       9.52166383      -0.00950949       0.01917306      -0.01405431
Si       5.57930668       3.70526025       0.51212298       0.00950949      -0.01917306       0.01405431
Si       3.99970724       0.72491811       2.29783396      -0.03409327      -0.00884942       0.03678780
Si       4.81164435       7.82867661       7.73595285       0.03409327       0.00884942      -0.03678780
Si       3.52952350       4.93297034       5.43204022      -0.01432796      -0.00973619      -0.01397521
Si       5.28182810       3.62062438       4.60174659       0.01432796       0.00973619       0.01397521
14
Lattice="3.882562767640961 0.555116852216818 0.029225155354846634 3.5397865952936174 6.522054329578345 -1.3676391317284025 1.3811290206794178 1.4778827133226866 11.368109493031849" Properties=species:S:1:pos:R:3:forces:R:3 unique_starting_index=296 config_type=initial n_minim_iter=12 energy=-2280.7575148616584 stress="-1.9704396107292205e-06 1.092702412479259e-05 -3.823314148296094e-05 1.092702412479259e-05 -1.0577301635631563e-05 1.781210792291308e-05 -3.823314148296094e-05 1.781210792291308e-05 9.071008942445027e-06" free_energy=-2280.7575148616584 pbc="T T T"
Si       5.85198987       1.45248992       1.05550555       0.02321053      -0.00770627       0.01153134
Si       2.95148852       7.10256397       8.97418997      -0.02321053       0.00770627      -0.01153134
Si       4.53213984       7.22488079       3.12079268       0.00280400       0.01136163       0.01830524
Si       4.27133854       1.33017311       6.90890284      -0.00280400      -0.01136164      -0.01830525
Si       5.33429446       4.14003364       8.67857016      -0.01406855       0.00137644       0.00868135
Si       3.46918392       4.41502026       1.35112536       0.01406855      -0.00137644      -0.00868135
Si       2.57213204       3.07190886       6.62144688      -0.00731431      -0.00142352       0.00019425
Si       6.23134635       5.48314503       3.40824864       0.00731431       0.00142352      -0.00019425
Si       3.22565811       4.85073781       9.51975346       0.00274251       0.01333006      -0.00968469
Si       5.57782028       3.70431608       0.50994206      -0.00274251      -0.01333006       0.00968469
Si       3.99738910       0.72539423       2.29613812      -0.01495406      -0.01064558       0.02784137
Si       4.80608929       7.82965967       7.73355739       0.01495406       0.01064558      -0.02784137
Si       3.52474856       4.93344995       5.42915895      -0.00146672      -0.00810561      -0.00282783
Si       5.27872983       3.62160395       4.60053656       0.00146672       0.00810561       0.00282783
14
Lattice="3.8822096417188305 0.554121782588635 0.028749409418615927 3.5378792598093596 6.522651072843845 -1.3676852369333639 1.3792619756487658 1.4778347893105788 11.364744223945632" Properties=species:S:1:pos:R:3:forces:R:3 unique_starting_index=296 config_type=initial n_minim_iter=13 energy=-2280.757721854605 stress="-5.931607248329453e-06 -9.97967742074196e-05 -0.00030797176341172927 -9.97967742074196e-05 2.165584501308764e-05 3.370079606793306e-05 -0.00030797176341172927 3.370079606793306e-05 -0.00021988293050099672" free_energy=-2280.757721854605 pbc="T T T"
Si       5.85295060       1.45071396       1.05551638      -0.00876155      -0.01236145       0.00853665
Si       2.94640028       7.10389369       8.97029202       0.00876155       0.01236145      -0.00853665
Si       4.52900068       7.22613569       3.12076682       0.01242083       0.01101864       0.01035510
Si       4.27035019       1.32847195       6.90504157      -0.01242083      -0.01101864      -0.01035510
Si       5.33154062       4.13919243       8.67612773      -0.01500081       0.00755804       0.00413129
Si       3.46781026       4.41541522       1.34968067       0.01500081      -0.00755804      -0.00413129
Si       2.57065470       3.07139931       6.62031019      -0.00205970      -0.00365604       0.00001690
Si       6.22869617       5.48320833       3.40549821       0.00205970       0.00365604      -0.00001690
Si       3.22278062       4.85256206       9.51591043       0.00424303       0.00180104       0.00035462
Si       5.57657026       3.70204559       0.50989797      -0.00424304      -0.00180104      -0.00035462
Si       3.99551628       0.72456792       2.29701314       0.01525430      -0.00644952       0.01377574
Si       4.80383460       7.83003973       7.72879525      -0.01525431       0.00644952      -0.01377574
Si       3.52215573       4.93261520       5.42628506       0.00257832      -0.00093777       0.00628677
Si       5.27719515       3.62199245       4.59952333      -0.00257832       0.00093777      -0.00628677
14
Lattice="3.882630149008383 0.5549702776833204 0.0300608632677657 3.538866089092656 6.525133521465488 -1.3674782705402924 1.3839860189243947 1.4752954628649864 11.359511435966649" Properties=species:S:1:pos:R:3:forces:R:3 unique_starting_index=296 config_type=initial n_minim_iter=14 energy=-2280.7580126205903 stress="3.094961427990005e-05 2.796121991700849e-06 9.489281471106211e-05 2.796121991700849e-06 8.716921369175057e-06 -2.1965398604799484e-05 9.489281471106211e-05 -2.1965398604799484e-05 2.0378106362804198e-05" free_energy=-2280.7580126205903 pbc="T T T"
Si       5.85475345       1.44924536       1.05868287      -0.01024809      -0.00395549       0.00653304
Si       2.95072880       7.10615390       8.96341116       0.01024809       0.00395549      -0.00653304
Si       4.53698329       7.22626708       3.12145212       0.01045928       0.01702885      -0.00038406
Si       4.26849897       1.32913218       6.90064190      -0.01045928      -0.01702885       0.00038406
Si       5.33322480       4.14095612       8.67180233       0.00800036       0.01247321       0.00865184
Si       3.47225746       4.41444314       1.35029170      -0.00800036      -0.01247322      -0.00865184
Si       2.56969558       3.07260108       6.61497027      -0.00496430      -0.00528859      -0.00444275
Si       6.23578667       5.48279819       3.40712376       0.00496430       0.00528859       0.00444275
Si       3.22635165       4.85416728       9.50979236      -0.01612403      -0.00605888       0.00815621
Si       5.57913061       3.70123199       0.51230167       0.01612403       0.00605888      -0.00815621
Si       3.99718089       0.72204022       2.29976605       0.01875237       0.00128928       0.01436461
Si       4.80830136       7.83335904       7.72232798      -0.01875237      -0.00128928      -0.01436461
Si       3.52746152       4.93317985       5.42900136      -0.01422967       0.00180041      -0.00951234
Si       5.27802073       3.62221941       4.59309267       0.01422967      -0.00180041       0.00951234
14
Lattice="3.882311439444915 0.5561641643248976 0.029803368803649644 3.5404544836105876 6.5266292233527405 -1.3671309525368684 1.3833601193835854 1.4767858054105656 11.358888341355565" Properties=species:S:1:pos:R:3:forces:R:3 unique_starting_index=296 config_type=initial n_minim_iter=15 energy=-2280.7582241827145 stress="-0.00011567799199738423 -5.1973891255425295e-06 -6.986544906081265e-05 -5.1973891255425295e-06 -1.6377241220369863e-05 2.4740479399875778e-05 -6.986544906081265e-05 2.4740479399875778e-05 7.560081495803317e-05" free_energy=-2280.7582241827145 pbc="T T T"
Si       5.85454820       1.44983987       1.05972664      -0.00495612       0.00013584       0.00034322
Si       2.95157784       7.10973932       8.96183412       0.00495612      -0.00013584      -0.00034322
Si       4.54068270       7.22998970       3.12290835       0.01039345       0.00833577      -0.00427153
Si       4.26544334       1.32958949       6.89865241      -0.01039345      -0.00833577       0.00427153
Si       5.33218938       4.14531385       8.67193862       0.00673834       0.00260793      -0.00948979
Si       3.47393666       4.41426534       1.34962214      -0.00673834      -0.00260793       0.00948980
Si       2.56783942       3.07423260       6.61360395       0.00037936       0.00020813       0.01394859
Si       6.23828662       5.48534660       3.40795680      -0.00037936      -0.00020813      -0.01394859