8
Lattice="2.4880578763369665 0.5762074837903365 0.25016709667293285 0.7568766460846547 8.562832290703858 -1.8673148702668707 0.12758255816199915 -7.099929657103461 16.39178850409856" Properties=species:S:1:pos:R:3:forces:R:3 unique_starting_index=254 config_type=initial n_minim_iter=1 energy=-1299.664078699061 stress="8.256335898600076e-05 0.0002743749014374331 0.00029517542848256795 0.0002743749014374331 -6.291251182884852e-05 0.0006535629008794697 0.00029517542848256795 0.0006535629008794697 0.00019131072683731663" free_energy=-1299.664078699061 pbc="T T T"
Si       2.76038929       5.79228143       0.01123927      -0.29466752      -0.04437148       0.19249375
Si       2.30911927      -1.24062467       9.45609932      -0.06614864       0.21541013       0.05642151
Si       1.75070872       1.06534237       9.54403358       0.17386576      -0.09828036      -0.10904284
Si       0.86662079      -1.50266429      11.48565112       0.05328296      -0.08139897      -0.00364369
Si       2.83904797       1.38107397      11.77906870      -0.16648988       0.04688569       0.03782171
Si       1.34758825       6.14896155       1.97526088       0.16740859       0.09465297      -0.14281498
Si       2.91279505      -0.19369415      14.14373190      -0.00585593      -0.03726816       0.09655496
Si       2.38314035      -2.59323094      14.45586860       0.13860466      -0.09562981      -0.12779043
8
Lattice="2.4831405334457815 0.5670832782257446 0.2370923231599248 0.7358783929709145 8.580679877604187 -1.9291742807202346 0.09489614585692446 -7.226834468204741 16.40891352119015" Properties=species:S:1:pos:R:3:forces:R:3 unique_starting_index=254 config_type=initial n_minim_iter=2 energy=-1299.673309168524 stress="-0.0038186507598101734 -0.000235024468610397 0.0006581125550368356 -0.000235024468610397 -0.00020337508690957776 -0.001231725947739374 0.0006581125550368356 -0.001231725947739374 -0.0026254398170901068" free_energy=-1299.673309168524 pbc="T T T"
Si       2.72899243       5.78631265      -0.03367528      -0.22938086      -0.01083514       0.04995107
Si       2.27688747      -1.31068726       9.43944955      -0.07521910       0.07921532      -0.04630374
Si       1.72045770       0.98652096       9.50597060       0.12046103      -0.03629371      -0.04093974
Si       0.83422035      -1.59441282      11.46926831       0.01053699      -0.00480700       0.00475225
Si       2.78680337       1.28794481      11.73568813      -0.05826268      -0.07826554       0.09883644
Si       1.32690283       6.13827715       1.91579164       0.04317029       0.10901779       0.14134464
Si       2.86340786      -0.30885146      14.10887288      -0.02868837      -0.03035862       0.03261316
Si       2.34598907      -2.71295368      14.43159583       0.21738269      -0.02767310      -0.24025407
8
Lattice="2.4915874659554422 0.5632827768474681 0.2295963375326545 0.7316168593882456 8.590102223955935 -1.9570703906641764 0.06281369773244573 -7.274433596675841 16.458633586835585" Properties=species:S:1:pos:R:3:forces:R:3 unique_starting_index=254 config_type=initial n_minim_iter=3 energy=-1299.6785157916433 stress="0.00028311745053220567 0.0002717684541847692 0.0001286002238066368 0.0002717684541847692 0.0006361790426234179 -0.0017603810609831225 0.0001286002238066368 -0.0017603810609831225 0.0016205920084146348" free_energy=-1299.6785157916433 pbc="T T T"
Si       2.72483660       5.78522552      -0.05177542      -0.24909721       0.01844203       0.04189953
Si       2.26156215      -1.33478436       9.45577978      -0.09535905      -0.00731291       0.00127531
Si       1.70513158       0.95772715       9.51462483       0.08684262       0.00586693       0.08293221
Si       0.81105406      -1.62825686      11.49298503      -0.02721599       0.06000817      -0.00537170
Si       2.76187800       1.25476025      11.74852897       0.00938284      -0.14022241       0.08007257
Si       1.32200159       6.13759261       1.89762409       0.07975512       0.08057589       0.00198139
Si       2.83824040      -0.35089696      14.13109982      -0.02876440      -0.02654855       0.00835795
Si       2.32525076      -2.75775092      14.45645965       0.22445607       0.00919086      -0.21114727
8
Lattice="2.500389514527576 0.5539750949924728 0.21842201907923797 0.7130092578900765 8.565039825791075 -1.922829884054413 0.010154425991797722 -7.205317759666344 16.359636006829895" Properties=species:S:1:pos:R:3:forces:R:3 unique_starting_index=254 config_type=initial n_minim_iter=4 energy=-1299.6868696549632 stress="0.0023895246634549464 0.0006636610532264704 -0.00033967926981317474 0.0006636610532264704 -0.0017800746344491015 -0.000650716020993399 -0.00033967926981317474 -0.000650716020993399 -0.0019421836846195326" free_energy=-1299.6868696549632 pbc="T T T"
Si       2.70177427       5.76333781      -0.03764945      -0.21089533       0.01477748       0.01355320
Si       2.22736396      -1.30072313       9.39938176      -0.10991302      -0.16643366      -0.04693532
Si       1.67168154       0.97864789       9.46396921       0.03674380       0.19745991       0.03562907
Si       0.76675965      -1.59101162      11.43160072      -0.05937340       0.05214534       0.00630239
Si       2.70774521       1.28148509      11.68957367       0.08149921      -0.11201999       0.00604851
Si       1.30370315       6.13296620       1.89930366       0.06029733       0.05901840       0.12571313
Si       2.78391590      -0.31432037      14.05610261      -0.03203865       0.00922577      -0.02441843
Si       2.28601906      -2.71519872      14.36190900       0.23368005      -0.05417327      -0.11589254
8
Lattice="2.491292458889025 0.5456767644798355 0.21458546793955632 0.6769705018372716 8.582919680697339 -1.8885108536190052 -0.004252930480270867 -7.153141978876931 16.362239322001454" Properties=species:S:1:pos:R:3:forces:R:3 unique_starting_index=254 config_type=initial n_minim_iter=5 energy=-1299.6940146362176 stress="0.0002661907602394438 -0.0004995256570225623 -0.0009515158244261568 -0.0004995256570225623 0.0003238556570301999 0.000398205774951434 -0.0009515158244261568 0.000398205774951434 0.0006252492866192119" free_energy=-1299.6940146362176 pbc="T T T"
Si       2.65502872       5.77063374      -0.01192720      -0.18568889      -0.00736098      -0.08558547
Si       2.19638459      -1.26633709       9.40904465      -0.16058361      -0.07234436      -0.00494887
Si       1.64181975       1.01851225       9.48341568       0.05068769       0.14685215       0.03607764
Si       0.73940055      -1.54679201      11.44756049      -0.09163309       0.11560916       0.08086825
Si       2.65734239       1.32749019      11.71691519       0.13543262      -0.13432464      -0.02415876
Si       1.27234904       6.16207360       1.92712803       0.05454044       0.03158515       0.04901612
Si       2.73664070      -0.26260368      14.08102444      -0.06787817      -0.00999396      -0.07038800
Si       2.26070439      -2.67001105      14.36693586       0.26512301      -0.07002252       0.01911909
8
Lattice="2.49042095476554 0.5505494688993319 0.2387983373640436 0.669973047057821 8.59439642216626 -1.861934350382149 0.13543601860581128 -7.1254097375576695 16.356848814298584" Properties=species:S:1:pos:R:3:forces:R:3 unique_starting_index=254 config_type=initial n_minim_iter=6 energy=-1299.704421880187 stress="-0.0014656979101177975 7.67282839193785e-05 0.0012770010601143283 7.67282839193785e-05 -0.0002990084776862393 0.0005489741764788207 0.0012770010601143283 0.0005489741764788207 -0.0003432887359404696" free_energy=-1299.704421880187 pbc="T T T"
Si       2.63090635       5.78341326       0.03100302       0.00859275      -0.07388418      -0.32348306
Si       2.26377941      -1.23974949       9.43383266      -0.03229456      -0.05215735      -0.01082726
Si       1.73833921       1.05180989       9.50747466       0.03283184       0.13545191       0.06093235
Si       0.83675778      -1.51593787      11.46313871      -0.01044284       0.03562980       0.02133039
Si       2.76357442       1.35305283      11.75617624       0.06084775      -0.04939506      -0.05306885
Si       1.30652982       6.18722739       1.95691857      -0.08837995       0.07202757       0.22484262
Si       2.85611266      -0.22679210      14.11652739      -0.13268018      -0.03880080      -0.00873675
Si       2.41124008      -2.64409809      14.38087015       0.16152518      -0.02887188       0.08901057
8
Lattice="2.495968693642196 0.5470454312783188 0.21765236653991965 0.6715461907799732 8.628951224634777 -1.9024838681855891 0.032178534754833565 -7.227268966264 16.33513764471485" Properties=species:S:1:pos:R:3:forces:R:3 unique_starting_index=254 config_type=initial n_minim_iter=7 energy=-1299.713224297236 stress="0.002350846407821994 0.000624052085085473 -0.0001965670839727064 0.000624052085085473 0.0022907444701894468 -0.00013672470733687813 -0.0001965670839727064 -0.00013672470733687813 -0.0005689186319599658" free_energy=-1299.713224297236 pbc="T T T"
Si       2.61890114       5.79433277      -0.02337018       0.00529769       0.00577634      -0.15284109
Si       2.20032027      -1.29373290       9.39220498      -0.09145417       0.08240473      -0.05782282
Si       1.68081616       1.01245537       9.45924921      -0.02091377      -0.06893059       0.03752036
Si       0.75933619      -1.57496718      11.42764337       0.01480236       0.04708142      -0.00476329
Si       2.69017818       1.29036917      11.68911904       0.09490597      -0.02123993       0.02523691
Si       1.28913019       6.19990509       1.91632195      -0.03787366       0.01893414       0.09659032
Si       2.76080322      -0.30276705      14.04936603      -0.10924224      -0.03631111       0.02008911
Si       2.33748352      -2.73043960      14.32614680       0.14447782      -0.02771498       0.03599050
8
Lattice="2.490967659813131 0.5405112107806354 0.21122224216520166 0.6621983282242124 8.594109980237862 -1.9200550210457292 0.003554415130364058 -7.2221231869173845 16.369541258270004" Properties=species:S:1:pos:R:3:forces:R:3 unique_starting_index=254 config_type=initial n_minim_iter=8 energy=-1299.7176132918387 stress="0.001432290966268744 0.0008691834856466849 -0.0009373037893739359 0.0008691834856466849 -0.0007011529952714405 -0.0003496086104422638 -0.0009373037893739359 -0.0003496086104422638 0.0009393440094681352" free_energy=-1299.7176132918387 pbc="T T T"
Si       2.59988485       5.76441619      -0.04371109       0.02052334       0.05396618      -0.05367189
Si       2.17163806      -1.30616653       9.40203486      -0.11071189      -0.02017365      -0.06178945
Si       1.65687112       0.99395147       9.46844638      -0.04495577      -0.00564002       0.05596413
Si       0.73175661      -1.58506979      11.44592632       0.04772670      -0.06595176      -0.01703363
Si       2.65863156       1.25884002      11.69737964       0.11009810       0.06183641       0.03758229
Si       1.27410784       6.17153208       1.91080153      -0.02375437      -0.01907702      -0.05112704
Si       2.71924813      -0.32908722      14.06335443      -0.12195724      -0.02472610       0.02342843
Si       2.31394447      -2.74759256      14.34428091       0.12303114       0.01976597       0.06664716
8
Lattice="2.4868192231576 0.5319861250479334 0.21878450310239816 0.6250003614768695 8.593364933528752 -1.9091817321162061 0.07577627764836661 -7.210000093615957 16.35866705359869" Properties=species:S:1:pos:R:3:forces:R:3 unique_starting_index=254 config_type=initial n_minim_iter=9 energy=-1299.7223677776215 stress="0.0002008413964673772 -1.0708094310177677e-05 -3.4669976114812266e-05 -1.0708094310177677e-05 -0.0002495408291055654 -9.329196879664138e-05 -3.4669976114812266e-05 -9.329196879664138e-05 0.00030704116748708716" free_energy=-1299.7223677776215 pbc="T T T"
Si       2.56638962       5.75680307      -0.03679287       0.06184972       0.06274504      -0.00219681
Si       2.19227246      -1.30626573       9.40339341      -0.11272284       0.07734054      -0.07606733
Si       1.68161493       1.00167786       9.47405410       0.02766316      -0.08197988       0.02047574
Si       0.76754592      -1.57559809      11.44566726       0.03629242      -0.10783984      -0.02851968
Si       2.68892979       1.25605664      11.70419420       0.10017283       0.09621555       0.06501464
Si       1.25714259       6.17495649       1.92486435      -0.05142263      -0.03167778      -0.07059175
Si       2.75052461      -0.32791843      14.06748393      -0.14379852      -0.03797391       0.03679956
Si       2.37764183      -2.74730898      14.34331998       0.08196587       0.02317029       0.05508564
8
Lattice="2.4764943553739593 0.518683276755664 0.22099200011747575 0.5694035468545108 8.607387836768316 -1.891588736991194 0.12924593114708183 -7.2011770305877345 16.323479895366482" Properties=species:S:1:pos:R:3:forces:R:3 unique_starting_index=254 config_type=initial n_minim_iter=10 energy=-1299.7277059282735 stress="-0.0017236518521496018 -0.0004600563154923191 0.0007282605433563516 -0.0004600563154923191 0.0003477878529009088 0.0005759968537803213 0.0007282605433563516 0.0005759968537803213 -0.0011654043993076367" free_energy=-1299.7277059282735 pbc="T T T"
Si       2.50417057       5.75747267      -0.03615745       0.13489711       0.10213915       0.13987194
Si       2.17479401      -1.29909037       9.38236073      -0.06603760       0.09004627      -0.08148472
Si       1.68818737       1.01178484       9.46734947       0.03404885      -0.05602913      -0.03879536
Si       0.78187311      -1.56847656      11.42911836       0.03084113      -0.07138619       0.00059602
Si       2.69385091       1.25909362      11.69749753       0.07910493       0.05121096       0.08060780
Si       1.21805482       6.19302483       1.93813141      -0.10906725      -0.07207059      -0.07458265
Si       2.73022028      -0.32852679      14.05250470      -0.14192719      -0.05970879      -0.04302373
Si       2.43530861      -2.75216941      14.31783506       0.03814002       0.01579832       0.01681070
8
Lattice="2.4742095647323255 0.49803092487660505 0.19952811182528768 0.5189607607010747 8.613805905415227 -1.9582867978447809 0.06843389855940069 -7.3180754103150285 16.376119938248625" Properties=species:S:1:pos:R:3:forces:R:3 unique_starting_index=254 config_type=initial n_minim_iter=11 energy=-1299.7386889549134 stress="-0.00010982469961205763 -0.0005396827195978524 0.0003014030698821382 -0.0005396827195978524 -0.0009054810479587648 -0.0009186132964233033 0.0003014030698821382 -0.0009186132964233033 -0.0006712591081383363" free_energy=-1299.7386889549134 pbc="T T T"
Si       2.47010745       5.74864634      -0.09914373       0.02546970       0.25390439       0.40652635
Si       2.09444203      -1.36753336       9.36203413      -0.07821205      -0.26102286      -0.03069255
Si       1.62382920       0.92112582       9.45245366      -0.01630726       0.23495365       0.06132815
Si       0.72185389      -1.67245325      11.43379196      -0.06410354       0.13039624      -0.01747649
Si       2.62681789       1.16329885      11.68187333       0.16417379      -0.20531927       0.11106703
Si       1.14828686       6.16479657       1.87771212      -0.08935770      -0.12368653      -0.06856355
Si       2.60274326      -0.46054784      14.04025409      -0.02425929      -0.03598470      -0.27135359
Si       2.38840432      -2.87472388      14.32927327       0.08259635       0.00675908      -0.19083535
8
Lattice="2.467872238358913 0.5052554041505649 0.18143932832377596 0.5442276153072437 8.653263347671 -1.93733354525938 -0.07853588939181883 -7.294356271999694 16.389682285639903" Properties=species:S:1:pos:R:3:forces:R:3 unique_starting_index=254 config_type=initial n_minim_iter=12 energy=-1299.7588121626166 stress="0.0003289961112481952 0.0027479919504916034 0.00012121846707834606 0.0027479919504916034 0.0019599808815072804 0.0013929240219346757 0.00012121846707834606 0.0013929240219346757 0.0036460255442456796" free_energy=-1299.7588121626166 pbc="T T T"
Si       2.46293653       5.80752206      -0.08601718      -0.04269014       0.19909923       0.21761268
Si       1.96666506      -1.32777551       9.34498845       0.06746119      -0.18418518       0.16929391
Si       1.55546436       0.96956992       9.47257569      -0.21867429       0.24317555       0.05736292
Si       0.62402458      -1.64456122      11.44935454       0.12585687       0.18126240      -0.04267621
Si       2.55934910       1.21337821      11.71186342      -0.03445314      -0.24608851      -0.05044194
Si       1.12550560       6.20260615       1.88489020      -0.09485443      -0.17564887      -0.19059099
Si       2.43331756      -0.41912271      14.04346045       0.02143539      -0.07550381      -0.20056248
Si       2.31524245      -2.83752549      14.32912789       0.17591855       0.05788919       0.04000210
8
Lattice="2.4593954739181902 0.46723060247825043 0.1366946676401623 0.4402703876254385 8.685697859899168 -1.9713144485976373 -0.24801005651470193 -7.371505845451811 16.39592856324191" Properties=species:S:1:pos:R:3:forces:R:3 unique_starting_index=254 config_type=initial n_minim_iter=13 energy=-1299.7973616328243 stress="-0.0026999764334227775 0.0018220454358149694 0.0003790283854460305 0.0018220454358149694 0.003142017817948079 0.002280370937744912 0.0003790283854460305 0.002280370937744912 0.0032063988409353917" free_energy=-1299.7973616328243 pbc="T T T"
Si       2.33634123       5.82952091      -0.13289635       0.01381120       0.15397182      -0.05015685
Si       1.74574511      -1.37099492       9.27826514       0.07628848      -0.23122450       0.24201832
Si       1.40712444       0.93101342       9.44379014      -0.28650318       0.29995249       0.06149786
Si       0.45703418      -1.70839652      11.43222076       0.23230113       0.25596994      -0.12138707
Si       2.39586491       1.12896929      11.68175625      -0.05234215      -0.22403487      -0.14879110
Si       0.98154902       6.20646439       1.83418306      -0.14833581      -0.19080051      -0.04203178
Si       2.11570710      -0.52695313      13.98130430       0.06341189      -0.16024318      -0.11908151
Si       2.23349325      -2.94777225      14.26794992       0.10136842       0.09640880       0.17793213
8
Lattice="2.4633483225374198 0.44939919080997764 0.11418091028524535 0.4032974733998883 8.677009732609477 -2.0139194939830043 -0.3315000748783188 -7.436303263456758 16.408440556575297" Properties=species:S:1:pos:R:3:forces:R:3 unique_starting_index=254 config_type=initial n_minim_iter=14 energy=-1299.8171142077022 stress="-0.0032097512546785376 0.0002845499291215486 0.00029559103266702305 0.0002845499291215486 0.0022315182007983654 0.0015476360808156424 0.00029559103266702305 0.0015476360808156424 0.001528933503897482" free_energy=-1299.8171142077022 pbc="T T T"
Si       2.30294620       5.82148788      -0.17650330      -0.00243494       0.11965797      -0.15554266
Si       1.65984739      -1.42480729       9.24722906       0.03325041      -0.20312775       0.22060334
Si       1.33667225       0.88410318       9.42008571      -0.27784571       0.22526855       0.05626407
Si       0.38209351      -1.76511956      11.41822264       0.29354915       0.21209209      -0.20481437
Si       2.33055859       1.04654170      11.64828225       0.00396973      -0.14578173      -0.15164113
Si       0.92156464       6.17649015       1.79170689      -0.09496262      -0.14765946       0.05982281
Si       1.98684785      -0.61764042      13.93863215       0.08127596      -0.19701279       0.00945903
Si       2.18755957      -3.03119550      14.24068163      -0.03680199       0.13656312       0.16584891
8
Lattice="2.479085761562147 0.44407162756000607 0.10265251183110885 0.41547830052057216 8.627578784283553 -2.069900881562667 -0.37911302564907334 -7.49523201590676 16.421555963012388" Properties=species:S:1:pos:R:3:forces:R:3 unique_starting_index=254 config_type=initial n_minim_iter=15 energy=-1299.8408195650766 stress="-0.0002213956616219043 3.8014099149482643e-06 1.630435301514626e-05 3.8014099149482643e-06 -0.0008679604867473892 -0.0001907982574969936 1.630435301514626e-05 -0.0001907982574969936 -0.0015437704966308281" free_energy=-1299.8408195650766 pbc="T T T"
Si       2.34323264       5.78723186      -0.22382803      -0.18290734       0.18333914      -0.03163446
Si       1.65765689      -1.49900533       9.23258804      -0.08030266      -0.03225791       0.13911876
Si       1.30279957       0.82529942       9.39279927      -0.19361032      -0.02528343       0.02309514
Si       0.35719176      -1.82234952      11.39689254       0.28953531       0.01816835      -0.25647825
Si       2.32364621       0.95140476      11.60079586       0.07386140       0.04771628      -0.09583116
Si       0.91393014       6.10640539       1.74523360       0.02367961      -0.08756405       0.10921469
Si       1.97126595      -0.71125268      13.89217505       0.04525433      -0.11203308       0.12811530
Si       2.14453918      -3.09963286      14.22999758       0.02448967       0.00791470      -0.01560002
8
Lattice="2.4855967261994736 0.4263430357376904 0.0721001855037923 0.38404802590558007 8.633366967662154 -2.1297129057785096 -0.5168692840092933 -7.585045394360183 16.50306889426944" Properties=species:S:1:pos:R:3:forces:R:3 unique_starting_index=254 config_type=initial n_minim_iter=16 energy=-1299.8551228108347 stress="0.0003244758384274482 -0.002070602601819103 0.0005057564030363205 -0.002070602601819103 0.0002043625976246184 -0.00032974118111499414 0.0005057564030363205 -0.00032974118111499414 0.0016924478697439198" free_energy=-1299.8551228108347 pbc="T T T"
Si       2.30450801       5.80805013      -0.28304671      -0.21202097       0.02781729      -0.27431739
Si       1.52030494      -1.56285977       9.23256462      -0.06763439       0.07866918       0.13675651
Si       1.19384890       0.77514539       9.40661364      -0.18768141      -0.16705665       0.07261629
Si       0.26233989      -1.89349221      11.41086191       0.36954869      -0.01831210      -0.22792083
Si       2.24502350       0.85787427      11.60265300       0.14286727       0.09615245      -0.14703836
Si       0.84019307       6.07581690       1.70245478       0.13302248      -0.03271495       0.03967996
Si       1.77892223      -0.82732021      13.89859675       0.02103247      -0.13846190       0.33779536
Si       2.07775664      -3.20050910      14.25265830      -0.19913414       0.15390668       0.06242845
8
Lattice="2.489869079192275 0.43717167077621777 0.030150216632133547 0.4542678174188106 8.662543629812518 -2.1985928104662653 -0.8031682258047805 -7.701344705943428 16.564501369561953" Properties=species:S:1:pos:R:3:forces:R:3 unique_starting_index=254 config_type=initial n_minim_iter=17 energy=-1299.9027557370803 stress="-0.000979890229458954 -0.0024839611948278707 0.00040305270009886163 -0.0024839611948278707 0.0015040818005298507 -0.0005867517391092334 0.00040305270009886163 -0.0005867517391092334 0.001686624902163505" free_energy=-1299.9027557370803 pbc="T T T"
Si       2.32514679       5.88057888      -0.37290048      -0.29824951      -0.18788772      -0.26811481
Si       1.32593892      -1.61834575       9.22379843       0.05081716       0.21841880       0.00639064
Si       1.02389038       0.73042998       9.40351850      -0.26419795      -0.30294919       0.03867415
Si       0.13428641      -1.97108704      11.37724500       0.29858617      -0.02039050       0.13375003
Si       2.13095720       0.79732738      11.55521847       0.23913769       0.02453480      -0.13978399
Si       0.82231426       6.05419062       1.65071442       0.25215951       0.06452848       0.07919328
Si       1.52212190      -0.93882827      13.88873116      -0.06593802       0.05557205       0.25575108
Si       1.88950781      -3.27715773      14.25281104      -0.21231505       0.14817328      -0.10586038
8
Lattice="2.4928045097312768 0.46033828133022797 0.019988028259654733 0.5394690074669639 8.67739157746648 -2.202475916362505 -0.9326134566943304 -7.711026014084212 16.55235920659223" Properties=species:S:1:pos:R:3:forces:R:3 unique_starting_index=254 config_type=initial n_minim_iter=18 energy=-1299.931331873745 stress="7.848460619043336e-05 -0.00027119030373057355 0.0013810786872827713 -0.00027119030373057355 0.0010438709069128709 6.778733293142431e-05 0.0013810786872827713 6.778733293142431e-05 0.00012317304012216906" free_energy=-1299.931331873745 pbc="T T T"
Si       2.35950030       5.92275815      -0.39515953      -0.23212490      -0.22177521       0.04223220
Si       1.27193443      -1.60424566       9.22331170       0.21480705       0.21066281      -0.17897099
Si       0.97019326       0.74051453       9.39587984      -0.32333518      -0.27820875      -0.03521912
Si       0.11089047      -1.96669300      11.34002191       0.20246258      -0.00539347       0.44549486
Si       2.10587542       0.82722629      11.51757226       0.21374518      -0.01614414      -0.06489474
Si       0.87601277       6.06195862       1.64950774       0.17857579       0.04643763      -0.01843417
Si       1.46450490      -0.93032538      13.88430577      -0.18420750       0.25817802       0.02671145
Si       1.80033383      -3.25047583      14.23279108      -0.06992301       0.00624311      -0.21691948
8
Lattice="2.4948283071750694 0.4708714013553072 -0.005708089641110359 0.5935297555547898 8.691500011487783 -2.2141793219209456 -1.1276565758218828 -7.727779355907017 16.54916306168815" Properties=species:S:1:pos:R:3:forces:R:3 unique_starting_index=254 config_type=initial n_minim_iter=19 energy=-1299.9498976254142 stress="0.0004320858859698782 -0.0002581567457671766 -0.00016704695210135616 -0.0002581567457671766 0.0005811800532834907 0.0002685340944780138 -0.00016704695210135616 0.0002685340944780138 -0.0010696292697760042" free_energy=-1299.9498976254142 pbc="T T T"
Si       2.36437156       5.94324166      -0.42056699      -0.15459729      -0.29560462      -0.06401699
Si       1.17272012      -1.59537869       9.20556336       0.17354618       0.04460874      -0.22335549
Si       0.86583827       0.73504590       9.37534707      -0.41096366      -0.12236317      -0.09265896
Si       0.01156178      -1.97360683      11.32010180       0.14971193       0.03581869       0.52576953
Si       1.99794544       0.83757189      11.47403894       0.34585710      -0.03804070      -0.03263415
Si       0.89250431       6.07162749       1.63034641       0.15484128       0.05356977       0.07653852
Si       1.31975247      -0.93019429      13.86495629      -0.20506901       0.28819106      -0.00795329
Si       1.64505438      -3.24792965      14.19343513      -0.05332652       0.03382022      -0.18168917
8
Lattice="2.4855937891476882 0.49338752866286184 -0.01857967177868275 0.6751520394391182 8.706101461603158 -2.220761736188205 -1.2765346074836772 -7.735592338061464 16.560714231032993" Properties=species:S:1:pos:R:3:forces:R:3 unique_starting_index=254 config_type=initial n_minim_iter=20 energy=-1299.9784037111476 stress="-0.0020072493692561352 0.0008757366190305403 -0.0006886843568760679 0.0008757366190305403 -0.0019280404236082897 0.0004800365273094701 -0.0006886843568760679 0.0004800365273094701 -0.002245778384552723" free_energy=-1299.9784037111476 pbc="T T T"
Si       2.37529135       5.94956956      -0.44054260      -0.00377820      -0.18466876       0.13091977
Si       1.12644554      -1.57069320       9.20561550       0.15744266      -0.25992630      -0.19542765
Si       0.79138173       0.73317247       9.37048921      -0.47465980       0.14902636      -0.17567666
Si      -0.04658672      -1.96874858      11.33353553       0.15706724       0.07354698       0.42925453
Si       1.92834288       0.86911860      11.44759441       0.37015627       0.00227676       0.05144302
Si       0.95496145       6.09509017       1.62744557       0.03422922      -0.01310058      -0.00936650
Si       1.24033031      -0.89491651      13.87915658      -0.27378410       0.23404400      -0.05255444
Si       1.50898589      -3.22399497      14.17834285       0.03332671      -0.00119846      -0.17859207
8
Lattice="2.488631875569025 0.5084143373851696 -0.04986376331860201 0.751140351337925 8.733393145771515 -2.2823215569931374 -1.5094696287545109 -7.8375874089597035 16.637551863309913" Properties=species:S:1:pos:R:3:forces:R:3 unique_starting_index=254 config_type=initial n_minim_iter=21 energy=-1300.000509157645 stress="-0.0014289867317012915 0.0019172037908851333 -0.002222019162206847 0.0019172037908851333 -0.0012585434076887274 0.00018612209172832388 -0.002222019162206847 0.00018612209172832388 -0.0006547946286406709" free_energy=-1300.000509157645 pbc="T T T"
Si       2.38992408       5.97796899      -0.50887079       0.10061848      -0.19308040       0.18467510
Si       1.00725035      -1.61081882       9.20576234       0.20854084      -0.32614059      -0.07762293
Si       0.64997593       0.68581650       9.37704485      -0.45725696       0.16904756      -0.21915018
Si      -0.15054806      -2.03075836      11.36037508       0.06279075       0.06166031       0.26933380
Si       1.84416672       0.82287642      11.41808863       0.17841613       0.07089409       0.14392104
Si       0.97996953       6.09427294       1.58548158       0.00369781      -0.02898049      -0.11465208
Si       1.04908934      -0.95748964      13.89968223      -0.11553975       0.21850245      -0.04841309
Si       1.34340326      -3.28579973      14.18572312       0.01873271       0.02809707      -0.13809166
