20
Lattice="7.745630255784461 -1.459439381388235e-14 -2.5278231591312357e-14 1.9961580586787375e-14 10.594138031223148 3.994301368599531e-14 1.9961580586786135e-14 -5.297069015611608 9.174792666238083" Properties=species:S:1:pos:R:3:forces:R:3 unique_starting_index=346 config_type=initial n_minim_iter=1 energy=-3243.3796499712575 stress="0.0024906327043799927 -8.282744130495665e-13 1.4765903822814715e-12 -8.282744130495665e-13 0.000932568437186242 -1.8524778872814958e-13 1.4765903822814715e-12 -1.8524778872814958e-13 0.0009325684423764197" free_energy=-3243.3796499712575 pbc="T T T"
Si       2.67146872      -1.27832575       5.27024520       0.49343346       0.64396755       0.48385112
Si       2.67146872       1.37206567       5.43260750       0.49343347      -0.74101113       0.31576670
Si       2.67146872      -0.09373992       7.64673264       0.49343346       0.09704359      -0.79961782
Si       5.39686200      -3.30615344       6.38371357       0.03720663      -0.06306919       0.05646159
Si       5.39686200       1.42168762       3.11972302       0.03720663      -0.01736257      -0.08285032
Si       5.39686200       1.88446582       8.84614876       0.03720663       0.08043176       0.02638873
Si       3.79027105       2.85847434       3.75489883       0.15682224      -0.03687350       0.30145322
Si       3.79027105       0.61599408       9.77285466       0.15682224      -0.24262940      -0.18266000
Si       3.79027105      -3.47446842       4.82183187       0.15682224       0.27950290      -0.11879322
Si       5.28464270      -0.06478067       7.53826295      -0.04761269      -0.16509302       0.14877781
Si       5.28464270      -1.19886786       5.34955949      -0.04761269      -0.04629885      -0.21736365
Si       5.28464270       1.26364853       5.46176290      -0.04761269       0.21139187       0.06858585
Si       1.47083388       4.94699048       0.44774873      -0.42281790       0.15121033       0.40251470
Si       1.47083388       7.73288102       4.06034507      -0.42281790      -0.42419312      -0.07030536
Si       1.47083388       3.21133555       4.66669888      -0.42281790       0.27298279      -0.33220933
Si       0.01325551      -0.45041632       7.47703669      -0.24859173       0.43320021       0.34954604
Si       0.01325551      -0.95302654       5.04620236      -0.24859173      -0.51931586       0.20038937
Si       0.01325551       1.40344286       5.82634630      -0.24859173       0.08611565      -0.54993541
Si       1.45005461      -5.29706902       9.17479267      -0.00129989      -0.00000000       0.00000000
Si       1.27026697       5.29706902       3.05826423       0.09597981      -0.00000000       0.00000000
20
Lattice="7.728469584072842 -1.4551892099455233e-14 -2.52046164625158e-14 1.9959113436428435e-14 10.585343445379612 3.9023567728194424e-14 1.99591134364272e-14 -5.29267172268984 9.167176331481823" Properties=species:S:1:pos:R:3:forces:R:3 unique_starting_index=346 config_type=initial n_minim_iter=2 energy=-3243.3857447433697 stress="-0.0017434303949650791 -1.6165176116154001e-12 2.1001716337236717e-13 -1.6165176116154001e-12 -0.0023290928961706182 -3.3204872335955206e-12 2.1001716337236717e-13 -3.3204872335955206e-12 -0.0023290928980626586" free_energy=-3243.3857447433697 pbc="T T T"
Si       2.66613236      -1.27650347       5.26644202       0.48240875       0.59461417       0.45461746
Si       2.66613236       1.37005088       5.42847089       0.48240875      -0.69101735       0.28764224
Si       2.66613236      -0.09354741       7.63943976       0.48240875       0.09640319      -0.74225971
Si       5.38494901      -3.30348342       6.37848094       0.06928562      -0.08743372       0.14106282
Si       5.38494901       1.42048690       3.11703530       0.06928562      -0.07844713      -0.14625123
Si       5.38494901       1.88299652       8.83883643       0.06928562       0.16588085       0.00518841
Si       3.78205868       2.85605783       3.75213802       0.16215440      -0.02300513       0.31365368
Si       3.78205868       0.61519596       9.76452597       0.16215440      -0.26012949      -0.17674987
Si       3.78205868      -3.47125380       4.81768869       0.16215440       0.28313462      -0.13690381
Si       5.27287822      -0.06492201       7.53218100      -0.05354864      -0.16363461       0.11579327
Si       5.27287822      -1.19792736       5.34486173      -0.05354864      -0.01846260      -0.19960836
Si       5.27287822       1.26284937       5.45730995      -0.05354864       0.18209722       0.08381510
Si       1.46707618       4.94306251       0.44785276      -0.43005425       0.10536000       0.42461630
Si       1.46707618       7.72596033       4.05689134      -0.43005425      -0.42040850      -0.12106371
Si       1.46707618       3.20899233       4.66243225      -0.43005425       0.31504850      -0.30355259
Si       0.01293274      -0.44953042       7.47124284      -0.25657082       0.42287148       0.35792394
Si       0.01293274      -0.95284916       5.04225015      -0.25657082      -0.52140696       0.18725548
Si       0.01293274       1.40237958       5.82085969      -0.25657082       0.09853548      -0.54517942
Si       1.44684044      -5.29267172       9.16717634      -0.00136726      -0.00000000      -0.00000000
Si       1.26756593       5.29267172       3.05572545       0.08034204      -0.00000000      -0.00000000
20
Lattice="7.6591717771523316 -1.4451289695534267e-14 -2.5030367987561107e-14 2.004121857024168e-14 10.650981462198619 2.7622342290669597e-14 2.004121857024048e-14 -5.325490731099335 9.224020521501119" Properties=species:S:1:pos:R:3:forces:R:3 unique_starting_index=346 config_type=initial n_minim_iter=3 energy=-3243.436819036363 stress="-0.005330731658313771 -2.3752610394952044e-12 -1.2491092820164819e-12 -2.3752610394952044e-12 0.003141662750932867 3.4589803131926526e-13 -1.2491092820164819e-12 3.4589803131926526e-13 0.0031416627444416033" free_energy=-3243.436819036363 pbc="T T T"
Si       2.65077301      -1.27333864       5.30748354       0.33202790       0.55928168       0.35031773
Si       2.65077301       1.36574448       5.46753515       0.33202790      -0.58302489       0.30919327
Si       2.65077301      -0.09240584       7.67302237       0.33202790       0.02374321      -0.65951100
Si       5.33755575      -3.32527588       6.41968328       0.06311396       0.09891476       0.17191559
Si       5.33755575       1.42851987       3.13440550       0.06311396      -0.19834065      -0.00029510
Si       5.33755575       1.89675601       8.89395228       0.06311396       0.09942588      -0.17162049
Si       3.75092917       2.87321764       3.78086081       0.03439318       0.10806343       0.19942203
Si       3.75092917       0.61456040       9.82186959       0.03439318      -0.22673626      -0.00612534
Si       3.75092917      -3.48777804       4.84531066       0.03439318       0.11867283      -0.19329669
Si       5.22472145      -0.06825066       7.58128198      -0.09751674      -0.00784471       0.00372407
Si       5.22472145      -1.20596672       5.37427273      -0.09751674       0.00069721      -0.00865575
Si       5.22472145       1.27421738       5.49248635      -0.09751674       0.00714750       0.00493168
Si       1.44647289       4.97605384       0.45795980      -0.27907259      -0.06065560       0.26229954
Si       1.44647289       7.76634972       4.08040914      -0.27907259      -0.19683026      -0.18367906
Si       1.44647289       3.23406863       4.68565159      -0.27907259       0.25748587      -0.07862048
Si       0.00840948      -0.44468956       7.52385365      -0.07319387       0.41162781       0.13097248
Si       0.00840948      -0.96801288       5.07698125      -0.07319387      -0.31923940       0.29099390
Si       0.00840948       1.41270244       5.84720616      -0.07319387      -0.09238841      -0.42196638
Si       1.43384401      -5.32549073       9.22402053      -0.00007344      -0.00000000      -0.00000000
Si       1.25776150       5.32549073       3.07467351       0.06081792      -0.00000000      -0.00000000
20
Lattice="7.728151941384703 -1.4578731056859612e-14 -2.5251102900362317e-14 1.994453148138474e-14 10.598002727650313 6.0199676902239484e-15 1.9944531481383684e-14 -5.299001363825163 9.178139591521944" Properties=species:S:1:pos:R:3:forces:R:3 unique_starting_index=346 config_type=initial n_minim_iter=4 energy=-3243.5528307981554 stress="-0.0005079721873289743 -7.577356887161403e-13 3.1130081237137325e-12 -7.577356887161403e-13 -8.906988100555795e-05 -5.59310041830908e-12 3.1130081237137325e-12 -5.59310041830908e-12 -8.906987421683484e-05" free_energy=-3243.5528307981554 pbc="T T T"
Si       2.69535361      -1.23947160       5.30138248       0.13878742      -0.18867321      -0.04913971
Si       2.69535361       1.32760526       5.45403446       0.13878743       0.13689284      -0.13882594
Si       2.69535361      -0.08813366       7.60086225       0.13878743       0.05178037       0.18796565
Si       5.38797921      -3.31076606       6.39246896      -0.08256624       0.00187993       0.03634290
Si       5.38797921       1.41834389       3.11469761      -0.08256624      -0.03241384      -0.01654338
Si       5.38797921       1.89242217       8.84911263      -0.08256624       0.03053391      -0.01979951
Si       3.79091919       2.85855073       3.77504287      -0.08324299      -0.05001826       0.28216865
Si       3.79091919       0.60044298       9.76619572      -0.08324299      -0.21935609      -0.18440141
Si       3.79091919      -3.45899371       4.81504061      -0.08324299       0.26937435      -0.09776724
Si       5.26919744      -0.07415273       7.54867282      -0.02124601      -0.04440205       0.09132831
Si       5.26919744      -1.20126469       5.33958504      -0.02124601      -0.05689161      -0.08411746
Si       5.26919744       1.27541742       5.46802134      -0.02124601       0.10129366      -0.00721085
Si       1.44153341       4.95581979       0.47308700       0.14562473       0.09926261      -0.38063158
Si       1.44153341       7.71038748       4.05532234       0.14562473       0.28000531       0.27627973
Si       1.44153341       3.23079683       4.64973027       0.14562473      -0.37926792       0.10435185
Si      -0.00148301      -0.42333554       7.50066382      -0.08194748       0.46093934       0.18342555
Si      -0.00148301      -0.98509627       5.06118836      -0.08194748      -0.38932086       0.30747241
Si      -0.00148301       1.40843182       5.79442702      -0.08194748      -0.07161849      -0.49089796
Si       1.44670722      -5.29900136       9.17813960       0.00032119       0.00000000      -0.00000000
Si       1.27287794       5.29900136       3.05937987      -0.04654948       0.00000000       0.00000000
20
Lattice="7.7905475949379515 -1.469420909652828e-14 -2.5451116732226898e-14 1.9874127706463282e-14 10.559268565076957 -1.461320774136233e-14 1.9874127706462374e-14 -5.279634282538468 9.144594822739112" Properties=species:S:1:pos:R:3:forces:R:3 unique_starting_index=346 config_type=initial n_minim_iter=5 energy=-3243.6424717686846 stress="0.001075142950567873 -1.86325981449105e-12 -2.6695306776113064e-12 -1.86325981449105e-12 -0.00020395395307066676 8.848070143789952e-13 -2.6695306776113064e-12 8.848070143789952e-13 -0.000203953953324874" free_energy=-3243.6424717686846 pbc="T T T"
Si       2.74322606      -1.22457635       5.29552674       0.06511589      -0.50303626      -0.20170948
Si       2.74322606       1.30586178       5.43631724       0.06511589       0.42620366      -0.33478744
Si       2.74322606      -0.08128543       7.55734569       0.06511589       0.07683259       0.53649692
Si       5.42792715      -3.30046741       6.37466923      -0.17134084      -0.04813372      -0.09729868
Si       5.42792715       1.40924250       3.09897159      -0.17134084       0.10832999       0.00696432
Si       5.42792715       1.89122492       8.81554884      -0.17134084      -0.06019627       0.09033436
Si       3.82148210       2.84423551       3.78983917      -0.10201628       0.12385697       0.00916365
Si       3.82148210       0.57541953       9.71285545      -0.10201628      -0.06986444       0.10268146
Si       3.82148210      -3.41965504       4.78649503      -0.10201628      -0.05399253      -0.11184511
Si       5.30841731      -0.08207799       7.53143033       0.07863604      -0.06886627       0.06675066
Si       5.30841731      -1.20173671       5.30779804       0.07863604      -0.02337463      -0.09301527
Si       5.30841731       1.28381470       5.44996129       0.07863604       0.09224090       0.02626461
Si       1.44764002       4.94828675       0.46127228       0.23830337       0.17320846      -0.20415520
Si       1.44764002       7.68565168       4.05470590       0.23830337       0.09019936       0.25208053
Si       1.44764002       3.20496441       4.62861666       0.23830337      -0.26340782      -0.04792533
Si      -0.01521734      -0.37697916       7.49682361      -0.10106774       0.46465712       0.00664960
Si      -0.01521734      -1.02431583       5.06970950      -0.10106774      -0.23808728       0.39908007
Si      -0.01521734       1.40129499       5.72265655      -0.10106774      -0.22656984      -0.40572967
Si       1.45836489      -5.27963428       9.14459483       0.00087384       0.00000000       0.00000000
Si       1.28337049       5.27963428       3.04819828      -0.02376514       0.00000000       0.00000000
20
Lattice="7.8717077435513865 -1.485836253156128e-14 -2.573543882194101e-14 1.9760368730489255e-14 10.507294628278562 -3.483551198208893e-14 1.9760368730488583e-14 -5.2536473141392515 9.09958407313702" Properties=species:S:1:pos:R:3:forces:R:3 unique_starting_index=346 config_type=initial n_minim_iter=6 energy=-3243.7320891821264 stress="0.0011087808250545244 6.242880243506928e-13 -2.47666495443307e-12 6.242880243506928e-13 -0.0001818033893830034 1.776183726529622e-12 -2.47666495443307e-12 1.776183726529622e-12 -0.00018180338737931268" free_energy=-3243.7320891821264 pbc="T T T"
Si       2.80507927      -1.22585085       5.27703937       0.06090137      -0.47891125      -0.18671803
Si       2.80507927       1.29652260       5.39944642       0.06090137       0.40115818      -0.32139029
Si       2.80507927      -0.07067174       7.52268238       0.06090137       0.07775307       0.50810832
Si       5.47370755      -3.28710709       6.34743531      -0.19385751      -0.08842556      -0.23226535
Si       5.47370755       1.40016064       3.07914818      -0.19385751       0.24536048       0.03955389
Si       5.47370755       1.88694645       8.77258467      -0.19385751      -0.15693491       0.19271146
Si       3.85618400       2.82953981       3.80736955      -0.01055986       0.44585780      -0.43303395
Si       3.85618400       0.54159867       9.64635266      -0.01055986       0.15208950       0.60264115
Si       3.85618400      -3.37113847       4.74544595      -0.01055986      -0.59794730      -0.16960721
Si       5.36197238      -0.09308395       7.50887860       0.17482428      -0.09149158      -0.00242897
Si       5.36197238      -1.20269032       5.26453171       0.17482428       0.04784934      -0.07801955
Si       5.36197238       1.29577428       5.42575785       0.17482428       0.04364224       0.08044852
Si       1.46697301       4.94190989       0.43500715       0.08032273       0.25460956       0.33028946
Si       1.46697301       7.65961244       4.06231594       0.08032273      -0.41334385       0.05535362
Si       1.46697301       3.15941961       4.60226100       0.08032273       0.15873428      -0.38564308
Si      -0.03482261      -0.30357012       7.48847896      -0.14988698       0.39630205      -0.22439218
Si      -0.03482261      -1.07978063       5.09244516      -0.14988698      -0.00382169       0.45540373
Si      -0.03482261       1.38335076       5.61824404      -0.14988698      -0.39248036      -0.23101155
Si       1.47356981      -5.25364731       9.09958408       0.00082138      -0.00000000      -0.00000000
Si       1.29535665       5.25364731       3.03319470       0.11394653       0.00000000      -0.00000000
20
Lattice="7.930734957864558 -1.5007267156758404e-14 -2.5993349198264507e-14 1.963843153272487e-14 10.47032789951694 -4.3968982234673436e-14 1.9638431532724463e-14 -5.23516394975843 9.067569946934649" Properties=species:S:1:pos:R:3:forces:R:3 unique_starting_index=346 config_type=initial n_minim_iter=7 energy=-3243.8322980999915 stress="0.0005207568910728283 3.639398210116152e-12 -1.9818001875701695e-13 3.639398210116152e-12 0.0008920000093811062 -1.4082549359803594e-12 -1.9818001875701695e-13 -1.4082549359803594e-12 0.000891999993248444" free_energy=-3243.8322980999915 pbc="T T T"
Si       2.85417897      -1.24637152       5.25623962       0.10685937      -0.12154843      -0.01603620
Si       2.85417897       1.30631268       5.36006075       0.10685937       0.07466198      -0.09724593
Si       2.85417897      -0.05994116       7.51883955       0.10685937       0.04688646       0.11328213
Si       5.49871229      -3.27986440       6.32141166      -0.10762490      -0.05190622      -0.28572868
Si       5.49871229       1.40059307       3.06641823      -0.10762490       0.27340141       0.09791224
Si       5.49871229       1.87927133       8.74731002      -0.10762490      -0.22149519       0.18781644
Si       3.87902314       2.83344721       3.81026721       0.12964020       0.55307463      -0.66731850
Si       3.87902314       0.51865215       9.61627361       0.12964020       0.30137746       0.81263593
Si       3.87902314      -3.35209936       4.70859909       0.12964020      -0.85445209      -0.14531743
Si       5.40645406      -0.10412073       7.49389819       0.10817584      -0.07300152      -0.06391696
Si       5.40645406      -1.20268188       5.23044967       0.10817584       0.09185448      -0.03126269
Si       5.40645406       1.30680261       5.41079206       0.10817584      -0.01885295       0.09517966
Si       1.48721113       4.94692138       0.41940755      -0.20468625       0.28720015       0.53822223
Si       1.48721113       7.63364963       4.07445582      -0.20468625      -0.60971419      -0.02038849
Si       1.48721113       3.12492085       4.57370660      -0.20468625       0.32251405      -0.51783373
Si      -0.05524546      -0.22996848       7.47768748      -0.10601141       0.22611743      -0.21161283
Si      -0.05524546      -1.12571913       5.12956767      -0.10601141       0.07020337       0.30162985
Si      -0.05524546       1.35568760       5.52788476      -0.10601141      -0.29632080      -0.09001702
Si       1.48466728      -5.23516395       9.06756995      -0.00001785      -0.00000000      -0.00000000
Si       1.30712894       5.23516395       3.02252332       0.22095930       0.00000000      -0.00000000
20
Lattice="7.982113223554648 -1.51724978226936e-14 -2.627953710663281e-14 1.947306699817854e-14 10.43299315297444 -5.717381928211545e-14 1.9473066998178496e-14 -5.216496576487169 9.035237107984996" Properties=species:S:1:pos:R:3:forces:R:3 unique_starting_index=346 config_type=initial n_minim_iter=8 energy=-3243.948275570094 stress="-0.0007428345115442981 -7.537230391764008e-13 1.3127265503933662e-12 -7.537230391764008e-13 0.0007934999316004895 4.700295410296903e-12 1.3127265503933662e-12 4.700295410296903e-12 0.0007934999408583535" free_energy=-3243.948275570094 pbc="T T T"
Si       2.90232926      -1.27060578       5.23403213       0.15001603       0.13800788       0.09363589
Si       2.90232926       1.31899468       5.31784417       0.15001603      -0.15009500       0.07270039
Si       2.90232926      -0.04838890       7.51859793       0.15001603       0.01208712      -0.16633628
Si       5.51565359      -3.27403503       6.28814613       0.02249401       0.01171452      -0.25698368
Si       5.51565359       1.40781981       3.05576654       0.02249401       0.21669714       0.13863691
Si       5.51565359       1.86621522       8.72656156       0.02249401      -0.22841166       0.11834677
Si       3.90166128       2.85081411       3.79507356       0.19659771       0.36636951      -0.63568524
Si       3.90166128       0.50445942       9.60657777       0.19659771       0.36733481       0.63512792
Si       3.90166128      -3.35527352       4.66882290       0.19659771      -0.73370432       0.00055732
Si       5.44891692      -0.11661585       7.47642594      -0.06925023      -0.02373633      -0.10308289
Si       5.44891692      -1.19997029       5.19603185      -0.06925023       0.10114056       0.03098518
Si       5.44891692       1.31658614       5.39801643      -0.06925023      -0.07740423       0.07209771
Si       1.50087144       4.95807753       0.41797579      -0.39386999       0.29312660       0.25976125
Si       1.50087144       7.59197674       4.08483320      -0.39386999      -0.37152315       0.12397446
Si       1.50087144       3.09943546       4.53242813      -0.39386999       0.07839655      -0.38373571
Si      -0.07818618      -0.15394837       7.46029818       0.01586508       0.00029224       0.01099744
Si      -0.07818618      -1.16733698       5.17176482       0.01586508      -0.00967018      -0.00524563
Si      -0.07818618       1.32128535       5.43841123       0.01586508       0.00937794      -0.00575181
Si       1.49433256      -5.21649658       9.03523711      -0.00026417       0.00000000       0.00000000
Si       1.32344770       5.21649658       3.01174571       0.23470635      -0.00000000       0.00000000
20
Lattice="8.043239215353283 -1.5396038287201012e-14 -2.6666720548707404e-14 1.9243933270448302e-14 10.391707218885882 -7.51808818517652e-14 1.9243933270448772e-14 -5.195853609442876 8.999482440245341" Properties=species:S:1:pos:R:3:forces:R:3 unique_starting_index=346 config_type=initial n_minim_iter=9 energy=-3244.040129194965 stress="0.00017790462873066006 -2.5646989977857824e-13 -3.3502677409850767e-13 -2.5646989977857824e-13 1.3597699694631185e-05 -1.2318205154496238e-13 -3.3502677409850767e-13 -1.2318205154496238e-13 1.359769300423935e-05" free_energy=-3244.040129194965 pbc="T T T"
Si       2.95988105      -1.29321743       5.21151852       0.24783232       0.09587461       0.04914156
Si       2.95988105       1.32915489       5.27376404       0.24783232      -0.09049514       0.05845906
Si       2.95988105      -0.03593747       7.51368233       0.24783232      -0.00537946      -0.10760062
Si       5.53889898      -3.26782383       6.24234704       0.13233391       0.06354111      -0.16047770
Si       5.53889898       1.42373441       3.04829047       0.13233391       0.10720721       0.13526707
Si       5.53889898       1.84408942       8.70832738       0.13233391      -0.17074832       0.02521063
Si       3.93650188       2.88080729       3.75410309       0.07296720      -0.07977258      -0.30363314
Si       3.93650188       0.50430132       9.61728320       0.07296720       0.30284030       0.08273148
Si       3.93650188      -3.38510862       4.62757860       0.07296720      -0.22306772       0.22090165
Si       5.49695185      -0.13059153       7.45258404      -0.26429098       0.04155992      -0.09878296
Si       5.49695185      -1.19297773       5.16009484      -0.26429098       0.06476860       0.08538343
Si       5.49695185       1.32356926       5.38628601      -0.26429097      -0.10632852       0.01339954
Si       1.50218545       4.97852064       0.42809779      -0.26756300       0.30918157      -0.47542969
Si       1.50218545       7.53170334       4.09747646      -0.26756300       0.25714340       0.50547394
Si       1.50218545       3.07733685       4.47390820      -0.26756300      -0.56632497      -0.03004426
Si      -0.10193939      -0.07843296       7.43904920       0.04728882      -0.22540671       0.34055384
Si      -0.10193939      -1.20733549       5.21203292       0.04728881      -0.18222492      -0.36548486
Si      -0.10193939       1.28576845       5.34788278       0.04728881       0.40763163       0.02493102
Si       1.50581926      -5.19585361       8.99948245       0.00002651      -0.00000000      -0.00000000
Si       1.35073096       5.19585361       2.99982749       0.09426866      -0.00000000       0.00000000
20
Lattice="8.087930556133733 -1.562504143373355e-14 -2.7063365633595216e-14 1.899863140206498e-14 10.368608920097252 -9.009568356252817e-14 1.899863140206603e-14 -5.1843044600485495 8.979478726710195" Properties=species:S:1:pos:R:3:forces:R:3 unique_starting_index=346 config_type=initial n_minim_iter=10 energy=-3244.1402329996267 stress="0.0007842262392213375 4.036803681013905e-13 -3.0232560274266077e-12 4.036803681013905e-13 -0.0008119577343410723 -2.304198304075658e-12 -3.0232560274266077e-12 -2.304198304075658e-12 -0.0008119577277417349" free_energy=-3244.1402329996267 pbc="T T T"
Si       3.01753354      -1.29803102       5.20453354       0.23420244      -0.23146508      -0.11735175
Si       3.01753354       1.32606171       5.25308413       0.23420244       0.21736214      -0.14177877
Si       3.01753354      -0.02803069       7.50133980       0.23420244       0.01410295       0.25913052
Si       5.56671261      -3.26149091       6.20691173       0.13082934       0.01795496      -0.03094139
Si       5.56671261       1.43970669       3.05148889       0.13082934       0.01781855       0.03102015
Si       5.56671261       1.82178423       8.70055686       0.13082934      -0.03577351      -0.00007875
Si       3.96723031       2.89643999       3.71286819      -0.28209404      -0.13733463      -0.12156631
Si       3.96723031       0.52064629       9.63143525      -0.28209404       0.17394682      -0.05815213
Si       3.96723031      -3.41708628       4.61465403      -0.28209404      -0.03661220       0.17971843
Si       5.51434559      -0.13774658       7.43429051      -0.07257054       0.04750649      -0.05001656
Si       5.51434559      -1.18510668       5.14304144      -0.07257054       0.01956236       0.06615011
Si       5.51434559       1.32285326       5.38162552      -0.07257054      -0.06706886      -0.01613355
Si       1.48385517       5.01048049       0.41181765       0.33009475       0.37618548      -0.23829375
Si       1.48385517       7.50672413       4.13329457       0.33009475       0.01827570       0.44493306
Si       1.48385517       3.03570876       4.43436651       0.33009475      -0.39446118      -0.20663931
Si      -0.11566654      -0.04234755       7.44815788      -0.32324726      -0.28732968       0.01896402
Si      -0.11566654      -1.24481570       5.21872574      -0.32324726       0.12724152      -0.25831681
Si      -0.11566654       1.28716324       5.29207385      -0.32324726       0.16008816       0.23935280
Si       1.51420789      -5.18430446       8.97947873       0.00000000       0.00000000       0.00000000
Si       1.37587797       5.18430446       2.99315958      -0.05164406      -0.00000000       0.00000000
20
Lattice="8.126405048235082 -1.5872462813293008e-14 -2.7491912033871404e-14 1.873219900444597e-14 10.356393754779964 -9.302735015519548e-14 1.8732199004447596e-14 -5.178196877389903 8.968900083233995" Properties=species:S:1:pos:R:3:forces:R:3 unique_starting_index=346 config_type=initial n_minim_iter=11 energy=-3244.236250238982 stress="0.0005392832251380516 1.0114455337461598e-12 -3.4417672134991063e-12 1.0114455337461598e-12 -1.0973285903889339e-05 -7.641048514727797e-13 -3.4417672134991063e-12 -7.641048514727797e-13 -1.0973293051042446e-05" free_energy=-3244.236250238982 pbc="T T T"
Si       3.08461113      -1.33101133       5.18883322       0.19548444      -0.20060505      -0.01474000
Si       3.08461113       1.35004116       5.22179385       0.19548444       0.11306774      -0.16635907
Si       3.08461113      -0.01902983       7.52717311       0.19548444       0.08753731       0.18109907
Si       5.59165790      -3.25705045       6.16269321       0.15626841      -0.05909253       0.13897036
Si       5.59165790       1.46967323       3.06686506       0.15626841      -0.09080560      -0.12066081
Si       5.59165790       1.78737722       8.70824191       0.15626841       0.14989813      -0.01830955
Si       3.98566304       2.92795194       3.64011848      -0.52763054      -0.18046634       0.05538570
Si       3.98566304       0.56178583       9.68452161      -0.52763054       0.04226774      -0.18398128
Si       3.98566304      -3.48973777       4.61316009      -0.52763054       0.13819859       0.12859558
Si       5.52305483      -0.14260220       7.41639067       0.18469999       0.02379795       0.04302739
Si       5.52305483      -1.17328474       5.13720763       0.18469999      -0.04916179      -0.00090406
Si       5.52305483       1.31588694       5.38420189       0.18469999       0.02536384      -0.04212333
Si       1.47424051       5.07571848       0.38280860       0.77960735       0.39241018       0.28924481
Si       1.47424051       7.48701255       4.20429686       0.77960735      -0.44669844       0.19521479
Si       1.47424051       2.97185960       4.38179464       0.77960735       0.05428826      -0.48445959
Si      -0.14071716      -0.01336570       7.46133458      -0.69260843      -0.29782489      -0.19770901
Si      -0.14071716      -1.27682556       5.22665777      -0.69260843       0.32013347      -0.15906941
Si      -0.14071716       1.29019126       5.24980784      -0.69260843      -0.02230858       0.35677842
Si       1.52147751      -5.17819688       8.96890009       0.00000000       0.00000000       0.00000000
Si       1.40620213       5.17819688       2.98963337      -0.28746366       0.00000000      -0.00000000
20