8
Lattice="7.8406556903915 0.15124236988536666 0.2164947899720988 -3.69453425458023 6.9173096324691485 -0.21649478997209615 -3.694534701526994 -2.5831861543651473 6.420528680327756" Properties=species:S:1:pos:R:3:forces:R:3 unique_starting_index=16 config_type=initial n_minim_iter=1 energy=-1299.3414571415346 stress="0.00013020236893089188 -0.0009041956549352702 -0.0012943010326931027 -0.0009041956549352702 -0.0008809597102960844 0.0007591836703471974 -0.0012943010326931027 0.0007591836703471974 -0.0003245984308768322" free_energy=-1299.3414571415346 pbc="T T T"
Si      -2.10976851       1.23997644       3.72972073      -0.48896634       0.28680751       0.05357708
Si       4.12888124       2.33088951       1.38175802      -0.19641587       0.11520946       0.52188573
Si       2.56182579       1.41462709       3.97972284       0.48896635       0.04837018      -0.28773141
Si      -3.67682378       3.99457910       3.76322805       0.19641585      -0.45038715      -0.28773141
Si       2.56182588       3.25005963       2.69749409       0.48896634      -0.28680751      -0.05357708
Si      -3.67682386       2.15914656       5.04545680       0.19641587      -0.11520946      -0.52188573
Si       4.12888115       0.49545697       2.66398677      -0.19641585       0.45038715       0.28773141
Si      -2.10976842       3.07540898       2.44749198      -0.48896635      -0.04837018       0.28773141
8
Lattice="7.839197291305471 0.16900486653496857 0.24192072445711718 -3.678319000109801 6.924705491958113 -0.24192072445711454 -3.678319448647335 -2.6096044135837366 6.41872520771473" Properties=species:S:1:pos:R:3:forces:R:3 unique_starting_index=16 config_type=initial n_minim_iter=2 energy=-1299.354033653135 stress="-0.0003855749153874243 0.0014365992802138862 0.0020564044070612965 0.0014365992802138862 0.001220974179692212 -0.0012062021184621094 0.0020564044070612965 -0.0012062021184621094 0.00033701924609352195" free_energy=-1299.354033653135 pbc="T T T"
Si      -2.09758408       1.23283836       3.72392108      -0.28932531       0.16970631      -0.19002200
Si       4.13598649       2.34363772       1.39558824       0.06549018      -0.03841384       0.37795918
Si       2.58064572       1.41635560       3.98661518       0.28932533       0.23680897      -0.09396859
Si      -3.65292467       3.98471803       3.74469445      -0.06549020      -0.36810143      -0.09396859
Si       2.58064581       3.25593649       2.70148840       0.28932531      -0.16970631       0.19002200
Si      -3.65292476       2.14513713       5.02982124      -0.06549018       0.03841384      -0.37795918
Si       4.13598640       0.50405682       2.68071502       0.06549020       0.36810143       0.09396859
Si      -2.09758399       3.07241925       2.43879430      -0.28932533      -0.23680897       0.09396859
8
Lattice="7.844267639591079 0.15656430162928975 0.22411281210981857 -3.6916519252754036 6.923059529188732 -0.22411281210981587 -3.6916523729222432 -2.5923173619559052 6.423306561813149" Properties=species:S:1:pos:R:3:forces:R:3 unique_starting_index=16 config_type=initial n_minim_iter=3 energy=-1299.3681106317024 stress="-0.001040634688781768 0.00011151454615726074 0.00015962628438027007 0.00011151454615726074 -0.0009159279621596482 -9.36302030216329e-05 0.00015962628438027007 -9.36302030216329e-05 -0.000984544059067193" free_energy=-1299.3681106317024 pbc="T T T"
Si      -2.11594251       1.24360173       3.72906070       0.00059136      -0.00034687       0.01812657
Si       4.13111300       2.33702487       1.39638984      -0.01467095       0.00860538      -0.00630502
Si       2.57738616       1.41843675       3.97932674      -0.00059136      -0.01713930      -0.00591078
Si      -3.66966917       3.98489406       3.75521392       0.01467096       0.00888080      -0.00591078
Si       2.57738625       3.24837698       2.70093490      -0.00059136       0.00034687      -0.01812657
Si      -3.66966925       2.15495383       5.03360576       0.01467095      -0.00860538       0.00630502
Si       4.13111291       0.50708465       2.67478168      -0.01467095      -0.00888079       0.00591078
Si      -2.11594242       3.07354195       2.45066887       0.00059136       0.01713930       0.00591078
8
Lattice="7.84946681709968 0.15576589795995183 0.22296994612374424 -3.6948861884945927 6.927207834458863 -0.22296994612374163 -3.694886636353247 -2.592671495945476 6.427594821019821" Properties=species:S:1:pos:R:3:forces:R:3 unique_starting_index=16 config_type=initial n_minim_iter=4 energy=-1299.3684471945444 stress="1.6405750092225284e-05 -9.895640670118224e-06 -1.4165006961119226e-05 -9.895640670118224e-06 5.3394549114942445e-06 8.308609825070894e-06 -1.4165006961119226e-05 8.308609825070894e-06 1.1428347389382163e-05" free_energy=-1299.3684471945444 pbc="T T T"
Si      -2.11827085       1.24496861       3.73181391      -0.00711611       0.00417402       0.01542267
Si       4.13333099       2.33797628       1.39695512      -0.01485895       0.00871565       0.00302810
Si       2.57844383       1.41932079       3.98138878       0.00711611      -0.01304505      -0.00922539
Si      -3.67315783       3.98768951       3.75841884       0.01485895       0.00015539      -0.00922539
Si       2.57844392       3.25000899       2.70247442       0.00711611      -0.00417402      -0.01542267
Si      -3.67315792       2.15700131       5.03733320       0.01485895      -0.00871565      -0.00302810
Si       4.13333090       0.50728808       2.67586949      -0.01485895      -0.00015539       0.00922539
Si      -2.11827076       3.07565680       2.45289954      -0.00711611       0.01304505       0.00922539
8
Lattice="7.849914111164366 0.15443511545176836 0.22106501186084013 -3.696266021602087 6.926948769486605 -0.2210650118608376 -3.6962664693602147 -2.590793724507021 6.428006966513769" Properties=species:S:1:pos:R:3:forces:R:3 unique_starting_index=16 config_type=initial n_minim_iter=5 energy=-1299.3685106706275 stress="-3.709713083917328e-05 7.183153870397094e-05 0.00010282247410206841 7.183153870397094e-05 4.323208235654659e-05 -6.0311428809456536e-05 0.00010282247410206841 -6.0311428809456536e-05 -9.66631655872244e-07" free_energy=-1299.3685106706275 pbc="T T T"
Si      -2.12007383       1.24602560       3.73317926       0.01601135      -0.00939160       0.00944643
Si       4.13209633       2.33763151       1.39660928      -0.00274779       0.00161174      -0.02058282
Si       2.57793203       1.41869068       3.98033914      -0.01601135      -0.01210092       0.00556820
Si      -3.67423795       3.98818385       3.75927413       0.00274779       0.01988078       0.00556820
Si       2.57793212       3.24924021       2.70152164      -0.01601135       0.00939160      -0.00944643
Si      -3.67423804       2.15763431       5.03809162       0.00274779      -0.00161174       0.02058282
Si       4.13209624       0.50708197       2.67542677      -0.00274779      -0.01988078      -0.00556820
Si      -2.12007374       3.07657514       2.45436176       0.01601135       0.01210092      -0.00556820
8
Lattice="7.861608543032344 0.06327020059543377 0.09056797683471637 -3.7815441067692146 6.8926639386177575 -0.09056797683471413 -3.781544546595116 -2.456467674346129 6.440712846230595" Properties=species:S:1:pos:R:3:forces:R:3 unique_starting_index=16 config_type=initial n_minim_iter=6 energy=-1299.4197931599285 stress="0.003479395845386152 0.0018550816152746608 0.002655436390609154 0.0018550816152746608 0.005553933773784373 -0.0015575696037676626 0.002655436390609154 -0.0015575696037676626 0.004412482172402974" free_energy=-1299.4197931599285 pbc="T T T"
Si      -2.20597167       1.29636585       3.80457146       0.18799805      -0.11027191       0.19986855
Si       4.05843938       2.29648631       1.33837920      -0.10516353       0.06168459      -0.26941834
Si       2.50480272       1.37786207       3.92122866      -0.18799806      -0.22560592       0.03477489
Si      -3.75960815       4.03758852       3.83066068       0.10516354       0.27419324       0.03477489
Si       2.50480281       3.20778552       2.64284854      -0.18799805       0.11027191      -0.19986855
Si      -3.75960824       2.20766506       5.10904080       0.10516352      -0.06168459       0.26941834
Si       4.05843929       0.46656285       2.61675932      -0.10516354      -0.27419324      -0.03477489
Si      -2.20597158       3.12628930       2.52619134       0.18799806       0.22560592      -0.03477489
