16
Lattice="5.725411025449617 0.6190919096056198 0.8792194242223086 2.628708279974341 4.960394123096481 1.3985100969750808 4.39257715787779 3.2381516895453806 14.149236282377478" Properties=species:S:1:pos:R:3:forces:R:3 unique_starting_index=3 config_type=initial n_minim_iter=1 energy=-2600.672129691765 stress="0.00019962065774634506 9.387557286612199e-05 0.0002736688245996187 9.387557286612199e-05 0.00024042618110139068 -0.00031837611623911294 0.0002736688245996187 -0.00031837611623911294 -0.00011599355322102444" free_energy=-2600.672129691765 pbc="T T T"
Si       7.36144651       6.00142654       9.17359076       0.39959543      -0.32219009      -0.05178734
Si       7.38537256       5.07909894      14.43661297      -0.11951887       0.06764651      -0.04868835
Si       2.22435115       2.90499549       4.18801931      -0.12480432       0.92640531      -0.35985498
Si       5.67655152       2.79478424       2.53644351      -0.28972724       0.29877124      -0.07113190
Si       6.64843072       2.10258857       6.48369096      -0.28387289       0.68723240      -0.57960662
Si       8.56793209       3.72227870       8.47607880       0.20731345       0.75531104      -0.69950823
Si       4.64772272       3.28671053       4.54649966       0.04579536      -0.76590635       0.03113518
Si       7.60029381       3.97587556       2.70612270       0.62618021      -0.39271648      -0.15827889
Si       4.44014132       3.23675515       9.24301070      -0.30062940       0.14623638      -0.03367318
Si       6.67958065       3.03921864       9.46333567       0.14269854      -0.03027462       0.29993584
Si       9.10499949       5.71872464      11.17429156      -0.20963336      -0.29890565       0.46735246
Si       3.45717839       1.73597701       5.81570927      -0.10023794      -0.72986508       0.15606873
Si       6.03091395       7.12842375      12.50345727       0.43800570      -0.30459090       0.50832503
Si       4.98021598       4.12051901      11.90510489      -0.29473522      -0.26294596       0.34838272
Si       7.30176917       4.38365694      12.15645548      -0.13295498      -0.04630592       0.22064987
Si       5.24142086       1.28845829       0.78682605      -0.00347447       0.27209818      -0.02932036
16
Lattice="5.662127639436165 0.6008987437782212 0.8231008545127222 2.567888265846528 4.9169805439631205 1.4440224616313655 4.168732128689353 3.3852913192042187 14.217009528706841" Properties=species:S:1:pos:R:3:forces:R:3 unique_starting_index=3 config_type=initial n_minim_iter=2 energy=-2601.2965351848616 stress="0.0038050796280857204 0.002390306911036802 -0.0032413410995941554 0.002390306911036802 0.0031944328353178497 -0.001331021117650322 -0.0032413410995941554 -0.001331021117650322 -0.00398202255931812" free_energy=-2601.2965351848616 pbc="T T T"
Si       7.21165609       5.99556376       9.20985989       0.38264870      -0.08481788       0.10294591
Si       7.10896195       5.20694949      14.48955785      -0.11484901       0.11220422      -0.21000616
Si       2.12598821       3.04148007       4.17968382       0.47127315       0.10054236       0.19307054
Si       5.54743721       2.81536810       2.51225126      -0.09428247       0.34825959      -0.12326785
Si       6.46712914       2.23052909       6.39395307      -0.43698905       0.45515853      -0.30396880
Si       8.40159551       3.86142125       8.38036122      -0.40983464       0.10932097      -0.73652778
Si       4.54428170       3.19938845       4.56322324      -0.00054697      -0.29641602      -0.01105852
Si       7.56457585       3.88974026       2.66218551       0.12584481       0.01508843      -0.20640782
Si       4.23714086       3.33319316       9.28041059       0.19755078       0.05055960       0.01624799
Si       6.51124867       3.10932533       9.51402702       0.30390089       0.29074450       0.06194962
Si       8.83841273       5.74095184      11.26415036       0.04127658       0.11967492       0.03197535
Si       3.33642100       1.69274449       5.84822166      -0.73932504      -0.28677339       0.03955581
Si       5.85156546       7.16654198      12.66190333       0.36607714      -0.28190240       0.41479022
Si       4.73682166       4.19160238      12.01123357       0.05852017      -0.29319877       0.35449648
Si       7.05463937       4.47299145      12.22307107      -0.23604109      -0.46090553       0.23967545
Si       5.18012475       1.29853224       0.74224675       0.08477604       0.10246088       0.13652956
16
Lattice="5.552662720071828 0.5391882242792551 0.8774417893480796 2.4720140357023506 4.821135418758517 1.546832774180856 4.126197065780642 3.4625892474534563 14.539907075939793" Properties=species:S:1:pos:R:3:forces:R:3 unique_starting_index=3 config_type=initial n_minim_iter=3 energy=-2601.525641894659 stress="-0.00706744193053715 7.592712816685646e-06 0.0005629421796550916 7.592712816685646e-06 -0.0020380736727733935 0.0011711244781612254 0.0005629421796550916 0.0011711244781612254 0.0019176433355687845" free_energy=-2601.525641894659 pbc="T T T"
Si       7.08833939       5.90605333       9.48910102       0.24065642       0.22324305      -0.03071953
Si       6.98246164       5.22951352      14.85135349      -0.32048277       0.00384608      -0.48560719
Si       2.06918664       3.08270166       4.28350299       0.74964574      -0.03700535      -0.00133256
Si       5.40296048       2.76205585       2.61881607      -0.43323744       0.00893203      -0.32390069
Si       6.32860404       2.25409560       6.53029973      -0.59842341       0.11385429       0.07748234
Si       8.25289300       3.86077056       8.57023153      -0.02746721      -0.15882040      -0.74919950
Si       4.45045835       3.09629887       4.71219873       0.17865134       0.23904846      -0.35473959
Si       7.43700695       3.74514416       2.78720931       0.41618807       0.25349047       0.24098773
Si       4.14944359       3.35822090       9.51210485       0.00770457       0.07468275      -0.28429857
Si       6.41588066       3.10706257       9.78412368       0.20913180       0.53155397       0.17253138
Si       8.65201127       5.66996625      11.62369481       0.54544563       0.19303233      -0.32588015
Si       3.27090403       1.64890598       6.00442190      -1.18213391      -0.54367602       0.54810520
Si       5.76103283       7.11580776      13.05466109       0.25215023      -0.39831996       0.38231952
Si       4.64350377       4.20019502      12.33650580       0.07995827      -0.14526957       0.27681575
Si       6.92335295       4.46681759      12.55854194      -0.33382530      -0.69306366       0.60656245
Si       5.07190679       1.24858833       0.80122997       0.21603797       0.33447152       0.25087340
16
Lattice="5.601517944929361 0.4931802063406881 0.891785219888821 2.456085305105637 4.776698958620155 1.5911635139380627 4.149975494967899 3.4978634524136427 14.665687663766446" Properties=species:S:1:pos:R:3:forces:R:3 unique_starting_index=3 config_type=initial n_minim_iter=4 energy=-2601.636904274037 stress="0.01035989642501151 -0.0012409621275035563 0.0031564541289046052 -0.0012409621275035563 -0.0003237129451422972 0.0007959552417402605 0.0031564541289046052 0.0007959552417402605 0.00665909501306227" free_energy=-2601.636904274037 pbc="T T T"
Si       7.14502476       5.84704792       9.59523804       0.14026216       0.33549456      -0.10385892
Si       7.00721295       5.23482050      14.98348907      -0.00865714      -0.10723054      -0.46261730
Si       2.06879368       3.12737785       4.31489380       0.93849951      -0.29298409       0.15348865
Si       5.40996769       2.73453880       2.65134987      -0.09201271       0.06929606      -0.32728440
Si       6.34807350       2.27223608       6.55790861      -0.52475819      -0.05774941       0.25891827
Si       8.31537730       3.86153034       8.60331063      -0.04336959      -0.34061777      -0.46809961
Si       4.47663185       3.02040992       4.76508640       0.00481619       0.40787604      -0.33780183
Si       7.52266221       3.65054512       2.82690697      -0.06245103       0.30825504       0.40903005
Si       4.15229927       3.37139489       9.59815734       0.15081122      -0.10485410      -0.25815487
Si       6.47260261       3.09986383       9.89907904       0.01484669       0.75783680       0.01912502
Si       8.69001396       5.61739967      11.77451280       0.75748660       0.12525877      -0.47486010
Si       3.27145952       1.59808405       6.07384460      -1.23605997      -0.27145630       0.47460295
Si       5.80064104       7.07830040      13.23491530       0.23169173      -0.40501029       0.23986120
Si       4.64710969       4.19337692      12.48034494       0.25690838       0.02340831       0.13072109
Si       6.95012896       4.44641058      12.70202911      -0.42400146      -0.77271926       0.50153668
Si       5.11208092       1.22194615       0.82199133      -0.10401238       0.32519618       0.24539313
16
Lattice="5.541957276955393 0.47925584276035627 0.8632464991969679 2.4130587515700928 4.75943719411888 1.581475012529181 4.040480366600547 3.507634264820959 14.563711357711417" Properties=species:S:1:pos:R:3:forces:R:3 unique_starting_index=3 config_type=initial n_minim_iter=5 energy=-2601.7124375205453 stress="0.00095308354119333 -0.0019488151022023176 0.001831092170276436 -0.0019488151022023176 -0.003930442039157399 -0.0005066316833311169 0.001831092170276436 -0.0005066316833311169 -0.0038205680157547017" free_energy=-2601.7124375205453 pbc="T T T"
Si       7.03714806       5.82280684       9.51518552       0.11548888       0.33072441      -0.03064646
Si       6.85807538       5.23470443      14.86392394      -0.06639820      -0.11201372      -0.40470488
Si       2.02773633       3.14960815       4.27622444       0.87296314      -0.32584034       0.20503568
Si       5.32669096       2.72932148       2.61200567      -0.04015799       0.09871094      -0.40206290
Si       6.23689692       2.28686190       6.47652836      -0.56426284      -0.08541725       0.37015691
Si       8.19360305       3.86757004       8.48989165      -0.09103298      -0.43423913      -0.44029998
Si       4.40859736       2.98703231       4.71944299       0.02983937       0.51287774      -0.25281481
Si       7.45086256       3.61577237       2.78162261      -0.10641049       0.50680176       0.44278790
Si       4.05550996       3.37566406       9.52408104       0.17477206      -0.13228118      -0.15783250
Si       6.36745265       3.10101778       9.82796030       0.06359023       0.68326928       0.04324958
Si       8.54190474       5.59577355      11.68764354       0.75620948       0.30421647      -0.59863239
Si       3.19393212       1.57073482       6.03515659      -1.23751428      -0.19938425       0.30519820
Si       5.68940259       7.05600576      13.16428837       0.13278458      -0.49318852       0.13389671
Si       4.53219231       4.18582568      12.40664778       0.35627165       0.08539872       0.08046398
Si       6.81038049       4.43308196      12.61626063      -0.32195267      -0.87986074       0.39369820
Si       5.05613273       1.21912573       0.80031948      -0.07418997       0.14022581       0.31250679
16
Lattice="5.479269358736699 0.5034116959616359 0.8306598318973283 2.3888188095212066 4.815829398248963 1.5966398201877467 3.8963367920842495 3.609221873038142 14.68219314449377" Properties=species:S:1:pos:R:3:forces:R:3 unique_starting_index=3 config_type=initial n_minim_iter=6 energy=-2601.7924964990657 stress="-0.0035453806293436387 0.0001632391782589666 -0.003696655229371982 0.0001632391782589666 0.005087977803980678 -0.0010233022247858748 -0.003696655229371982 -0.0010233022247858748 0.0046568317563837865" free_energy=-2601.7924964990657 pbc="T T T"
Si       6.92204990       5.92957096       9.57079091       0.12034964       0.31106832      -0.01624373
Si       6.68155071       5.36192213      14.95977367      -0.37077854       0.07682194      -0.37708233
Si       1.99529150       3.22163906       4.30656190       0.59162288      -0.44969939       0.20714993
Si       5.24795532       2.79063348       2.59738474      -0.13584940       0.09729112      -0.25503268
Si       6.10938307       2.37228372       6.48635631      -0.55150465      -0.05447090       0.34988742
Si       8.05717863       3.97395360       8.48791734      -0.14973366      -0.48354461      -0.36155818
Si       4.33749509       3.03043719       4.73615746       0.15334174       0.29148233      -0.20828052
Si       7.38013520       3.67760523       2.76620432      -0.05331759       0.55769252       0.42414729
Si       3.94457412       3.45880887       9.59022724      -0.03091262      -0.12614923       0.01279882
Si       6.24054301       3.19880917       9.89400078       0.29338385       0.43042235       0.00230432
Si       8.38528128       5.71405608      11.75692210       0.54222353       0.32850794      -0.62967276
Si       3.09256589       1.59398029       6.08496319      -1.01619366       0.10804442       0.08350529
Si       5.56518987       7.17225738      13.29077929       0.14372180      -0.29514783       0.06472813
Si       4.39805142       4.27874560      12.51816877       0.08401669      -0.02712921       0.17737408
Si       6.64495929       4.52772235      12.71466608       0.18409629      -0.72261598       0.26427235
Si       5.00076871       1.26033850       0.77968820       0.19553369      -0.04257378       0.26170258
16
Lattice="5.471355737862989 0.5602380726925077 0.8735935893813159 2.4345303611740094 4.8189182014658325 1.66202991657383 4.017438125234783 3.789535909595367 14.6273095156274" Properties=species:S:1:pos:R:3:forces:R:3 unique_starting_index=3 config_type=initial n_minim_iter=7 energy=-2601.990891434066 stress="-0.007677222372204929 0.0051947895284124085 -0.00038613625622018594 0.0051947895284124085 -0.0022215713034248923 0.0012433110847942538 -0.00038613625622018594 0.0012433110847942538 -0.008010426185067776" free_energy=-2601.990891434066 pbc="T T T"
Si       7.03798199       6.06649625       9.61321875      -0.08054003       0.13831900       0.08389720
Si       6.79720965       5.55684252      14.91944654      -0.35690056       0.20841658      -0.01858724
Si       2.08809799       3.27177880       4.32515489       0.38199892      -0.49134505       0.35257170
Si       5.25835712       2.86140866       2.62984019       0.31634148       0.25788353      -0.30757524
Si       6.11475609       2.50752932       6.50910611      -0.48342302       0.04119554       0.16790948
Si       8.12316231       4.11307338       8.47319133       0.02025840      -0.38107965       0.06432838
Si       4.38847495       3.09957463       4.75238448       0.10576558       0.14101968       0.17360153
Si       7.42246556       3.76595834       2.86666329      -0.28543792       0.17910467       0.23262431
Si       4.02708529       3.57913793       9.57070550      -0.05060728      -0.18672113      -0.17134500
Si       6.32967674       3.38058806       9.90968091       0.25004766       0.35548572       0.10654536
Si       8.51927114       5.88960585      11.77080787       0.13539600       0.25571623      -0.43082197
Si       3.07001840       1.65692677       6.09660684      -0.71136704       0.22736573      -0.14068727
Si       5.72585075       7.29354872      13.33032711       0.10242387      -0.10650338       0.06751805
Si       4.51231134       4.42546402      12.51566302      -0.03639649      -0.07259982      -0.18696426
Si       6.73860540       4.65967550      12.73847080       0.70967717      -0.56641033      -0.15549966
Si       5.00329990       1.32194034       0.84660569      -0.01723675       0.00015268       0.16248462
16
Lattice="5.5025761700866935 0.4406735260358226 0.8899948614509251 2.3585197977556067 4.7592082275906025 1.6439197142179203 4.034688168916917 3.6277630550443054 14.608456619681993" Properties=species:S:1:pos:R:3:forces:R:3 unique_starting_index=3 config_type=initial n_minim_iter=8 energy=-2602.1787119201585 stress="-0.0014010559216136595 -0.000958460048465295 0.0018997949127850628 -0.000958460048465295 0.00048461438683596893 -0.0026646746099573643 0.0018997949127850628 -0.0026646746099573643 -0.004502679940982056" free_energy=-2602.1787119201585 pbc="T T T"
Si       7.00493901       5.89200416       9.60005584      -0.30563343      -0.13479438       0.21427221
Si       6.78480624       5.33539532      14.87638972      -0.11992253       0.48393757       0.42056257
Si       2.10885929       3.16233807       4.33209043       0.25922144      -0.48271797       0.28726559
Si       5.25210642       2.74077369       2.60753700       0.14067601       0.57545636       0.19250844
Si       6.10078968       2.33770840       6.54294561      -0.36530528       0.32848819      -0.25961479
Si       8.12720528       3.85652146       8.45440123       0.08798101       0.06711827       0.37438187
Si       4.38041737       3.01493361       4.73706852       0.10970796      -0.12083398       0.30463763
Si       7.39022400       3.63127369       2.90563979      -0.02516270      -0.19731432      -0.23468326
Si       4.03513342       3.43125300       9.54545055      -0.07827064      -0.29441100      -0.13294842
Si       6.35837683       3.23508318       9.90828849      -0.00286358       0.25660145       0.17600253
Si       8.55222256       5.66533142      11.71147568      -0.00764500      -0.15858951      -0.03186574
Si       3.00943450       1.57329578       6.10761720      -0.14982484       0.08956948      -0.27491279
Si       5.68249722       7.08439526      13.30243444       0.08525583      -0.04928388       0.05613884
Si       4.52514025       4.26607969      12.49723400      -0.38801650       0.23486346      -0.21703045
Si       6.75577102       4.39944041      12.73947802       1.09288263      -0.53703233      -0.51816508
Si       5.01594385       1.21781954       0.87812903      -0.33308038      -0.06105741      -0.35654912
16
Lattice="5.5195881543259375 0.4324986580624034 0.8565653700393836 2.348510862927627 4.72689741429858 1.6834162533781232 3.935568156977644 3.7393773978242204 14.692231487044225" Properties=species:S:1:pos:R:3:forces:R:3 unique_starting_index=3 config_type=initial n_minim_iter=9 energy=-2602.2455405484393 stress="0.0010768349285259983 -0.0014743018050095234 -0.0019263756769623158 -0.0014743018050095234 -0.0032843410435382456 0.0028253383590744097 -0.0019263756769623158 0.0028253383590744097 0.0014219326976865237" free_energy=-2602.2455405484393 pbc="T T T"
Si       6.95059508       5.92775145       9.66081992      -0.35452695      -0.22019652       0.35915499
Si       6.68548558       5.43496878      14.95629997      -0.16637228       0.43448769       0.26981582
Si       2.10141802       3.15704832       4.37981699       0.08329011      -0.36409110      -0.07254614
Si       5.25179656       2.74013896       2.60487546       0.01004643       0.46477826       0.36982293
Si       6.05619975       2.37527290       6.55896372      -0.41149624       0.37780832      -0.35615983
Si       8.09243824       3.88128445       8.47244395       0.03173295       0.03999391       0.34408466
Si       4.36214429       3.03273030       4.75965579       0.36500507      -0.17448371       0.13618831
Si       7.39154245       3.61748404       2.90809272       0.06572949      -0.52201313      -0.07371778
Si       3.97577708       3.48341405       9.59340940      -0.08461539      -0.24603996      -0.02957804
Si       6.30897429       3.31142066       9.95016304       0.05865878       0.38620033       0.14138470
Si       8.50501855       5.71794812      11.75084491      -0.10516347      -0.28478973      -0.10513522
Si       2.94617037       1.61862044       6.13503645      -0.06904280       0.03210060      -0.14544569
Si       5.60016244       7.13861577      13.40574546       0.08440874      -0.05476861       0.01714395
Si       4.44103860       4.35097569      12.57152089      -0.20788021       0.32488370       0.05391037
Si       6.69928130       4.45173587      12.79656989       0.96430248      -0.47128635      -0.43634493
Si       5.02575819       1.20576249       0.85761022      -0.26407671       0.27741630      -0.47257810
16
Lattice="5.541677761304816 0.46609907786416105 0.8758417077903544 2.386673325581021 4.762961689638248 1.6957837293915974 4.005374431608519 3.777204608189989 14.755345290997003" Properties=species:S:1:pos:R:3:forces:R:3 unique_starting_index=3 config_type=initial n_minim_iter=10 energy=-2602.388380940837 stress="0.006105202563075175 0.0014040941241674973 0.00020911750140763103 0.0014040941241674973 0.0037203070558343666 0.0032690668955967887 0.00020911750140763103 0.0032690668955967887 0.007792194708031024" free_energy=-2602.388380940837 pbc="T T T"
Si       7.01594633       6.00304763       9.72932575      -0.42130923      -0.23515439       0.31294180
Si       6.75685192       5.51997673      15.03330428      -0.11642839       0.23263715      -0.03188344
Si       2.17805424       3.14097903       4.41599112      -0.29474914      -0.25990578      -0.29919451
Si       5.29287684       2.80999639       2.63187234       0.00998426       0.48147903       0.20586801
Si       6.06494794       2.43277033       6.60367329      -0.40571710       0.43943437      -0.50551292
Si       8.15945907       3.92590832       8.53092902       0.08436476       0.16518490       0.39773084
Si       4.41799981       3.08262861       4.79256587       0.53419235      -0.36681361       0.24301187
Si       7.43498073       3.68147700       2.95023958       0.11390724      -0.42369060       0.02074418
Si       4.03349667       3.50188866       9.62550957       0.02344155      -0.29447960       0.05647303
Si       6.37801328       3.39980552      10.01545807      -0.04710189       0.06945791       0.18880599
Si       8.61611654       5.79120599      11.78426902      -0.20050785      -0.06083021      -0.00760118
Si       2.92891901       1.65070816       6.16427555       0.16484930      -0.13005452      -0.07854615
Si       5.70038256       7.18935540      13.47294548       0.17888560       0.12207861       0.02614005
Si       4.50348262       4.40803074      12.62697654       0.32173613       0.29773100       0.03653768
Si       6.83071149       4.45105279      12.84120148       0.35850903      -0.36345036      -0.34825715
Si       5.03843985       1.24714595       0.86758953      -0.30405663       0.32637612      -0.21725810
16
Lattice="5.530377011002802 0.44301670061294623 0.8488565016517453 2.3662986842420124 4.711608429865756 1.6576845213157065 3.9307728161352467 3.6582377007142513 14.749172369315644" Properties=species:S:1:pos:R:3:forces:R:3 unique_starting_index=3 config_type=initial n_minim_iter=11 energy=-2602.5213280748594 stress="0.004254914833436001 0.002599044566476676 -0.0019491699843542305 0.002599044566476676 0.0015435859344827558 -7.39755806425143e-05 -0.0019491699843542305 -7.39755806425143e-05 0.007827916204286184" free_energy=-2602.5213280748594 pbc="T T T"
Si       6.94517551       5.88379448       9.69822986      -0.34464246      -0.10532612       0.19089966
Si       6.65330537       5.40491947      15.00717279       0.03933345      -0.07854529      -0.23790346
Si       2.18068146       3.06669369       4.39808029      -0.44258422      -0.43735074      -0.30177401
Si       5.26427756       2.79951730       2.59878628      -0.12632459       0.42873124       0.11771197
Si       5.97476024       2.39555871       6.55861356      -0.24399450       0.37319538      -0.34967872
Si       8.10933137       3.83084459       8.48216974      -0.03766243       0.14332396       0.44136088
Si       4.40719168       3.00927675       4.77099623       0.44680146      -0.18670782       0.14614696
Si       7.41647702       3.60790689       2.90203771       0.20015212      -0.18222387       0.17375980
Si       3.97674710       3.39480578       9.59588937       0.20324926      -0.38548821       0.22198736
Si       6.32886786       3.33744290      10.01052380      -0.07100927      -0.03114889       0.17018776
Si       8.55719905       5.65496487      11.71753814      -0.25711563       0.13970576       0.05393573
Si       2.84985723       1.58508410       6.15527413       0.16378060      -0.15183298      -0.11057189
Si       5.64264360       7.02899922      13.45001303       0.14538168       0.08284589      -0.17480974
Si       4.42759749       4.30441380      12.61600307       0.74281845       0.44844803       0.14021357
Si       6.80985756       4.26934363      12.79325682      -0.12832763      -0.31439669      -0.39910468
Si       5.01017690       1.23529543       0.82851778      -0.28985630       0.25677034      -0.08236118
16
Lattice="5.521740473287009 0.39564975591460094 0.846751003191687 2.321764445876582 4.704934872424474 1.6559809097242113 3.9076351788658865 3.648295975995933 14.655359746023686" Properties=species:S:1:pos:R:3:forces:R:3 unique_starting_index=3 config_type=initial n_minim_iter=12 energy=-2602.613865181636 stress="0.0005124681575885062 8.691825505583332e-05 -0.0013136080493227047 8.691825505583332e-05 0.005447825372911674 0.0026439938893562196 -0.0013136080493227047 0.0026439938893562196 0.0009334865214185067" free_energy=-2602.613865181636 pbc="T T T"
Si       6.87719820       5.84787621       9.66339214      -0.36029994      -0.08554190       0.21037469
Si       6.59455983       5.39812549      14.91875390       0.13653522      -0.29171745      -0.38870348
Si       2.17997391       3.02659026       4.37574460      -0.56232555      -0.23017127      -0.27904317
Si       5.23188972       2.80150040       2.59461355      -0.23208221       0.30046862      -0.18349064
Si       5.90728424       2.38400153       6.50685754      -0.00445146       0.24838412      -0.18112270
Si       8.07591243       3.77578603       8.44281006      -0.07900211       0.06420743       0.26030589
Si       4.40260811       2.97723767       4.75467538       0.25213112      -0.11644637       0.02297470
Si       7.38496670       3.54727491       2.89893785       0.36103340       0.10254213       0.06116881
Si       3.95255073       3.35570708       9.52843481       0.33712694      -0.38699701       0.38737409
Si       6.30572550       3.33232231       9.97035209      -0.18924952      -0.21835809       0.28934854
Si       8.51885799       5.60442576      11.63136605      -0.16309128       0.24638510      -0.01723412
Si       2.79912046       1.56427457       6.11292226       0.24839016      -0.18686803       0.12258168
Si       5.60155219       6.99731536      13.37971433       0.13940943       0.12213823      -0.24715276
Si       4.39790029       4.30636024      12.54242329       0.96002902       0.53212113       0.07840952
Si       6.82567101       4.17276263      12.68847086      -0.53796081      -0.29048365      -0.38832163
Si       4.97570520       1.20882852       0.81782519      -0.30619241       0.19033701       0.25253060
16
Lattice="5.527329555259632 0.3773874815565971 0.8498155119747531 2.319802899259877 4.655802246394674 1.6219029615565705 3.928707517786445 3.5156542417894787 14.621516705089103" Properties=species:S:1:pos:R:3:forces:R:3 unique_starting_index=3 config_type=initial n_minim_iter=13 energy=-2602.6751654394116 stress="-0.0011688849994115455 0.0005975553289704251 -0.000467276268679282 0.0005975553289704251 0.0005864265356005211 -0.0011848455335314962 -0.000467276268679282 -0.0011848455335314962 -0.0012945224254518111" free_energy=-2602.6751654394116 pbc="T T T"
Si       6.87387705       5.72878608       9.63197198      -0.27455247       0.01182850       0.09919902
Si       6.61181979       5.25449306      14.87644020       0.17994933      -0.38323399      -0.53035951
Si       2.18824239       2.94773661       4.35197035      -0.44025042      -0.22265480      -0.27445800
Si       5.23590271       2.77307088       2.58277096      -0.28797962       0.31676439      -0.24655559
Si       5.90334060       2.32219481       6.48534140       0.06902788       0.19363603      -0.06066129
Si       8.09044994       3.67437537       8.43564132      -0.06433634       0.11507996       0.23403190
Si       4.42197521       2.91642396       4.74040359      -0.05431977      -0.08699967      -0.02935958
Si       7.39218749       3.48612325       2.88091662       0.38961415       0.19159281       0.14645419
Si       3.97171206       3.24488260       9.50065192       0.39841789      -0.41940110       0.38059468
Si       6.31974252       3.24016660       9.95454702      -0.21708623      -0.17203854       0.36347845
Si       8.53776153       5.47203950      11.58128233      -0.13280708       0.28284449       0.06000720
Si       2.80126299       1.50831338       6.09522781       0.24706182      -0.27689824       0.12239686
Si       5.62106657       6.84510639      13.31886752       0.21099907      -0.04542441      -0.24751178
Si       4.42448966       4.19737050      12.50382672       0.99122483       0.56414023       0.10027657
Si       6.86866298       4.01791236      12.63317017      -0.75652286      -0.23280385      -0.39133951
Si       4.96662823       1.19145532       0.80883460      -0.25844018       0.16356817       0.27380640
16
Lattice="5.5317771475109545 0.31655169751046125 0.8737717542583527 2.286296844612766 4.570816298608632 1.6081123779708937 3.974135151437242 3.369740963454034 14.612128017270972" Properties=species:S:1:pos:R:3:forces:R:3 unique_starting_index=3 config_type=initial n_minim_iter=14 energy=-2602.805266085721 stress="-0.0034880473487022786 -0.00118508145725351 0.001753444707653034 -0.00118508145725351 -0.005048311425605752 -0.0029839839737669962 0.001753444707653034 -0.0029839839737669962 -0.004394394697978745" free_energy=-2602.805266085721 pbc="T T T"
Si       6.84265342       5.54598117       9.65522351      -0.10662457       0.22116148      -0.09351920
Si       6.63909365       5.06811339      14.85569548       0.22304920      -0.49939712      -0.60658912
Si       2.17743422       2.83904522       4.32605717      -0.01123964      -0.31133150       0.11580822