24
Lattice="7.151503548823417 -0.8198087967740137 1.1083815030461452 2.2490571864242654 10.896524428256868 0.6947940082656627 3.776412963758181 4.545848403081281 6.911265704489121" Properties=species:S:1:pos:R:3:forces:R:3 unique_starting_index=94 config_type=initial n_minim_iter=1 energy=-3910.1021318467324 stress="0.00032046760958081 3.4003401600988494e-05 0.00013189310213236288 3.4003401600988494e-05 -1.9581265183881867e-05 -0.00016955594250434817 0.00013189310213236288 -0.00016955594250434817 0.00030698495783477216" free_energy=-3910.1021318467324 pbc="T T T"
Si      10.73194786       8.51869190       5.33156684       0.02276013      -0.02392527      -0.01039122
Si       2.82788434       3.61475797       2.08635340       0.00638641       0.03262967       0.01386837
Si       1.91042101       9.87499047       0.54675595      -0.02885466      -0.02397246       0.02236712
Si       9.85668839      12.76003484       6.59325147      -0.02589653      -0.03415328      -0.01095266
Si       6.50292597       5.03899782       1.71941549      -0.00754538       0.00569454       0.01073216
Si       8.73967514       7.91940960       8.00574541      -0.02606919       0.00711136      -0.02827824
Si       5.95194887       1.45417355       2.18679775       0.00419747       0.05413706       0.02853687
Si       4.38518823      -0.27344912       1.96867634       0.02260688       0.04192612       0.00601669
Si       8.81356553       3.68607762       6.67044219      -0.01716653       0.01126369       0.03981495
Si      11.78400023      12.01148330       5.49765185      -0.00383911       0.02915459      -0.05011793
Si       7.02693435      10.67431044       6.62040970      -0.00805833      -0.02448631      -0.03211477
Si       6.19367332       2.66948910       4.24546949       0.02391695       0.01357416       0.02855607
Si       4.02243400       7.16736775       3.38292393       0.02967299       0.01040809       0.02490812
Si       4.88619905       9.55764852       6.24252051      -0.00380764       0.02343176      -0.04506546
Si       6.09516386       6.94339973       4.55177207       0.02627615      -0.01122309      -0.02497896
Si       8.47450197       8.96494067       5.75412423       0.01393990      -0.02733446       0.02176347
Si       4.49327119       5.52095496       7.44187077       0.00395452      -0.03700780       0.07487997
Si       4.97723922       6.81334269       1.23217725      -0.03648039      -0.00392522      -0.00273596
Si       9.36770676       4.72125360       4.59173456       0.03852651      -0.00925039      -0.02295564
Si       5.68942561       7.43282643       6.84078079      -0.02501707      -0.01367514      -0.04634517
Si       7.56787275       8.60592296       3.59715468      -0.00365355      -0.00546407       0.04455085
Si       2.11521972       0.17591301       2.23357370      -0.01255274      -0.00444528       0.00772359
Si       6.43723160      12.84189300       5.87576517      -0.00077135      -0.01128433      -0.02348380
Si       7.04302618       4.89791427       3.96676970       0.00747457       0.00081606      -0.02629841
24
Lattice="7.147737564505792 -0.8199204315017702 1.1061589834643901 2.247208482235619 10.896922866658034 0.6968845519506784 3.7728560756708536 4.547618213669809 6.908376982660993" Properties=species:S:1:pos:R:3:forces:R:3 unique_starting_index=94 config_type=initial n_minim_iter=2 energy=-3910.1023189211733 stress="-0.00022487574110180596 1.1459061453939327e-05 -6.29728074101387e-05 1.1459061453939327e-05 -0.00020272590050603357 3.2315489341662336e-05 -6.29728074101387e-05 3.2315489341662336e-05 -0.000293222153727349" free_energy=-3910.1023189211733 pbc="T T T"
Si      10.72509447       8.51971912       5.32902224       0.02236276      -0.03212156      -0.01650829
Si       2.82586642       3.61537483       2.08577178       0.00433335       0.04012805       0.01421040
Si       1.90873512       9.87526029       0.54878758      -0.01972782      -0.03118503       0.02417415
Si       9.84963342      12.76154040       6.59140412      -0.01665624      -0.03432075      -0.00340618
Si       6.49902342       5.03928020       1.71862001      -0.00693669       0.00709851       0.00397000
Si       8.73314527       7.92133149       8.00211315      -0.02667740       0.00593739      -0.02967565
Si       5.94845375       1.45465303       2.18499828       0.00907182       0.05163203       0.02846004
Si       4.38267292      -0.27303587       1.96677509       0.02164697       0.04201021       0.00548499
Si       8.80752707       3.68752528       6.66652958      -0.02356465       0.01140193       0.03618428
Si      11.77631572      12.01277413       5.49561028      -0.01174530       0.02300399      -0.05106304
Si       7.02145832      10.67594040       6.61851261      -0.00832076      -0.02568552      -0.03451427
Si       6.18963092       2.67040966       4.24295478       0.01972958       0.01957184       0.01920213
Si       4.01943574       7.16830297       3.38245058       0.02202100       0.01584691       0.02213366
Si       4.88194572       9.55941007       6.24090886      -0.00321677       0.02339562      -0.04000948
Si       6.09088798       6.94445888       4.55009329       0.03333909      -0.01804876      -0.02182385
Si       8.46864021       8.96620275       5.75206241       0.01254701      -0.02338082       0.02513120
Si       4.48920666       5.52273969       7.43907579      -0.00182369      -0.03413760       0.06478292
Si       4.97401493       6.81360089       1.23235728      -0.03491256      -0.00258654       0.00122408
Si       9.36194090       4.72208753       4.58877987       0.04376072      -0.01062502      -0.02595724
Si       5.68469245       7.43452087       6.83814957      -0.02449717      -0.01368907      -0.04640313
Si       7.56287270       8.60672017       3.59629151      -0.00445263      -0.00758295       0.03953231
Si       2.11365106       0.17638367       2.23213761      -0.00856776      -0.00243542       0.01513925
Si       6.43211218      12.84346535       5.87494851      -0.00163791      -0.00791668      -0.01405612
Si       7.03844527       4.89874357       3.96463004       0.00392504       0.00368926      -0.01621214
24
Lattice="7.1466727502846386 -0.8223017745763604 1.1041645282437011 2.24384518281393 10.913495026970544 0.7040208348423257 3.7693073925311626 4.558307903840095 6.913349376445421" Properties=species:S:1:pos:R:3:forces:R:3 unique_starting_index=94 config_type=initial n_minim_iter=3 energy=-3910.102680100533 stress="0.00016166218947235753 -4.581591443693822e-05 -0.0003299204410672066 -4.581591443693822e-05 0.0012991645751742242 0.0005201231964434445 -0.0003299204410672066 0.0005201231964434445 0.00030447151436348313" free_energy=-3910.102680100533 pbc="T T T"
Si      10.72052574       8.53286180       5.33386068       0.01802796      -0.04017438      -0.02760117
Si       2.82410261       3.62252308       2.08871276      -0.00450903       0.04081104       0.00648819
Si       1.90513084       9.88954868       0.55584283      -0.00692512      -0.02823788       0.01730522
Si       9.84264782      12.78212916       6.60007674       0.01564579      -0.01635251       0.00902124
Si       6.49616243       5.04662472       1.72122712      -0.00977437       0.00077979      -0.01308593
Si       8.72706919       7.93679124       8.00779817      -0.02086067       0.00967020      -0.02190104
Si       5.94684441       1.45813801       2.18604128       0.01553488       0.04192261       0.02343153
Si       4.38217286      -0.27220537       1.96638831       0.02296173       0.03760171       0.00518290
Si       8.80304931       3.69569490       6.67043184      -0.03656895      -0.00564354       0.02526802
Si      11.76986176      12.03247076       5.50170068      -0.02529741       0.00816646      -0.05107953
Si       7.01571877      10.69432635       6.62584638      -0.00004921      -0.01880046      -0.04457252
Si       6.18749023       2.67619675       4.24548474       0.01422902       0.02333553       0.00221537
Si       4.01673441       7.18087373       3.38827241       0.01585936       0.02509901       0.01248535
Si       4.87701454       9.57761652       6.24767183      -0.00499940       0.00625094      -0.02047937
Si       6.08777551       6.95621660       4.55452565       0.04598735      -0.03655018      -0.01679891
Si       8.46391687       8.98100104       5.75892430       0.00633783      -0.01363154       0.02580394
Si       4.48517805       5.53420603       7.44648470      -0.01622543      -0.02109672       0.04436918
Si       4.97031223       6.82348833       1.23619267      -0.03533401      -0.01475507       0.00725954
Si       9.35923333       4.72973505       4.59080697       0.04334150      -0.02285804      -0.02187856
Si       5.67951709       7.44873420       6.84339041      -0.02952203      -0.00216530      -0.04064035
Si       7.55850566       8.62019937       3.60270823      -0.00391553       0.00506801       0.03699524
Si       2.11246205       0.17753910       2.23292460       0.00739278       0.01439895       0.04251965
Si       6.42625492      12.86521671       5.88399691      -0.00607717      -0.00605650       0.00561415
Si       7.03527065       4.90716205       3.96723801      -0.00525986       0.01321787      -0.00592213
24
Lattice="7.142760256640304 -0.826489233858424 1.1114840496220808 2.2358042392288855 10.900236161919038 0.7015780727393042 3.7697789647327835 4.548055506123916 6.9178595150077005" Properties=species:S:1:pos:R:3:forces:R:3 unique_starting_index=94 config_type=initial n_minim_iter=4 energy=-3910.105094748967 stress="-0.0003449358818984084 -0.000422580257735165 0.00036639773966815726 -0.000422580257735165 0.00010303712287936709 8.850263353970267e-05 0.00036639773966815726 8.850263353970267e-05 0.00012739088858573633" free_energy=-3910.105094748967 pbc="T T T"
Si      10.71383098       8.51182043       5.34074272       0.00109768      -0.00717357      -0.00141747
Si       2.82191903       3.61952767       2.09187456      -0.02561995       0.01903126      -0.04268582
Si       1.89581572       9.87498066       0.55563215      -0.02128424      -0.02592064       0.00506091
Si       9.83139168      12.75638654       6.60586678       0.01933101       0.02000170       0.01140569
Si       6.48884849       5.03695196       1.72610223      -0.01094135       0.01094968      -0.02205510
Si       8.72015670       7.91996461       8.01311598       0.00258883      -0.00596493      -0.00885078
Si       5.94411427       1.45672201       2.19441244       0.03504822       0.04247182       0.01206353
Si       4.38288037      -0.27165066       1.97189152      -0.01030123       0.00645132       0.02985110
Si       8.79788900       3.68415019       6.68320905      -0.00815280      -0.01283525      -0.01888692
Si      11.75722405      12.01207823       5.50473198       0.00407893       0.00550226       0.01033122
Si       7.00884802      10.67332390       6.62718414       0.00968528       0.00923678      -0.02842096
Si       6.18686779       2.66923645       4.25378826       0.01252387       0.01414474       0.00846615
Si       4.01444164       7.17064586       3.39237345       0.03192685      -0.01286427      -0.01164607
Si       4.87249028       9.56369685       6.24691330      -0.01566911      -0.02316578      -0.01001188
Si       6.08585259       6.94132395       4.55689500       0.00262695      -0.02807936      -0.00220907
Si       8.45812486       8.96133027       5.76749068       0.01262554      -0.01742864       0.00276870
Si       4.48485425       5.51903180       7.45773542      -0.02580346      -0.00166075       0.01144457
Si       4.95993203       6.81215813       1.23828559      -0.03317548      -0.02384207       0.01033216
Si       9.35719538       4.71565845       4.59694243       0.00326546      -0.01034486       0.02759241
Si       5.67424228       7.43305839       6.84399154      -0.01805856       0.00913813      -0.00523711
Si       7.55012138       8.60417434       3.61127181       0.01213923       0.04403813       0.01449647
Si       2.11197091       0.17489055       2.23720682       0.03113225       0.00132894       0.01968816
Si       6.41830066      12.84410203       5.88533950      -0.04014117      -0.00695489      -0.00348534
Si       7.03077404       4.89608791       3.97144355       0.03107725      -0.00605973      -0.00859455
24
Lattice="7.145055660325383 -0.8219009834630733 1.1078708440583438 2.2434550743939403 10.897926630722612 0.6980050198492798 3.770952646650374 4.54748293906858 6.913971930610802" Properties=species:S:1:pos:R:3:forces:R:3 unique_starting_index=94 config_type=initial n_minim_iter=5 energy=-3910.105505037285 stress="3.230944432851946e-07 8.936686975272783e-05 -2.20961966825995e-05 8.936686975272783e-05 -1.4008403109056454e-06 -9.285976722872459e-05 -2.20961966825995e-05 -9.285976722872459e-05 -0.00010900041905165879" free_energy=-3910.105505037285 pbc="T T T"
Si      10.72201486       8.51415835       5.33242919      -0.00948554       0.01600467      -0.00336413
Si       2.82448169       3.62041492       2.08944120      -0.01616351       0.00869006      -0.05372913
Si       1.90226624       9.87223359       0.55289093      -0.01309030      -0.02015275       0.01687759
Si       9.84060444      12.75654972       6.59713917       0.02986058       0.01688374       0.02497351
Si       6.49408830       5.03920760       1.72147957      -0.00909336      -0.00156471      -0.03408035
Si       8.72482669       7.92130161       8.00530225      -0.00196792       0.00531071      -0.00274350
Si       5.94701228       1.46062371       2.19129857       0.02821995       0.02415039       0.00906367
Si       4.38413410      -0.26843629       1.96964649      -0.01085285       0.01554886       0.03374247
Si       8.80059118       3.68724055       6.67755530      -0.01299397      -0.01048652      -0.03480856
Si      11.76749587      12.01488336       5.49453779       0.00485270       0.01406563       0.01936103
Si       7.01551475      10.67246685       6.61966833       0.00213772       0.00661877      -0.02363866
Si       6.18975117       2.67175569       4.24985779      -0.01499789       0.01841748       0.01015580
Si       4.01973356       7.17033303       3.38865461       0.02280721      -0.03306338      -0.01988648
Si       4.87760372       9.56261697       6.24075051      -0.01705722      -0.01436760       0.00006526
Si       6.09141856       6.94153836       4.55125484       0.00338419      -0.01078936       0.00336664
Si       8.46518213       8.96205935       5.76087044       0.02356508      -0.02182878       0.00175591
Si       4.48659804       5.51788028       7.45440623      -0.03023575       0.01344762      -0.01140524
Si       4.96525322       6.81265292       1.23417069      -0.02895960      -0.01276163       0.00380151
Si       9.36304725       4.71885268       4.59018574      -0.00132409      -0.00039283       0.03870720
Si       5.67768811       7.43258053       6.83770599      -0.01950163      -0.00875812       0.00623411
Si       7.55732322       8.60545008       3.60584525       0.00890297       0.03233927       0.00766464
Si       2.11191320       0.17567981       2.23611102       0.04156247      -0.01952490       0.02439816
Si       6.42636463      12.84252776       5.87819088      -0.02092625       0.00422720      -0.01410405
Si       7.03540041       4.89815102       3.96588547       0.04135703      -0.02201382      -0.00240741
24
Lattice="7.146251893938475 -0.8219761536314009 1.1065674031022825 2.2421792876202744 10.891668733462138 0.7024792876571159 3.7695862563624547 4.54727562951924 6.918274712590959" Properties=species:S:1:pos:R:3:forces:R:3 unique_starting_index=94 config_type=initial n_minim_iter=6 energy=-3910.105855406351 stress="0.00014050921317273408 -4.9785485474694975e-05 -0.00013000322365606023 -4.9785485474694975e-05 -0.00038397202874654426 0.00020229020140586615 -0.00013000322365606023 0.00020229020140586615 0.0001886456305196314" free_energy=-3910.105855406351 pbc="T T T"
Si      10.72190650       8.50974424       5.33596661      -0.01446209       0.00730270       0.00546144
Si       2.82382083       3.61961356       2.09067312      -0.01419729       0.01226397      -0.06043065
Si       1.90050174       9.86573224       0.55755881      -0.01344542      -0.02171976       0.01189864
Si       9.83946475      12.75042514       6.60384441       0.02984829       0.00943252       0.01966951
Si       6.49392681       5.03623423       1.72259408       0.00352356      -0.00534060      -0.02873233
Si       8.72322547       7.91909331       8.00999462      -0.00840170       0.00743586       0.00147800
Si       5.94807583       1.46117677       2.19231967       0.02897741       0.01750104       0.01531092
Si       4.38474796      -0.26715382       1.97019473      -0.00791361       0.01154527       0.02050719
Si       8.79973663       3.68667550       6.68039884      -0.00962474      -0.00244565      -0.01808563
Si      11.76673627      12.00926725       5.49920262      -0.00248901       0.00836853       0.02508553
Si       7.01387532      10.66789219       6.62478044       0.00597210      -0.00112813      -0.01970664
Si       6.18979486       2.67174113       4.25216851      -0.02143726       0.00637460       0.00802985
Si       4.01957293       7.16682833       3.39245377       0.02306717      -0.03365433      -0.02601597
Si       4.87551947       9.55917347       6.24597082      -0.02498491      -0.00868255       0.00354196
Si       6.09119934       6.93810775       4.55469646       0.00077656      -0.00956266       0.01273169
Si       8.46485739       8.95742226       5.76598060       0.02162835      -0.01749551      -0.00360917
Si       4.48458809       5.51688496       7.46017009      -0.03084361       0.01224157      -0.00953271
Si       4.96385697       6.80824825       1.23669362      -0.03057127      -0.00915486       0.00569899
Si       9.36382244       4.71654393       4.59259647      -0.00208788      -0.00045733       0.03465504
Si       5.67553551       7.43012024       6.84213515      -0.01108556      -0.01282705       0.00366421
Si       7.55684408       8.60148496       3.61041067       0.01242767       0.02999089       0.00709201
Si       2.11236615       0.17593326       2.23743119       0.04237345      -0.00561115       0.01715730
Si       6.42407777      12.83665206       5.88453026      -0.01931173       0.02124844      -0.01266940
Si       7.03593005       4.89575820       3.96795968       0.04226152      -0.01562582      -0.01319977
24
Lattice="7.142966117134819 -0.8228863353624853 1.108591396026886 2.240530857401096 10.896186501499036 0.7021102823069628 3.769101562765145 4.548352027450678 6.9198906571656185" Properties=species:S:1:pos:R:3:forces:R:3 unique_starting_index=94 config_type=initial n_minim_iter=7 energy=-3910.107079205444 stress="-0.00023911310031052884 2.3951425811125517e-05 6.80913025471082e-05 2.3951425811125517e-05 8.737307408105344e-05 -7.345728038435599e-05 6.80913025471082e-05 -7.345728038435599e-05 0.00024165330383872692" free_energy=-3910.107079205444 pbc="T T T"
Si      10.71817323       8.51090505       5.33724102       0.00275731      -0.01584762      -0.00297788
Si       2.82127416       3.62498273       2.08701602      -0.03140537      -0.02039076      -0.04356087
Si       1.89582212       9.86537558       0.56049141      -0.01506076       0.01481712       0.00660228
Si       9.83686104      12.75368653       6.60797635      -0.02270526       0.00647264       0.01513755
Si       6.48942664       5.03826641       1.72117654       0.00135559      -0.00283606       0.00040528
Si       8.71791682       7.92220435       8.01008350       0.01443236      -0.00339318       0.01734720
Si       5.94914301       1.46805691       2.19739728      -0.00620755      -0.01594732      -0.00415519
Si       4.38382715      -0.26293741       1.97521131       0.04781054       0.00121027      -0.00259622
Si       8.79365023       3.68690082       6.68330787       0.01766129       0.00829383       0.03158266
Si      11.76086934      12.01635080       5.49962038       0.00372645       0.00582278       0.00605634
Si       7.01110151      10.66999356       6.62129133       0.00135814       0.00498504      -0.01568153
Si       6.18799784       2.67514719       4.25681038      -0.01342250      -0.00593226       0.02346095
Si       4.02237134       7.16750928       3.39310472      -0.00950490      -0.02061323      -0.00144084
Si       4.87182944       9.56269482       6.24394217      -0.00077607      -0.03029124       0.01074195
Si       6.09174559       6.93751270       4.55486564       0.00878728      -0.00320306       0.01514201
Si       8.46464710       8.95620145       5.77021127      -0.00235374      -0.00074411      -0.01188149
Si       4.48068687       5.51664418       7.46662481       0.00688759      -0.00306870      -0.01876868
Si       4.95526635       6.80900707       1.23802510       0.00761182      -0.00149396      -0.03385351
Si       9.36327811       4.71641822       4.59689510      -0.00078722       0.00763821       0.03197441
Si       5.67000601       7.43061557       6.84058307      -0.01735736      -0.00585689       0.01974557
Si       7.55404962       8.60738410       3.61631469      -0.00467810       0.02584785      -0.01309315
Si       2.11525175       0.17416168       2.24187023      -0.00999951       0.03523035      -0.01239936
Si       6.41895581      12.84111276       5.88333496      -0.00065321       0.02026911       0.00801176
Si       7.03744787       4.89548630       3.96777225       0.02252319      -0.00096882      -0.02579925
24
Lattice="7.148374321352693 -0.8241741077515891 1.1081987406040428 2.24003238608041 10.895570116660943 0.7029383404571647 3.7713105320127305 4.548224181027303 6.9162399173060365" Properties=species:S:1:pos:R:3:forces:R:3 unique_starting_index=94 config_type=initial n_minim_iter=8 energy=-3910.107245254559 stress="0.0001969483553807513 -0.0001367175486779201 6.858736834009433e-05 -0.0001367175486779201 5.879862689063981e-05 4.753434766052108e-07 6.858736834009433e-05 4.753434766052108e-07 -0.0001376330371870756" free_energy=-3910.107245254559 pbc="T T T"
Si      10.72445873       8.50916805       5.33536275      -0.00137819      -0.02379634      -0.00297271
Si       2.82238307       3.62446374       2.08551221      -0.02020111      -0.01631305      -0.04438719
Si       1.89510635       9.86480088       0.56141274      -0.02019831       0.01870482       0.00495210
Si       9.84195068      12.75233642       6.60600630      -0.01947703       0.00272091       0.00704946
Si       6.49320564       5.03699574       1.72071644       0.00020345       0.00054761      -0.00721983
Si       8.72320328       7.92114506       8.00650892       0.00882785      -0.00161256       0.02284991
Si       5.95346728       1.46707523       2.19652185      -0.00614746      -0.02092729      -0.00998825
Si       4.38736951      -0.26353136       1.97439309       0.03809334       0.00674741      -0.00012449
Si       8.79970401       3.68573927       6.67990950       0.02227410       0.00156003       0.04007125
Si      11.76736714      12.01441119       5.49834234      -0.00072905       0.00610804       0.01237661
Si       7.01447907      10.66914922       6.61840864      -0.00214943      -0.00148130      -0.01488474
Si       6.19194647       2.67436172       4.25494990      -0.01030527      -0.00640890       0.02802857
Si       4.02413565       7.16650279       3.39174224      -0.00534898      -0.01803439       0.01000798
Si       4.87365538       9.56183830       6.24143590       0.00165970      -0.02737345       0.01137911
Si       6.09508348       6.93652819       4.55324878       0.00881635      -0.00543978       0.00617208
Si       8.46947132       8.95478978       5.76789738       0.00411810       0.00232127      -0.01024699
Si       4.48305076       5.51653770       7.46247667       0.00110046      -0.00507865      -0.01116193
Si       4.95744185       6.80789725       1.23805684       0.01162972      -0.00816498      -0.03652264
Si       9.36932336       4.71498355       4.59554661      -0.00584696       0.01171044       0.01760549
Si       5.67280454       7.42994345       6.83761385      -0.01980529      -0.00123566       0.01899191
Si       7.55807283       8.60648969       3.61528755      -0.01084588       0.02067984      -0.01379318
Si       2.11715215       0.17408836       2.24068791       0.00019392       0.03597668      -0.02236484
Si       6.42121937      12.84037754       5.88132725       0.00048635       0.02204337       0.00862314
Si       7.04225631       4.89422980       3.96600670       0.02502963       0.00674593      -0.01444081
24
Lattice="7.148584778571765 -0.8210623107274879 1.1074867300527491 2.2443466012545072 10.89373737557563 0.7043194349167762 3.7727485108980936 4.549489466482037 6.9169375271462785" Properties=species:S:1:pos:R:3:forces:R:3 unique_starting_index=94 config_type=initial n_minim_iter=9 energy=-3910.1076501552247 stress="9.35438615695409e-05 8.383146050070662e-05 -6.988582390422821e-06 8.383146050070662e-05 -9.395297666044119e-05 0.00013698912915366962 -6.988582390422821e-06 0.00013698912915366962 -7.120132615828962e-05" free_energy=-3910.1076501552247 pbc="T T T"
Si      10.72768228       8.51197426       5.33604915       0.00903422      -0.02157235      -0.00716967
Si       2.82294795       3.62389679       2.08392545      -0.01457071      -0.00688297      -0.02081436
Si       1.89882041       9.86379825       0.56260134      -0.00688254       0.01305241       0.01022803
Si       9.84718267      12.75459351       6.60793111      -0.01843788      -0.00018296       0.00506235
Si       6.49566032       5.03826085       1.72039528       0.00330752      -0.00347180       0.00298119
Si       8.72695965       7.92350286       8.00831144       0.00401144       0.00371052       0.01570731
Si       5.95433591       1.46809561       2.19574354      -0.00746262      -0.01210964       0.00365892
Si       4.38812298      -0.26194379       1.97421816       0.02733880       0.01756572      -0.00520263
Si       8.80204346       3.68900334       6.68002962       0.00827555       0.00516286       0.03802973
Si      11.77270587      12.01649194       5.50061425      -0.00530350       0.00946174      -0.00498193
Si       7.01871768      10.67053408       6.61962471      -0.00664967      -0.01105958      -0.01256992
Si       6.19223350       2.67635091       4.25539583      -0.00417346      -0.00368186       0.01669443
Si       4.02651218       7.16559499       3.39208876      -0.00307813      -0.01026849       0.01135379
Si       4.87705468       9.56090826       6.24372776       0.00342950      -0.00964313      -0.00222137
Si       6.09760011       6.93781787       4.55467676       0.01310684       0.00125625       0.00332243
Si       8.47317338       8.95680465       5.76802767      -0.00085180       0.00021390      -0.00766499
Si       4.48466456       5.51853494       7.46158646       0.00732800      -0.01600367      -0.00047421
Si       4.96095922       6.80807140       1.23774493       0.00440797      -0.00423544      -0.02759375
Si       9.37072004       4.71848014       4.59704784       0.00539958       0.00325905       0.00198458
Si       5.67529558       7.43119000       6.83990133      -0.01493337      -0.01084899       0.00377071
Si       7.56165782       8.60868810       3.61501811      -0.01185986       0.00092424      -0.00012293
Si       2.11766627       0.17598345       2.24017357      -0.00581376       0.02727591      -0.01417630
Si       6.42602841      12.84123543       5.88326759       0.00202895       0.02141826       0.00746980
Si       7.04535359       4.89606043       3.96605671       0.01234893       0.00666001      -0.01727121
24
Lattice="7.148064723195014 -0.8234541685864645 1.1051896249494553 2.240865561242793 10.89259359897006 0.6999242020061036 3.7686355577444433 4.545991698932969 6.914982809984267" Properties=species:S:1:pos:R:3:forces:R:3 unique_starting_index=94 config_type=initial n_minim_iter=10 energy=-3910.107845029275 stress="1.9491044250424658e-05 -0.00013427749511892584 -0.0003010053814472448 -0.00013427749511892584 -9.278238247073958e-05 -9.483956627155708e-05 -0.0003010053814472448 -9.483956627155708e-05 3.353037969726134e-06" free_energy=-3910.107845029275 pbc="T T T"
Si      10.72281234       8.50635638       5.32963254       0.01324652      -0.01121677      -0.01669151
Si       2.82011779       3.62222946       2.08018033      -0.00850743      -0.00810970      -0.00033011
Si       1.89501232       9.86282568       0.55922170      -0.00497336       0.00720066       0.00737700
Si       9.84032964      12.74943010       6.60145830      -0.01625241      -0.00944310      -0.00310304
Si       6.49317279       5.03565374       1.71599915       0.01409439       0.00432838       0.00362369
Si       8.72133481       7.91824307       8.00385519      -0.00646643      -0.00646743       0.01015514
Si       5.95307442       1.46577390       2.19350661      -0.00019579      -0.00064366       0.00724128
Si       4.38829096      -0.26316727       1.97332002       0.00745729       0.00986172      -0.00546023
Si       8.79818332       3.68422634       6.67719743       0.00986668       0.01462087       0.03265149
Si      11.76659652      12.01150823       5.49303651      -0.01404699       0.02169409      -0.01090290
Si       7.01275602      10.66593038       6.61339779      -0.01161079      -0.00958410      -0.01908392
Si       6.18919155       2.67327671       4.25364057      -0.00212491      -0.00217908       0.01261992
Si       4.02327557       7.16228366       3.38865348       0.00074262      -0.00726751       0.00450840
Si       4.87147926       9.55645710       6.23955710       0.00018250      -0.00761313       0.00114904
Si       6.09411862       6.93405218       4.55088509       0.01886276       0.00310977       0.00520105