16
Lattice="5.834616561631742 0.2709647590744768 0.8949829074685862 2.4642054343256867 4.071187546560104 1.2761978780196792 4.314413013680577 1.857628518345821 14.615324391864577" Properties=species:S:1:pos:R:3:forces:R:3 unique_starting_index=3 config_type=initial n_minim_iter=1 energy=-2604.880198823799 stress="-1.231308698090922e-05 3.3357284765537936e-06 1.5086596259720491e-06 3.3357284765537936e-06 -7.426651886227607e-07 -7.31553381175812e-06 1.5086596259720491e-06 -7.31553381175812e-06 -4.5622910675888025e-06" free_energy=-2604.880198823799 pbc="T T T"
Si       7.76900668       4.97025079       8.75638030       0.00451209       0.00046203       0.00109446
Si       7.30072613       2.35450096      14.95243707       0.00152979      -0.00378251      -0.00012796
Si       2.26120559       2.25648343       4.21537231       0.00450043      -0.00158332       0.00124582
Si       5.48385931       2.33771849       2.47569840      -0.00275254      -0.00250221      -0.00566285
Si       6.07674752       2.75121033       6.27635498      -0.00177114      -0.00130540       0.00597212
Si       8.41664841       2.66934779       8.62644600       0.00284870      -0.00084184      -0.00341468
Si       4.49284777       2.50594379       4.56554717      -0.00025952      -0.00132518       0.00018451
Si       7.84426392       2.37775855       2.76522163      -0.00492574      -0.00000792       0.00044479
Si       4.25325312       2.01338587       9.42161176      -0.00135231       0.00391634      -0.00090344
Si       6.58383290       2.00127914       9.95576042       0.00112273       0.00434738      -0.00038774
Si       9.06580246       3.82727279      11.90883840       0.00128043      -0.00482219       0.00306522
Si       3.39196100       0.84951517       5.98729535       0.00432257      -0.00401020       0.00248493
Si       6.56013878       4.75166811      12.67607278      -0.00158050       0.00481069      -0.00089459
Si       4.75125579       2.74850208      12.62787198      -0.00500379       0.00694880      -0.00813511
Si       7.12317683       2.46279317      12.46315108       0.00097780      -0.00045019      -0.00121942
Si       5.26313668       0.62871674       0.92156735      -0.00344900       0.00014572       0.00625395
16
Lattice="5.835350300924267 0.27083069483969174 0.8949540384281137 2.464361864380113 4.07123120289224 1.2765340882248257 4.314675300112294 1.85861863686603 14.616102121164912" Properties=species:S:1:pos:R:3:forces:R:3 unique_starting_index=3 config_type=initial n_minim_iter=2 energy=-2604.8802082321895 stress="0.0001441212301466949 -2.7737546259060352e-06 -2.7460691893687893e-05 -2.7737546259060352e-06 2.1351950246801845e-05 3.0584309366972846e-05 -2.7460691893687893e-05 3.0584309366972846e-05 9.136897069275233e-05" free_energy=-2604.8802082321895 pbc="T T T"
Si       7.76985300       4.97070741       8.75709812       0.00216180      -0.00125403       0.00238999
Si       7.30140476       2.35528871      14.95321751       0.00105361      -0.00087912       0.00032106
Si       2.26150413       2.25669346       4.21575507       0.00150515      -0.00119634       0.00227926
Si       5.48435708       2.33765070       2.47572007      -0.00220866      -0.00263940      -0.00181306
Si       6.07728026       2.75145836       6.27697333       0.00131345       0.00007141       0.00147412
Si       8.41760585       2.66970972       8.62681811       0.00282955      -0.00131437      -0.00288398
Si       4.49326157       2.50611298       4.56589482       0.00140266      -0.00141681      -0.00089747
Si       7.84498901       2.37771430       2.76542823      -0.00455254      -0.00205242       0.00013997
Si       4.25353911       2.01411048       9.42212225       0.00041812       0.00422135      -0.00149736
Si       6.58449666       2.00197739       9.95627594       0.00020624       0.00281156      -0.00103764
Si       9.06669848       3.82774026      11.90966536      -0.00048417      -0.00206511       0.00010953
Si       3.39242167       0.84972944       5.98767851       0.00467807      -0.00344963       0.00334667
Si       6.56056851       4.75261415      12.67691463      -0.00165430       0.00239678      -0.00029241
Si       4.75140674       2.74956424      12.62834224      -0.00252062       0.00470706      -0.00143258
Si       7.12384962       2.46350809      12.46378624      -0.00116119       0.00138566      -0.00128984
Si       5.26366718       0.62861255       0.92178682      -0.00298716       0.00067343       0.00108373
