6
Lattice="4.425333891115713 -3.3195277278558667e-16 -9.18205262883886e-17 5.668159538813737e-16 4.802979640010917 0.09924711169679695 5.458369539847648e-17 -0.8661556495776206 7.701230894553205" Properties=species:S:1:pos:R:3:forces:R:3 unique_starting_index=75 config_type=initial n_minim_iter=1 energy=-976.5011079724612 stress="-1.0426528749997653e-05 5.160814119159055e-17 -1.879595970820895e-17 5.160814119159055e-17 -0.00018134323332549834 -2.664575463379415e-05 -1.879595970820895e-17 -2.664575463379415e-05 0.00016501049564049788" free_energy=-976.5011079724612 pbc="T T T"
Si       1.10618825       2.38596170       4.21489608       0.00000000      -0.00322853       0.00262121
Si       3.31885520       2.81903952       0.36428063      -0.00000000      -0.00322853       0.00262121
Si       3.31885520       1.11433327       5.62146228       0.00000000       0.00555083       0.00046298
Si       1.10618825       1.54741109       1.77084683      -0.00000000       0.00555084       0.00046298
Si       3.31885520       0.53112406       0.74614019       0.00000000      -0.00232230      -0.00308418
Si       1.10618825       0.09804623       4.59675563      -0.00000000      -0.00232230      -0.00308419
