8
Lattice="3.773320497426002 -0.7661163309097897 0.2910204943490269 -2.444460081785384 6.256994152776889 -1.3636676235280119 0.15752010993729576 -4.14591510081652 7.773497630551819" Properties=species:S:1:pos:R:3:forces:R:3 unique_starting_index=306 config_type=initial n_minim_iter=1 energy=-1303.3642003262648 stress="-0.0002177777346119335 -0.0004686047360343874 -0.00036429655545719886 -0.0004686047360343874 -0.0006999325281314049 0.0003799423348550011 -0.00036429655545719886 0.0003799423348550011 -0.0012072626059696518" free_energy=-1303.3642003262648 pbc="T T T"
Si       0.40286531       4.86750216      -0.72355935      -0.12323902      -0.02446401      -0.03715860
Si      -1.01788425       1.55031173       3.78138624       0.07836878      -0.00230087       0.00023566
Si       1.28044287       1.99498067       0.82276381       0.14074374      -0.01762877       0.11744752
Si       0.94249971       1.91358898       5.06981680      -0.07081732       0.08560323       0.03032565
Si       2.58519006      -1.48550003       4.68225765      -0.13394345       0.03403231      -0.05408507
Si      -0.55268497       2.97174734       1.92384662       0.08156448      -0.05231827       0.06230663
Si       0.54676452      -1.40168237       5.94468501      -0.01205759       0.05948264      -0.09657607
Si       1.01113063      -0.26448372       1.60229017       0.03938040      -0.08240625      -0.02249572
8
Lattice="3.7745462474616116 -0.7637052203595901 0.2953612401032577 -2.440368830288256 6.265071793984033 -1.37424597527647 0.15950838065316494 -4.158360598276875 7.797215946315308" Properties=species:S:1:pos:R:3:forces:R:3 unique_starting_index=306 config_type=initial n_minim_iter=2 energy=-1303.3656045474017 stress="0.0009365354237138428 0.0007819521139363203 0.0006019029649094703 0.0007819521139363203 0.0020922286917290154 -0.0006722541594112064 0.0006019029649094703 -0.0006722541594112064 0.001518347991699643" free_energy=-1303.3656045474017 pbc="T T T"
Si       0.40563113       4.87548156      -0.72963891      -0.05303533      -0.01307095      -0.06524331
Si      -1.01271497       1.54849642       3.78915250       0.08967053       0.00530795       0.00474378
Si       1.28571183       1.99835214       0.82595801       0.16201949      -0.05590607       0.13517061
Si       0.94783397       1.91449817       5.08259951      -0.07031097       0.08051676       0.05408066
Si       2.58666100      -1.48847653       4.69689196      -0.10815231       0.03365260      -0.05440459
Si      -0.54727514       2.97334543       1.92687667       0.05413240      -0.06499198       0.08622228
Si       0.55009533      -1.40725347       5.96032650      -0.05379633       0.05627821      -0.11256949
Si       1.01315566      -0.26635180       1.60714270      -0.02052747      -0.04178651      -0.04799993
8
Lattice="3.7618196335550165 -0.7575619363450908 0.2992068451058182 -2.428867289214944 6.233944891680114 -1.3843544182661245 0.1606310551258353 -4.140920355800244 7.836885364759727" Properties=species:S:1:pos:R:3:forces:R:3 unique_starting_index=306 config_type=initial n_minim_iter=3 energy=-1303.3733082634667 stress="-0.00259557136606301 0.0013147794050485477 0.0012921016535197315 0.0013147794050485477 -0.003316743802377251 -0.0008439241618892738 0.0012921016535197315 -0.0008439241618892738 0.001066269772544514" free_energy=-1303.3733082634667 pbc="T T T"
Si       0.39523433       4.85023781      -0.74025480       0.16487082      -0.00944668      -0.09525356
Si      -0.99621225       1.53925081       3.80692016      -0.06033417       0.08625665       0.03684694
Si       1.30124411       1.98573206       0.84524409       0.14216714      -0.04666018       0.07602456
Si       0.94046439       1.91448343       5.11216012       0.07110527       0.02108726       0.07191251
Si       2.56475719      -1.47703439       4.71524160       0.05381829      -0.00514793      -0.01100769
Si      -0.53361767       2.95132134       1.94372612       0.04255533      -0.06972863       0.06521319
Si       0.54756893      -1.39501760       5.97785402      -0.20346700       0.05054377      -0.12669013
Si       1.01282660      -0.27315963       1.61188721      -0.21071568      -0.02690425      -0.01704581
8
Lattice="3.774742641668369 -0.7684669344442541 0.2896093774018419 -2.4476286825355293 6.259927414399192 -1.3707338857239635 0.15245963056404094 -4.144104341505749 7.840441945351999" Properties=species:S:1:pos:R:3:forces:R:3 unique_starting_index=306 config_type=initial n_minim_iter=4 energy=-1303.3773973082132 stress="0.0015874371704691916 -0.0014409570444470776 -0.002478051094557062 -0.0014409570444470776 0.0014265907835159326 0.001110789172686638 -0.002478051094557062 0.001110789172686638 0.00120683205225467" free_energy=-1303.3773973082132 pbc="T T T"
Si       0.38064249       4.86379388      -0.74008993       0.15978393       0.00043580      -0.06220395
Si      -1.00530859       1.55425885       3.81741298      -0.23533357       0.13517745       0.12936421
Si       1.31390287       1.98787284       0.85852803      -0.00306053      -0.04875738       0.09603364
Si       0.92194515       1.93490028       5.12422904       0.26473843      -0.03938866       0.01643860
Si       2.55502310      -1.47801425       4.70821539       0.07263771       0.02209751       0.00633182
Si      -0.53961587       2.96025641       1.95940521       0.16426726      -0.08891011      -0.00976224
Si       0.53344022      -1.38617285       5.97142268      -0.22753797       0.04075223      -0.11723194
Si       1.01160869      -0.28039915       1.60819795      -0.19549526      -0.02140685      -0.05897013
8
Lattice="3.7745048771202594 -0.763553053879119 0.3107636876644842 -2.44381334005169 6.268312077604111 -1.3896088542852485 0.1884064291537393 -4.164231490045164 7.816300921279256" Properties=species:S:1:pos:R:3:forces:R:3 unique_starting_index=306 config_type=initial n_minim_iter=5 energy=-1303.3862823258978 stress="-0.0008593232131327469 0.0018200361857346593 0.002685331792920785 0.0018200361857346593 0.0017378116981090108 0.0005044398189942609 0.002685331792920785 0.0005044398189942609 -0.005014233258827712" free_energy=-1303.3862823258978 pbc="T T T"
Si       0.38371572       4.87183957      -0.75094197       0.22733305      -0.02686227       0.03532174
Si      -0.98114067       1.55351058       3.79752458      -0.11731705       0.04564007       0.18120337
Si       1.33766143       1.98721965       0.87359344       0.08529556      -0.13676536       0.01823417
Si       0.95533303       1.93760501       5.11017332       0.14677242       0.01797660      -0.05189177
Si       2.57010884      -1.48070624       4.70084986       0.18184937       0.05185218      -0.02817501
Si      -0.51239195       2.95233389       1.95050204       0.04981416      -0.00415785      -0.04118678
Si       0.55192470      -1.39076080       5.93786575      -0.31283861       0.01047214      -0.08535554
Si       1.01245484      -0.28885604       1.60318106      -0.26090891       0.04184449      -0.02815018
8
Lattice="3.7865388770242885 -0.7727053707261369 0.35562820264430756 -2.4803405211940577 6.231596243860276 -1.5207430911054391 0.26125150514880446 -4.224947157482003 8.047251816676882" Properties=species:S:1:pos:R:3:forces:R:3 unique_starting_index=306 config_type=initial n_minim_iter=6 energy=-1303.4314712315097 stress="0.0002583036037593451 0.002408728318433193 0.0038410671427999846 0.002408728318433193 -0.009291844678109007 -0.007164133275674319 0.0038410671427999846 -0.007164133275674319 -0.0018033258968070734" free_energy=-1303.4314712315097 pbc="T T T"
Si       0.36061722       4.82072741      -0.86329286       0.10997230       0.39853349       0.03582362
Si      -0.96036957       1.51564110       3.88265193       0.19696796       0.02359034       0.16344329
Si       1.42210003       1.92078060       0.95310199       0.20543754      -0.23226914       0.02897628
Si       0.99997199       1.88281995       5.22904606      -0.18000719      -0.09112413       0.00383740
Si       2.58088885      -1.51608434       4.81765466       0.19527605       0.08568649       0.14114498
Si      -0.45239596       2.85769273       1.98759296      -0.16485879      -0.15790584       0.01623091
Si       0.53152999      -1.42015175       6.01663012      -0.28121557      -0.01816667      -0.32599847
Si       0.98311035      -0.34250234       1.62649465      -0.08157229      -0.00834453      -0.06345800
8
Lattice="3.7797799528106895 -0.7855243753839449 0.39006313807853804 -2.50232417054906 6.240939864111568 -1.5913039929569712 0.32565167662325245 -4.252543490684607 8.2383628895651" Properties=species:S:1:pos:R:3:forces:R:3 unique_starting_index=306 config_type=initial n_minim_iter=7 energy=-1303.4677760272177 stress="-0.001923409381177649 0.0019206309042194307 0.004604303177410676 0.0019206309042194307 -0.007758364327600006 -0.006882514083173866 0.004604303177410676 -0.006882514083173866 7.331508485314733e-05" free_energy=-1303.4677760272177 pbc="T T T"
Si       0.33101583       4.81211290      -0.93323043       0.03284498       0.55745660       0.06004698
Si      -0.93084927       1.52628822       3.98339337       0.31556037       0.02476906       0.24203743
Si       1.50621419       1.87870807       1.05881047      -0.00702292      -0.29512482      -0.09474318
Si       1.02984158       1.89585486       5.36658318      -0.23359390      -0.17151185      -0.16153402
Si       2.56967189      -1.51939915       4.91549448       0.06550095       0.01380578       0.07618395
Si      -0.39007668       2.80563706       2.05775277      -0.04159245      -0.08968493       0.10801399
Si       0.50310894      -1.40490047       6.07155253      -0.22423811       0.00091923      -0.13604116
Si       0.95148422      -0.38602494       1.64342753       0.09254109      -0.04062907      -0.09396400
8
Lattice="3.776345286641241 -0.7869553552113859 0.3726035993351787 -2.4962706844093963 6.259614863837646 -1.5407345009023394 0.2992743772958417 -4.212114366920391 8.23895880982945" Properties=species:S:1:pos:R:3:forces:R:3 unique_starting_index=306 config_type=initial n_minim_iter=8 energy=-1303.491191245874 stress="-0.00213337535043309 0.0013114962005870803 -0.0001460946170553211 0.0013114962005870803 -0.0008831728377308645 -0.0003359922286505042 -0.0001460946170553211 -0.0003359922286505042 0.0002783671374712195" free_energy=-1303.491191245874 pbc="T T T"
Si       0.33250804       4.83375735      -0.90480082      -0.08007234       0.36927759       0.01258935
Si      -0.94006902       1.56709641       4.02403428       0.22041430       0.07608227       0.25472131
Si       1.51196025       1.88721145       1.08291248      -0.14765895      -0.25121859      -0.11181338
Si       1.01159516       1.94733741       5.40053981      -0.09880968      -0.19873439      -0.23162711
Si       2.54745515      -1.48751280       4.91224443      -0.12181919      -0.04398232      -0.02297996
Si      -0.38725120       2.82747772       2.09625426       0.10234243       0.01651960       0.12681189
Si       0.47060289      -1.36138447       6.07204653      -0.07356363       0.08183236       0.03660023
Si       0.94149179      -0.38125591       1.63882804       0.19916705      -0.04977652      -0.06430233
8
Lattice="3.7939642994633584 -0.7990688638153244 0.37254794981492134 -2.525801952234499 6.274916739364229 -1.5257296595280458 0.31636383290422965 -4.19919057364418 8.232022774662942" Properties=species:S:1:pos:R:3:forces:R:3 unique_starting_index=306 config_type=initial n_minim_iter=9 energy=-1303.5015731329145 stress="0.002306099242174045 -0.0011392441651984927 3.665383329955376e-05 -0.0011392441651984927 -0.00018058838327056467 0.0022479237800086672 3.665383329955376e-05 0.0022479237800086672 0.0004919867053665595" free_energy=-1303.5015731329145 pbc="T T T"
Si       0.31588846       4.84725125      -0.89286603      -0.04767681       0.25281508       0.04280881
Si      -0.94140883       1.58537615       4.03712042       0.12995086       0.09331306       0.24504191
Si       1.51309984       1.88247996       1.09027089      -0.13419948      -0.14944614      -0.04176373
Si       1.00913920       1.95976036       5.40471202       0.01062866      -0.19417274      -0.24510226
Si       2.55962120      -1.48489366       4.91047968      -0.13359589      -0.05216666       0.01496474
Si      -0.39210532       2.83777920       2.10931632       0.10655193       0.01067004       0.01201046
Si       0.47501297      -1.34639856       6.06907318      -0.06847408       0.12894824       0.04625667
Si       0.95041890      -0.38312543       1.63654218       0.13681482      -0.08996087      -0.07421660
8
Lattice="3.789336902549822 -0.8128496314789204 0.36390309023048834 -2.5334872457224042 6.31841394705688 -1.5284888601188387 0.30572637087314497 -4.233498490421527 8.242533674925973" Properties=species:S:1:pos:R:3:forces:R:3 unique_starting_index=306 config_type=initial n_minim_iter=10 energy=-1303.5110049735833 stress="-0.0011991118824267706 -0.0014653608032372688 -0.0037988191973617057 -0.0014653608032372688 0.006015799599723712 0.0011258059829206068 -0.0037988191973617057 0.0011258059829206068 -0.0006625494674985915" free_energy=-1303.5110049735833 pbc="T T T"
Si       0.30148992       4.89147024      -0.90360497      -0.02902432       0.07271500      -0.04550419
Si      -0.94290792       1.59798373       4.05817621      -0.05674214      -0.03295194       0.03687851
Si       1.50781615       1.87377640       1.09026845      -0.16548002      -0.12735036      -0.00843422
Si       0.98647448       1.95758299       5.39316340       0.25440931      -0.02072467      -0.10388854
Si       2.53693316      -1.50408958       4.90567087      -0.19131463       0.07140570       0.01180629
Si      -0.39183202       2.84703273       2.11707676       0.10301609      -0.03557636      -0.02791774
Si       0.44975561      -1.35294236       6.06482288      -0.03220473       0.06539688       0.14190129
Si       0.94954644      -0.39699881       1.62860479       0.11734046       0.00708573      -0.00484140
8
Lattice="3.8002324559791285 -0.8087514234634899 0.3765995593219794 -2.541515092203526 6.297312209205017 -1.5428514017724484 0.3276810206083596 -4.221891600865468 8.275080236559386" Properties=species:S:1:pos:R:3:forces:R:3 unique_starting_index=306 config_type=initial n_minim_iter=11 energy=-1303.518066856497 stress="0.0013963384802749576 -0.0010713173491368267 -0.00034402323624134766 -0.0010713173491368267 0.0022827782632371214 0.0011274182800032856 -0.00034402323624134766 0.0011274182800032856 0.0005350709425292106" free_energy=-1303.518066856497 pbc="T T T"
Si       0.30118985       4.88259232      -0.91199668       0.04425178       0.01774834      -0.01380194
Si      -0.92952675       1.59548986       4.08021274       0.00641079      -0.02912992      -0.01931738
Si       1.52412953       1.85794939       1.10785330      -0.08154111      -0.03747957       0.01871789
Si       1.00800511       1.95125688       5.41332642       0.21320251       0.00903502      -0.10648584
Si       2.54852769      -1.49633297       4.92867083      -0.19903502       0.02273263       0.05846969
Si      -0.37543747       2.83028805       2.12958244       0.01003749      -0.02221951      -0.06019316
Si       0.45450597      -1.34241981       6.07930764      -0.01998550       0.08117295       0.13459468
Si       0.95411848      -0.40150625       1.63253069       0.02665905      -0.04185993      -0.01198393
8
Lattice="3.799042841545532 -0.7992363068051944 0.3754350115897458 -2.52912801503763 6.275413355472423 -1.5410832490405824 0.3179603031445748 -4.211974280430919 8.259920962352309" Properties=species:S:1:pos:R:3:forces:R:3 unique_starting_index=306 config_type=initial n_minim_iter=12 energy=-1303.5210462105115 stress="0.0005648906774388128 0.00015159755984211852 0.0009581981113489255 0.00015159755984211852 -0.0014517141331810482 0.000542922858346877 0.0009581981113489255 0.000542922858346877 -0.00022780117857050273" free_energy=-1303.5210462105115 pbc="T T T"
Si       0.31404303       4.87542804      -0.90758916       0.08368942      -0.01561888      -0.03967744
Si      -0.92681585       1.58567336       4.07159931       0.05468869      -0.03882451      -0.09356323
Si       1.51468492       1.85536334       1.09459228       0.03462256       0.00663696       0.05960407
Si       1.01561589       1.93984678       5.39451188       0.14793275       0.06039281      -0.01641750
Si       2.54589320      -1.49048736       4.92421428      -0.15893037       0.00654469       0.06230639
Si      -0.37631558       2.82525157       2.11915236      -0.07519238      -0.04240430      -0.04524694
Si       0.45579154      -1.34153371       6.07999163      -0.04762119       0.07803628       0.06702364
Si       0.95860039      -0.39590972       1.63144825      -0.03918949      -0.05476305       0.00597101
8
Lattice="3.7984116881596077 -0.7976020102388433 0.3787524836301286 -2.5269472362031915 6.2700793860523065 -1.5585065389896344 0.318294338466502 -4.223015285237143 8.291513824850766" Properties=species:S:1:pos:R:3:forces:R:3 unique_starting_index=306 config_type=initial n_minim_iter=13 energy=-1303.5242845713951 stress="-0.000238128819138065 0.0006226964609362851 0.0011741667958719193 0.0006226964609362851 -0.0019428814879366802 -0.0007942242860505522 0.0011741667958719193 -0.0007942242860505522 4.397475970790507e-05" free_energy=-1303.5242845713951 pbc="T T T"
Si       0.31538614       4.87435441      -0.92663642       0.08569734       0.00612952      -0.03604959
Si      -0.92124668       1.57853310       4.08496076       0.08079760      -0.06045971      -0.12534382
Si       1.52717108       1.84331357       1.10726430       0.00586447       0.01307933       0.02660417
Si       1.02272891       1.93243155       5.40541979       0.13013980       0.07385668      -0.00558617
Si       2.53359998      -1.49353540       4.93859522      -0.15961260       0.00067527       0.07114765
Si      -0.36567795       2.80957321       2.12511805      -0.07724764      -0.02922288      -0.01845229
Si       0.44367021      -1.34270768       6.09005499      -0.03800616       0.04298740       0.07324831
Si       0.95431061      -0.40551583       1.63218237      -0.02763280      -0.04704561       0.01443174
8
Lattice="3.798230167069508 -0.7972008686612554 0.3746573041007824 -2.52277617369252 6.271657113030875 -1.5790958379532953 0.30073976799432506 -4.2438457427014855 8.349086768178083" Properties=species:S:1:pos:R:3:forces:R:3 unique_starting_index=306 config_type=initial n_minim_iter=14 energy=-1303.531272775619 stress="-0.0019996991879944036 0.0010390760790086953 -7.594367424782909e-05 0.0010390760790086953 -0.00033916176659321495 -0.002457019393427451 -7.594367424782909e-05 -0.002457019393427451 0.000309960722053421" free_energy=-1303.531272775619 pbc="T T T"
Si       0.32180461       4.88817575      -0.96355829       0.04791410       0.03779894      -0.01144418
Si      -0.91274700       1.56950395       4.11270737       0.09462930      -0.11472723      -0.14490545
Si       1.54610964       1.81789399       1.13429357      -0.09623459       0.04105564      -0.06393326
Si       1.03724721       1.93028316       5.41980539       0.09300550       0.05863101       0.04617329
Si       2.47868758      -1.49616715       4.96443196      -0.06957401      -0.02015782       0.05167503
Si      -0.35184212       2.78305362       2.14111668      -0.02641607       0.05850046       0.04789282
Si       0.39995822      -1.33298330       6.11602627      -0.07430012      -0.04965926       0.02333900
Si       0.94546426      -0.42970464       1.62982722       0.03097589      -0.01144175       0.05120274
8
Lattice="3.8028082907989496 -0.799530392876015 0.36435693326733165 -2.5269181938736143 6.277793019745713 -1.5495123196933331 0.2894013441793952 -4.225069896348727 8.306056250289691" Properties=species:S:1:pos:R:3:forces:R:3 unique_starting_index=306 config_type=initial n_minim_iter=15 energy=-1303.5380000681862 stress="-0.0004716330527599606 0.0001598015834845537 -0.0002203891900613816 0.0001598015834845537 -0.0007338222495659186 -9.788746316489184e-06 -0.0002203891900613816 -9.788746316489184e-06 -0.0007499867724206677" free_energy=-1303.5380000681862 pbc="T T T"
Si       0.32842229       4.89688860      -0.94074240       0.00137185       0.02215296      -0.00780812
Si      -0.91751983       1.57505527       4.09125091       0.10679116      -0.07312460      -0.03167093
Si       1.52306128       1.82864685       1.11793263      -0.03179270       0.06490407      -0.01158768
Si       1.04262369       1.94474888       5.39728378       0.01931571      -0.03086327       0.07467415
Si       2.46771566      -1.48853429       4.95001796       0.02579256      -0.03274883       0.00985257
Si      -0.37220329       2.80177102       2.13280160      -0.01675021       0.07327273       0.02698574
Si       0.39892102      -1.31973247       6.11394570      -0.14734494      -0.00280662      -0.10363335
Si       0.95302981      -0.42294487       1.62780200       0.04261657      -0.02078644       0.04318763
8
Lattice="3.8088780347508484 -0.8057158470864428 0.36600388761601294 -2.539187653831404 6.289502406195546 -1.551292740734297 0.2973852914189626 -4.225569241261512 8.336619466932436" Properties=species:S:1:pos:R:3:forces:R:3 unique_starting_index=306 config_type=initial n_minim_iter=16 energy=-1303.540377369474 stress="0.0013437749077057923 -0.00046306253956199337 -5.958393141319469e-05 -0.00046306253956199337 0.0016615348564350612 0.0008922150893846829 -5.958393141319469e-05 0.0008922150893846829 0.0005904023491665384" free_energy=-1303.540377369474 pbc="T T T"
Si       0.32385935       4.91125007      -0.94781851       0.00633253      -0.04180688       0.02480311
Si      -0.90723012       1.57924274       4.11087503       0.07959186      -0.05028226       0.01687997
Si       1.52740920       1.82274478       1.13462136      -0.03144541       0.09124596      -0.01144889
Si       1.05526958       1.95352482       5.41935020       0.02933794      -0.06937459       0.03285398
Si       2.45433506      -1.48839550       4.97083417       0.02817274      -0.02420229      -0.00805377
Si      -0.36910320       2.80330550       2.14978734      -0.03402917       0.09459571      -0.00514427
Si       0.38238932      -1.30669104       6.12998181      -0.10686506       0.00181664      -0.08117897
Si       0.95568420      -0.43364095       1.63178254       0.02890458      -0.00199229       0.03128885
8
Lattice="3.8021075455150544 -0.804832818662238 0.36993800528287824 -2.5359539099983675 6.279624543330734 -1.5618042975994086 0.30310209910977515 -4.22789583140691 8.345212053976436" Properties=species:S:1:pos:R:3:forces:R:3 unique_starting_index=306 config_type=initial n_minim_iter=17 energy=-1303.5445874672776 stress="0.00029722210314340336 -0.00018966610669736536 0.00030486905733422893 -0.00018966610669736536 -0.00020182185972990164 4.277151747073485e-05 0.00030486905733422893 4.277151747073485e-05 0.00016810933880664685" free_energy=-1303.5445874672776 pbc="T T T"
Si       0.32673754       4.90171202      -0.95191290       0.03265416      -0.03840417       0.02904787
Si      -0.89244483       1.56021549       4.10109482       0.07772227       0.03179891       0.08000472
Si       1.51439358       1.82994989       1.12623784       0.02106678       0.03222451       0.02042153
Si       1.06535829       1.93764986       5.42616397       0.00771343      -0.08933843      -0.04210702
Si       2.45607231      -1.49637086       4.98127693      -0.06118587       0.04443810      -0.05198019
Si      -0.37625561       2.80726111       2.14396250      -0.08241174      -0.01917349      -0.01470849
Si       0.37536775      -1.31406690       6.13081032       0.00440118      -0.00081981       0.00142042
Si       0.96050240      -0.43441049       1.64161311       0.00003979       0.03927438      -0.02209885
8
Lattice="3.8015735257305026 -0.8023611737876554 0.3668965116643632 -2.531022898822602 6.275661089549975 -1.564294528617159 0.2928425923928989 -4.22978042542329 8.356531520123054" Properties=species:S:1:pos:R:3:forces:R:3 unique_starting_index=306 config_type=initial n_minim_iter=18 energy=-1303.545892920435 stress="-0.00043127870708728174 0.00031265117637995285 -0.00036561756612528033 0.00031265117637995285 1.5072025217471448e-05 -0.0004940950526685472 -0.00036561756612528033 -0.0004940950526685472 5.519520248271846e-05" free_energy=-1303.545892920435 pbc="T T T"
Si       0.33490378       4.90689744      -0.95819704       0.03716393      -0.07399289       0.01967032
Si      -0.88116918       1.55283185       4.10838512       0.04023894       0.02669683       0.03503530
Si       1.51122540       1.82640792       1.12763887       0.02870344       0.04620446       0.02067406
Si       1.07486075       1.93051228       5.42448681       0.01778158      -0.04040691       0.01132141
Si       2.43368589      -1.49491794       4.98733244      -0.03059764       0.05220281      -0.06492132
Si      -0.37891601       2.80395161       2.14608779      -0.08497133      -0.03199827       0.00210591
Si       0.35527707      -1.30903009       6.13816206       0.00941036      -0.04073496      -0.00748479
Si       0.96290926      -0.43916661       1.64230714      -0.01772928       0.06202892      -0.01640089
8
Lattice="3.8013366985799366 -0.803011968240674 0.37236910268995344 -2.534745203235849 6.274439896397429 -1.5568930782215302 0.3085358943633403 -4.216767439469631 8.342634251233049" Properties=species:S:1:pos:R:3:forces:R:3 unique_starting_index=306 config_type=initial n_minim_iter=19 energy=-1303.5487669541037 stress="-0.0010546411186951026 -0.0002451122242284862 4.32485976001739e-05 -0.0002451122242284862 -0.0002892345117524766 0.00039230987382827436 4.32485976001739e-05 0.00039230987382827436 -0.0006674061882898222" free_energy=-1303.5487669541037 pbc="T T T"
Si       0.33857438       4.89685790      -0.94195736      -0.02453092      -0.06023645       0.01191491
Si      -0.86058282       1.55704666       4.11028273      -0.00397026       0.05545971      -0.00980296
Si       1.50813619       1.84087772       1.13013705      -0.04421730       0.01699469      -0.00348648
Si       1.08894708       1.92655319       5.42680454       0.05398351       0.03249004       0.01632279
Si       2.43872502      -1.48425354       4.97841692      -0.00463413      -0.02847931      -0.01369044
Si      -0.39239985       2.81263864       2.14532448       0.02149800      -0.01391963       0.02518492
Si       0.36208582      -1.30418303       6.12940466      -0.02745467      -0.02738168       0.00996948
Si       0.96812274      -0.42930452       1.64384440       0.02932578       0.02507263      -0.03641221
8
Lattice="3.805220095074037 -0.801254176988047 0.37249335635955555 -2.534530681567704 6.272835098329324 -1.5593076155390946 0.3062615776854692 -4.218336780363911 8.34837052559646" Properties=species:S:1:pos:R:3:forces:R:3 unique_starting_index=306 config_type=initial n_minim_iter=20 energy=-1303.5492541052192 stress="3.473204515125292e-05 -8.859127844057126e-05 -1.9412076462989182e-05 -8.859127844057126e-05 -0.00011109523084319298 0.00011021437604681767 -1.9412076462989182e-05 0.00011021437604681767 -0.00011924889081969494" free_energy=-1303.5492541052192 pbc="T T T"
Si       0.34271970       4.89503428      -0.94391716      -0.03265796      -0.03998661       0.01241705
Si      -0.85772702       1.55522727       4.11233019      -0.00013198       0.04818814       0.00395245
Si       1.51033790       1.84247262       1.13147905      -0.04771345       0.00749130      -0.00489955
Si       1.09458602       1.92466670       5.42985372       0.03630735       0.02482930       0.01148225
Si       2.43704679      -1.48379340       4.98057144      -0.00761395      -0.02064952       0.00070147
Si      -0.39312277       2.81120630       2.14631537       0.02560375      -0.01475462       0.01917931
Si       0.35746664      -1.30507185       6.13176476      -0.01334364      -0.02685061       0.00136806
Si       0.96920382      -0.42912492       1.64416380       0.03954989       0.02173262      -0.04420104
8
Lattice="3.80808980769192 -0.7995418279631628 0.37274053261372053 -2.53332047751582 6.273568567325508 -1.5615149224155178 0.30397104954977516 -4.22105621505849 8.354671460625338" Properties=species:S:1:pos:R:3:forces:R:3 unique_starting_index=306 config_type=initial n_minim_iter=21 energy=-1303.5497443075549 stress="0.000832052276404879 0.00031383209370107067 0.0001534418515439503 0.00031383209370107067 0.0003700932794050644 -0.0003019931959888459 0.0001534418515439503 -0.0003019931959888459 0.0006428581903535722" free_energy=-1303.5497443075549 pbc="T T T"
Si       0.34655828       4.89235863      -0.94400672      -0.02610299      -0.01015746      -0.01210901
Si      -0.85315140       1.55609338       4.11550877       0.00283908       0.00232391       0.02465284
Si       1.50952414       1.84701472       1.13208141      -0.02502388      -0.01274796      -0.00345428
Si       1.10204556       1.92341527       5.43444328       0.00142078       0.00459317       0.02183803
Si       2.43483250      -1.48392538       4.98249081      -0.00321982       0.00835124       0.02047677
Si      -0.39472158       2.81108755       2.14814944       0.01327641      -0.00331196      -0.00195826
Si       0.35256530      -1.30819508       6.13490938       0.00259461      -0.00392250      -0.00900142
Si       0.97199161      -0.42661388       1.64277502       0.03421582       0.01487155      -0.04044468
