18
Lattice="5.283198236165984 0.0 0.0 0.0 5.600730316915033 -3.052043148281012e-19 0.0 6.042101376798952e-19 11.087713611772363" Properties=species:S:1:pos:R:3:forces:R:3 unique_starting_index=36 config_type=initial n_minim_iter=1 energy=-2927.209531205184 stress="-0.003981817274657408 4.39661249397957e-12 -1.1911992535338878e-12 4.39661249397957e-12 -0.005460342316595637 -6.730821074326417e-12 -1.1911992535338878e-12 -6.730821074326417e-12 -0.002841696133217642" free_energy=-2927.209531205184 pbc="T T T"
Si       3.46728030       5.21158395      10.28078057       0.08585618      -0.34476921       0.17352895
Si       1.81591794       5.21158395       0.80693304      -0.08585618      -0.34476921      -0.17352895
Si       4.45751706       5.21158395       4.73692377      -0.08585618      -0.34476921       0.17352895
Si       0.82568118       5.21158395       6.35078985       0.08585618      -0.34476921      -0.17352895
Si       0.55738992       1.54680439       1.21833275       0.01353828       0.61118200       0.21682240
Si       4.72580832       1.54680439       9.86938086      -0.01353828       0.61118200      -0.21682240
Si       2.08420920       1.54680439       6.76218956      -0.01353828       0.61118200       0.21682240
Si       3.19898903       1.54680439       4.32552405       0.01353828       0.61118200      -0.21682240
Si       2.20789089       3.96815136       2.93160316      -0.03249104      -0.37697697      -0.01237836
Si       3.07530734       3.96815136       8.15611045       0.03249104      -0.37697697       0.01237837
Si       0.43370823       3.96815136       8.47545997       0.03249104      -0.37697697      -0.01237836
Si       4.84949001       3.96815136       2.61225364      -0.03249104      -0.37697697       0.01237837
Si       3.90717525       0.48903411       2.07129122      -0.46425312       0.31308158       0.01439008
Si       1.37602298       0.48903411       9.01642239       0.46425312       0.31308158      -0.01439008
Si      -1.26557614       0.48903411       7.61514803       0.46425312       0.31308158       0.01439008
Si       6.54877437       0.48903411       3.47256559      -0.46425312       0.31308158      -0.01439008
Si      -0.00000000       3.72405235      -0.00000000       0.00000000      -0.40503479      -0.00000000
Si       2.64159912       3.72405235       5.54385681       0.00000000      -0.40503479      -0.00000000
18
Lattice="5.306568125517976 0.0 0.0 0.0 5.634731900491992 -3.0471212191133964e-19 0.0 6.10766922336939e-19 11.122693906199226" Properties=species:S:1:pos:R:3:forces:R:3 unique_starting_index=36 config_type=initial n_minim_iter=2 energy=-2927.2267821849387 stress="0.004023572387378863 -2.5998375056684055e-12 8.897670085362759e-13 -2.5998375056684055e-12 0.001633318371917949 -2.302989938043091e-12 8.897670085362759e-13 -2.302989938043091e-12 0.002935261854213864" free_energy=-2927.2267821849387 pbc="T T T"
Si       3.48290895       5.24205115      10.31380323       0.08565115      -0.28478786       0.15766708
Si       1.82365918       5.24205115       0.80889068      -0.08565115      -0.28478786      -0.15766708
Si       4.47694324       5.24205115       4.75245628      -0.08565115      -0.28478786       0.15766708
Si       0.82962488       5.24205115       6.37023763       0.08565115      -0.28478786      -0.15766708
Si       0.55990144       1.55827238       1.22291130      -0.01318479       0.48303638       0.22481250
Si       4.74666669       1.55827238       9.89978260       0.01318479       0.48303637      -0.22481250
Si       2.09338263       1.55827238       6.78425826       0.01318479       0.48303637       0.22481250
Si       3.21318550       1.55827238       4.33843565      -0.01318479       0.48303637      -0.22481250
Si       2.21754710       3.99096031       2.94081004      -0.04130517      -0.26427001      -0.01102003
Si       3.08902103       3.99096031       8.18188387       0.04130517      -0.26427001       0.01102003
Si       0.43573697       3.99096031       8.50215699       0.04130517      -0.26427001      -0.01102003
Si       4.87083116       3.99096031       2.62053692      -0.04130517      -0.26427001       0.01102003
Si       3.92288293       0.49306720       2.07787465      -0.41011181       0.24214345       0.02229249
Si       1.38368519       0.49306720       9.04481926       0.41011181       0.24214345      -0.02229249
Si      -1.26959887       0.49306720       7.63922160       0.41011181       0.24214345       0.02229249
Si       6.57616700       0.49306720       3.48347231      -0.41011181       0.24214345      -0.02229249
Si      -0.00000000       3.74528402      -0.00000000      -0.00000000      -0.35224390      -0.00000000
Si       2.65328406       3.74528402       5.56134695      -0.00000000      -0.35224389       0.00000000
18
Lattice="5.263984529441207 0.0 0.0 0.0 5.677144183440184 -3.1269143611293926e-19 0.0 5.958744230491936e-19 11.055554358871818" Properties=species:S:1:pos:R:3:forces:R:3 unique_starting_index=36 config_type=initial n_minim_iter=3 energy=-2927.2881201737714 stress="-0.0014578186079282724 -3.146097121772392e-12 5.128905913695965e-12 -3.146097121772392e-12 0.0060438563975350355 3.0663321342785693e-12 5.128905913695965e-12 3.0663321342785693e-12 -0.0010288556428199162" free_energy=-2927.2881201737714 pbc="T T T"
Si       3.45692084       5.27435366      10.25528816       0.25073810      -0.17216388       0.03898861
Si       1.80706369       5.27435366       0.80026620      -0.25073810      -0.17216388      -0.03898861
Si       4.43905595       5.27435366       4.72751098      -0.25073810      -0.17216388       0.03898861
Si       0.82492857       5.27435366       6.32804338       0.25073810      -0.17216388      -0.03898860
Si       0.55533414       1.58236424       1.22060419       0.08743240       0.31998288       0.18442302
Si       4.70865039       1.58236424       9.83495017      -0.08743240       0.31998288      -0.18442302
Si       2.07665812       1.58236424       6.74838137      -0.08743240       0.31998288       0.18442302
Si       3.18732641       1.58236424       4.30717299       0.08743240       0.31998288      -0.18442302
Si       2.19888201       4.01386756       2.92279487      -0.09815196      -0.20141405       0.02190190
Si       3.06510252       4.01386756       8.13275949       0.09815196      -0.20141405      -0.02190190
Si       0.43311025       4.01386756       8.45057205       0.09815196      -0.20141405       0.02190190
Si       4.83087428       4.01386756       2.60498231      -0.09815196      -0.20141405      -0.02190190
Si       3.88156024       0.50303390       2.06577471      -0.35204597       0.17472769       0.03067789
Si       1.38242429       0.50303390       8.98977965       0.35204597       0.17472769      -0.03067789
Si      -1.24956797       0.50303390       7.59355189       0.35204597       0.17472769       0.03067789
Si       6.51355250       0.50303390       3.46200247      -0.35204597       0.17472769      -0.03067789
Si      -0.00000000       3.76481112      -0.00000000      -0.00000000      -0.24226527       0.00000000
Si       2.63199226       3.76481112       5.52777718      -0.00000000      -0.24226527      -0.00000000
18
Lattice="5.257341593622096 0.0 0.0 0.0 5.474168825341997 -3.0377547334938837e-19 0.0 5.902528023330158e-19 11.029156522415944" Properties=species:S:1:pos:R:3:forces:R:3 unique_starting_index=36 config_type=initial n_minim_iter=4 energy=-2927.501824792798 stress="-0.003427073757247165 -1.3994726196320768e-11 -5.907817734735884e-12 -1.3994726196320768e-11 -0.0011218977104156694 -1.3892105280800082e-12 -5.907817734735884e-12 -1.3892105280800082e-12 -0.013848178485942166" free_energy=-2927.501824792798 pbc="T T T"
Si       3.47270507       5.04506415      10.25040996       0.18083881       0.13121735       0.03556253
Si       1.78463652       5.04506415       0.77874656      -0.18083881       0.13121735      -0.03556253
Si       4.41330732       5.04506415       4.73583170      -0.18083881       0.13121735       0.03556253
Si       0.84403427       5.04506415       6.29332482       0.18083881       0.13121735      -0.03556253
Si       0.55820561       1.59726321       1.24976426       0.18250555      -0.29568733       0.51909850
Si       4.69913598       1.59726321       9.77939227      -0.18250555      -0.29568734      -0.51909850
Si       2.07046519       1.59726321       6.76434252      -0.18250555      -0.29568733       0.51909850
Si       3.18687641       1.59726321       4.26481400       0.18250555      -0.29568733      -0.51909850
Si       2.18778764       3.82816730       2.91549379      -0.20802543      -0.07699345      -0.18380572
Si       3.06955396       3.82816730       8.11366273       0.20802543      -0.07699345       0.18380572
Si       0.44088316       3.82816730       8.43007205       0.20802543      -0.07699345      -0.18380572
Si       4.81645843       3.82816730       2.59908447      -0.20802543      -0.07699345       0.18380572
Si       3.81422150       0.52180149       2.06422376      -0.05450389       0.08133599      -0.11943667
Si       1.44312010       0.52180149       8.96493277       0.05450389       0.08133599       0.11943666
Si      -1.18555070       0.52180149       7.57880202       0.05450389       0.08133599      -0.11943666
Si       6.44289229       0.52180149       3.45035450      -0.05450389       0.08133599       0.11943667
Si      -0.00000000       3.57957026      -0.00000000      -0.00000000       0.32025488      -0.00000000
Si       2.62867080       3.57957026       5.51457826      -0.00000000       0.32025488      -0.00000000
18
Lattice="5.174953117075037 0.0 0.0 0.0 5.398958232084083 -2.8739535155142473e-19 0.0 6.367035853279396e-19 11.43422825125068" Properties=species:S:1:pos:R:3:forces:R:3 unique_starting_index=36 config_type=initial n_minim_iter=5 energy=-2927.5758104787938 stress="-0.00835962060114662 -3.3975897223482485e-12 -4.475564696508936e-12 -3.3975897223482485e-12 0.00047256366795661125 -6.152816444928405e-12 -4.475564696508936e-12 -6.152816444928405e-12 -0.00025975131119936425" free_energy=-2927.5758104787938 pbc="T T T"
Si       3.42518122       4.96603509      10.63360382      -0.09459340       0.16522490      -0.00510592
Si       1.74977190       4.96603509       0.80062443       0.09459340       0.16522490       0.00510592
Si       4.33724846       4.96603509       4.91648969       0.09459340       0.16522490      -0.00510592
Si       0.83770466       4.96603509       6.51773856      -0.09459340       0.16522490       0.00510592
Si       0.55202635       1.59119564       1.31226188       0.17572999      -0.27190669       0.55686683
Si       4.62292677       1.59119564      10.12196638      -0.17572999      -0.27190669      -0.55686683
Si       2.03545021       1.59119564       7.02937600      -0.17572999      -0.27190669       0.55686683
Si       3.13950291       1.59119564       4.40485225       0.17572999      -0.27190669      -0.55686683
Si       2.14880163       3.76350542       3.01978987      -0.24764959       0.02312219      -0.26344635
Si       3.02615149       3.76350542       8.41443838       0.24764959       0.02312219       0.26344635
Si       0.43867493       3.76350542       8.73690399       0.24764959       0.02312219      -0.26344635
Si       4.73627819       3.76350542       2.69732426      -0.24764959       0.02312219       0.26344635
Si       3.73672958       0.52558440       2.13939387      -0.09414937       0.02361024      -0.02658252
Si       1.43822353       0.52558440       9.29483438       0.09414937       0.02361024       0.02658252
Si      -1.14925302       0.52558440       7.85650800       0.09414937       0.02361024      -0.02658252
Si       6.32420614       0.52558440       3.57772025      -0.09414937       0.02361024       0.02658252
Si      -0.00000000       3.52029083      -0.00000000      -0.00000000       0.11989873       0.00000000
Si       2.58747656       3.52029083       5.71711413       0.00000000       0.11989873       0.00000000
18
Lattice="5.322103905859154 0.0 0.0 0.0 5.300605646678072 -3.3961279459256535e-19 0.0 5.291132929693193e-19 11.516125817681857" Properties=species:S:1:pos:R:3:forces:R:3 unique_starting_index=36 config_type=initial n_minim_iter=6 energy=-2927.671576619349 stress="0.013337290813968086 1.865641580857055e-11 8.935970940444423e-12 1.865641580857055e-11 0.003265395931645355 5.756548930481209e-13 8.935970940444423e-12 5.756548930481209e-13 0.008043189390127135" free_energy=-2927.671576619349 pbc="T T T"
Si       3.52059499       4.87828116      10.71383194      -0.27035275       0.05065094       0.13311867
Si       1.80150892       4.87828116       0.80229388       0.27035275       0.05065095      -0.13311867
Si       4.46256087       4.87828116       4.95576903       0.27035275       0.05065095       0.13311867
Si       0.85954304       4.87828116       6.56035679      -0.27035275       0.05065094      -0.13311867
Si       0.57437509       1.55616267       1.35402282      -0.06085309      -0.15657294       0.63154652
Si       4.74772881       1.55616267      10.16210300       0.06085309      -0.15657294      -0.63154652
Si       2.08667686       1.55616267       7.11208572       0.06085309      -0.15657294       0.63154652
Si       3.23542705       1.55616267       4.40404009      -0.06085309      -0.15657294      -0.63154652
Si       2.19852888       3.69201366       3.02818559      -0.20990542       0.05565489      -0.37855773
Si       3.12357503       3.69201366       8.48794022       0.20990542       0.05565489       0.37855773
Si       0.46252308       3.69201366       8.78624850       0.20990542       0.05565489      -0.37855773
Si       4.85958083       3.69201366       2.72987732      -0.20990542       0.05565489       0.37855773
Si       3.83340287       0.52083665       2.15224446       0.02224702       0.05948178      -0.08198716
Si       1.48870104       0.52083665       9.36388135      -0.02224702       0.05948178       0.08198716
Si      -1.17235091       0.52083665       7.91030737      -0.02224702       0.05948178      -0.08198716
Si       6.49445482       0.52083665       3.60581844       0.02224702       0.05948178       0.08198716
Si      -0.00000000       3.45904076      -0.00000000       0.00000000      -0.01842935       0.00000000
Si       2.66105195       3.45904076       5.75806291       0.00000000      -0.01842935       0.00000000
18
Lattice="5.359910978869395 0.0 0.0 0.0 5.043249383919776 -4.635848820441356e-19 0.0 2.810618177852382e-19 11.71309621185037" Properties=species:S:1:pos:R:3:forces:R:3 unique_starting_index=36 config_type=initial n_minim_iter=7 energy=-2927.916606973083 stress="0.0066972728355577495 -1.668980826442148e-12 -2.919124327269879e-12 -1.668980826442148e-12 -0.010613552838451116 2.33985874245797e-12 -2.919124327269879e-12 2.33985874245797e-12 0.0026697180155784515" free_energy=-2927.916606973083 pbc="T T T"
Si       3.54853082       4.62245866      10.92460053      -0.39138194       0.12220040       0.10724033
Si       1.81138016       4.62245866       0.78849568       0.39138194       0.12220040      -0.10724033
Si       4.49133565       4.62245866       5.06805243       0.39138194       0.12220040       0.10724033
Si       0.86857533       4.62245866       6.64504378      -0.39138194       0.12220040      -0.10724034
Si       0.59560072       1.51010457       1.49782164      -0.11372088      -0.12729714       0.35964143
Si       4.76431026       1.51010457      10.21527457       0.11372088      -0.12729714      -0.35964143
Si       2.08435477       1.51010457       7.35436974       0.11372088      -0.12729714       0.35964143
Si       3.27555621       1.51010457       4.35872647      -0.11372088      -0.12729714      -0.35964143
Si       2.17439602       3.47881742       3.03495452      -0.37897885       0.07394590      -0.53821188
Si       3.18551495       3.47881742       8.67814169       0.37897885       0.07394590       0.53821188
Si       0.50555946       3.47881742       8.89150262       0.37897885       0.07394590      -0.53821188
Si       4.85435151       3.47881742       2.82159359      -0.37897885       0.07394590       0.53821188
Si       3.79627373       0.53228350       2.18203058       0.22264009       0.02990120      -0.37105208
Si       1.56363725       0.53228350       9.53106563      -0.22264009       0.02990120       0.37105208
Si      -1.11631824       0.53228350       8.03857868      -0.22264009       0.02990120      -0.37105208
Si       6.47622921       0.53228350       3.67451753       0.22264009       0.02990120       0.37105208
Si      -0.00000000       3.26445666      -0.00000000       0.00000000      -0.19750072       0.00000000
Si       2.67995549       3.26445666       5.85654811      -0.00000000      -0.19750072       0.00000000
18
Lattice="5.36198156764007 0.0 0.0 0.0 5.023053658270742 -5.342995787229132e-19 0.0 1.3951885021251578e-19 11.702785664743736" Properties=species:S:1:pos:R:3:forces:R:3 unique_starting_index=36 config_type=initial n_minim_iter=8 energy=-2928.0659189939706 stress="0.0021233210412085943 -2.2019277589711453e-12 -1.1254752559932197e-11 -2.2019277589711453e-12 -0.006642050880378622 -2.704679205736142e-13 -1.1254752559932197e-11 -2.704679205736142e-13 -0.0025149095606288667" free_energy=-2928.0659189939706 pbc="T T T"
Si       3.54010094       4.60638395      10.92772713      -0.09487505       0.14396530      -0.02119914
Si       1.82188063       4.60638395       0.77505853       0.09487505       0.14396530       0.02119914
Si       4.50287141       4.60638395       5.07633430       0.09487505       0.14396530      -0.02119914
Si       0.85911016       4.60638395       6.62645136      -0.09487505       0.14396530       0.02119914
Si       0.60692645       1.49873188       1.57991374      -0.19461441       0.14529659      -0.28971097
Si       4.75505512       1.49873188      10.12287193       0.19461441       0.14529659       0.28971097
Si       2.07406434       1.49873188       7.43130657       0.19461441       0.14529659      -0.28971097
Si       3.28791723       1.49873188       4.27147909      -0.19461441       0.14529659       0.28971097
Si       2.14170824       3.45580916       2.98991921      -0.40510039       0.10929815      -0.45184228
Si       3.22027333       3.45580916       8.71286646       0.40510039       0.10929815       0.45184229
Si       0.53928255       3.45580916       8.84131204       0.40510039       0.10929815      -0.45184228
Si       4.82269902       3.45580916       2.86147363      -0.40510039       0.10929815       0.45184229
Si       3.77692389       0.54453001       2.16794153       0.32194175      -0.13496279      -0.64635903
Si       1.58505768       0.54453001       9.53484414      -0.32194175      -0.13496279       0.64635903
Si      -1.09593311       0.54453001       8.01933436      -0.32194175      -0.13496279      -0.64635903
Si       6.45791467       0.54453001       3.68345131       0.32194175      -0.13496279       0.64635903
Si      -0.00000000       3.24656169      -0.00000000       0.00000000      -0.52719450       0.00000000
Si       2.68099078       3.24656169       5.85139283       0.00000000      -0.52719450       0.00000000
18
Lattice="5.304328890220866 0.0 0.0 0.0 5.1547650841723005 -5.5171227311953155e-19 0.0 9.871074628024639e-20 11.611078801334347" Properties=species:S:1:pos:R:3:forces:R:3 unique_starting_index=36 config_type=initial n_minim_iter=9 energy=-2928.1554544263518 stress="-0.002922437914903709 4.942237275751676e-12 -1.541961967079944e-12 4.942237275751676e-12 0.0036181029511448103 -4.0352224099501835e-12 -1.541961967079944e-12 -4.0352224099501835e-12 -0.0018727444784915601" free_energy=-2928.1554544263518 pbc="T T T"
Si       3.49307643       4.74228745      10.83379667       0.18424301       0.11154013      -0.10504924
Si       1.81125246       4.74228745       0.77728213      -0.18424301       0.11154013       0.10504924
Si       4.46341691       4.74228745       5.02825727      -0.18424301       0.11154013      -0.10504924
Si       0.84091199       4.74228745       6.58282153       0.18424301       0.11154013       0.10504924
Si       0.59576954       1.51711470       1.55055273      -0.06811661       0.25643448      -0.21306547
Si       4.70855935       1.51711470      10.06052607       0.06811661       0.25643448       0.21306547
Si       2.05639491       1.51711470       7.35609213       0.06811661       0.25643448      -0.21306547
Si       3.24793398       1.51711470       4.25498667      -0.06811661       0.25643448       0.21306547
Si       2.11473242       3.56221668       2.95837238      -0.32260070       0.04972189      -0.29464146
Si       3.18959647       3.56221668       8.65270643       0.32260070       0.04972189       0.29464146
Si       0.53743202       3.56221668       8.76391178       0.32260070       0.04972189      -0.29464146
Si       4.76689687       3.56221668       2.84716702      -0.32260070       0.04972189       0.29464146
Si       3.76378201       0.54476016       2.13920676       0.15146905      -0.10946203      -0.41471651
Si       1.54054688       0.54476016       9.47187204      -0.15146905      -0.10946203       0.41471651
Si      -1.11161756       0.54476016       7.94474617      -0.15146905      -0.10946203      -0.41471651
Si       6.41594645       0.54476016       3.66633264       0.15146905      -0.10946203       0.41471651
Si      -0.00000000       3.33980112      -0.00000000      -0.00000000      -0.61646894       0.00000000
Si       2.65216445       3.33980112       5.80553940      -0.00000000      -0.61646894      -0.00000000
18
Lattice="5.313589878079889 0.0 0.0 0.0 5.029565975705727 -5.965881575079532e-19 0.0 3.5721840961693245e-20 11.888310111878766" Properties=species:S:1:pos:R:3:forces:R:3 unique_starting_index=36 config_type=initial n_minim_iter=10 energy=-2928.390285057265 stress="-0.006526787648019549 4.605379593187232e-13 1.2009517484928386e-11 4.605379593187232e-13 0.0018584572129239135 2.098951998761392e-12 1.2009517484928386e-11 2.098951998761392e-12 0.0008382957452537708" free_energy=-2928.390285057265 pbc="T T T"
Si       3.49453970       4.63633887      11.10307290       0.26544284       0.08707311       0.02908489
Si       1.81905018       4.63633887       0.78523721      -0.26544284       0.08707311      -0.02908489
Si       4.47584512       4.63633887       5.15891784      -0.26544283       0.08707311       0.02908489
Si       0.83774476       4.63633887       6.72939227       0.26544283       0.08707311      -0.02908489
Si       0.59990308       1.49293475       1.67158647      -0.07248774       0.31546953      -0.42998438
Si       4.71368680       1.49293475      10.21672364       0.07248774       0.31546953       0.42998438
Si       2.05689186       1.49293475       7.61574153       0.07248774       0.31546953      -0.42998438
Si       3.25669802       1.49293475       4.27256858      -0.07248774       0.31546953       0.42998438
Si       2.04747350       3.46772939       2.94235269      -0.25788263      -0.00865567      -0.20119484
Si       3.26611637       3.46772939       8.94595742       0.25788263      -0.00865567       0.20119484
Si       0.60932144       3.46772939       8.88650775       0.25788263      -0.00865567      -0.20119484
Si       4.70426844       3.46772939       3.00180237      -0.25788263      -0.00865567       0.20119484
Si       3.75923046       0.54258444       2.12819500       0.02486906      -0.13335885      -0.25792403
Si       1.55435942       0.54258444       9.76011511      -0.02486906      -0.13335885       0.25792403
Si      -1.10243552       0.54258444       8.07235005      -0.02486906      -0.13335885      -0.25792403
Si       6.41602540       0.54258444       3.81596006       0.02486906      -0.13335885       0.25792403
Si      -0.00000000       3.20870906      -0.00000000       0.00000000      -0.52105624      -0.00000000
Si       2.65679494       3.20870906       5.94415506       0.00000000      -0.52105624      -0.00000000
18
Lattice="5.362424604086594 0.0 0.0 0.0 4.933668559773185 -6.1579280145715505e-19 0.0 9.086053369740177e-21 12.003999926860788" Properties=species:S:1:pos:R:3:forces:R:3 unique_starting_index=36 config_type=initial n_minim_iter=11 energy=-2928.519189922955 stress="-0.0012561202427887614 3.760066452719683e-12 -5.138709739274307e-12 3.760066452719683e-12 6.0568740150115154e-05 -5.493503094132355e-12 -5.138709739274307e-12 -5.493503094132355e-12 0.0017283160396947249" free_energy=-2928.519189922955 pbc="T T T"
Si       3.53042500       4.55376830      11.21895149       0.29049003       0.05493620       0.26232046
Si       1.83199961       4.55376830       0.78504844      -0.29049004       0.05493620      -0.26232046
Si       4.51321191       4.55376830       5.21695153      -0.29049003       0.05493620       0.26232046
Si       0.84921269       4.55376830       6.78704840       0.29049003       0.05493620      -0.26232046
Si       0.60262771       1.48379811       1.72567388      -0.08382784       0.20243509      -0.34800979
Si       4.75979689       1.48379811      10.27832605       0.08382785       0.20243509       0.34800979
Si       2.07858459       1.48379811       7.72767384       0.08382785       0.20243509      -0.34800979
Si       3.28384002       1.48379811       4.27632609      -0.08382785       0.20243509       0.34800979
Si       2.01213408       3.39574669       2.90685607      -0.19134115      -0.06146498       0.03155921
Si       3.35029053       3.39574669       9.09714386       0.19134115      -0.06146498      -0.03155921
Si       0.66907823       3.39574669       8.90885603       0.19134115      -0.06146498       0.03155921
Si       4.69334638       3.39574669       3.09514389      -0.19134115      -0.06146498      -0.03155921
Si       3.78867576       0.53707720       2.09549878      -0.00274943      -0.12122104      -0.10284826
Si       1.57374884       0.53707720       9.90850115       0.00274943      -0.12122104       0.10284826
Si      -1.10746346       0.53707720       8.09749874       0.00274943      -0.12122104      -0.10284826
Si       6.46988806       0.53707720       3.90650118      -0.00274943      -0.12122104       0.10284826
Si      -0.00000000       3.09926604      -0.00000000      -0.00000000      -0.14937057       0.00000000
Si       2.68121230       3.09926604       6.00199996      -0.00000000      -0.14937057       0.00000000
18
Lattice="5.368501754946607 0.0 0.0 0.0 4.924884886837276 -6.168728389004997e-19 0.0 3.57999584344252e-21 11.971040749819332" Properties=species:S:1:pos:R:3:forces:R:3 unique_starting_index=36 config_type=initial n_minim_iter=12 energy=-2928.5762993167023 stress="-0.0002782742755749276 1.0698741253018634e-11 5.9089131932713736e-12 1.0698741253018634e-11 -0.0012772806745852889 3.750446321233667e-12 5.9089131932713736e-12 3.750446321233667e-12 0.0009524227233633249" free_energy=-2928.5762993167023 pbc="T T T"
Si       3.54523389       4.54505967      11.19275225       0.24092957       0.06516187       0.34824886
Si       1.82326786       4.54505967       0.77828850      -0.24092957       0.06516187      -0.34824886
Si       4.50751874       4.54505967       5.20723188      -0.24092957       0.06516187       0.34824886
Si       0.86098302       4.54505967       6.76380887       0.24092957       0.06516187      -0.34824886
Si       0.59688612       1.49682732       1.69988934       0.00297153       0.00885038      -0.10129916
Si       4.77161563       1.49682732      10.27115141      -0.00297153       0.00885039       0.10129916
Si       2.08736475       1.49682732       7.68540971      -0.00297153       0.00885039      -0.10129916
Si       3.28113700       1.49682732       4.28563104       0.00297153       0.00885039       0.10129916
Si       2.00308238       3.38752837       2.89210246      -0.19355997      -0.06184321       0.08103549
Si       3.36541938       3.38752837       9.07893829       0.19355997      -0.06184321      -0.08103549
Si       0.68116850       3.38752837       8.87762284       0.19355997      -0.06184321       0.08103549
Si       4.68733325       3.38752837       3.09341791      -0.19355997      -0.06184321      -0.08103549
Si       3.79532902       0.53361781       2.07326674      -0.04416257      -0.09308106      -0.00711029
Si       1.57317274       0.53361781       9.89777401       0.04416257      -0.09308106       0.00711029
Si      -1.11107814       0.53361781       8.05878712       0.04416257      -0.09308106      -0.00711029
Si       6.47957989       0.53361781       3.91225363      -0.04416257      -0.09308106       0.00711029
Si      -0.00000000       3.07296089      -0.00000000       0.00000000       0.16182402      -0.00000000
Si       2.68425088       3.07296089       5.98552037       0.00000000       0.16182402      -0.00000000
18
Lattice="5.377645575098755 0.0 0.0 0.0 4.940398623604865 -6.129240228034584e-19 0.0 9.503825394053741e-22 11.868770002479014" Properties=species:S:1:pos:R:3:forces:R:3 unique_starting_index=36 config_type=initial n_minim_iter=13 energy=-2928.6111589298407 stress="0.0013501625063029215 -1.5239348202562605e-12 -4.35212994944051e-12 -1.5239348202562605e-12 -0.00022693809859626658 2.8860444086344123e-12 -4.35212994944051e-12 2.8860444086344123e-12 -0.0021261085596198915" free_energy=-2928.6111589298407 pbc="T T T"
Si       3.57182922       4.55859287      11.11631882       0.23347668       0.11354772       0.31148259
Si       1.80581635       4.55859287       0.75245118      -0.23347668       0.11354771      -0.31148259
Si       4.49463914       4.55859287       5.18193382      -0.23347668       0.11354771       0.31148259
Si       0.88300643       4.55859287       6.68683618       0.23347668       0.11354772      -0.31148259
Si       0.59266134       1.51980029       1.66432810       0.08423764      -0.26712209       0.17227766
Si       4.78498423       1.51980029      10.20444191      -0.08423764      -0.26712208      -0.17227766