8
Lattice="6.079293537643783 0.0 0.0 0.0 4.6983768084296225 -9.665125648680952e-17 0.0 1.253109697988684e-16 6.091572688712835" Properties=species:S:1:pos:R:3:forces:R:3 unique_starting_index=2 config_type=initial n_minim_iter=1 energy=-1298.8374841156808 stress="-4.095696416325403e-06 4.1498849847876264e-12 -2.4419698558698827e-12 4.1498849847876264e-12 0.0003575587847840019 4.823659506316974e-13 -2.4419698558698827e-12 4.823659506316974e-13 2.6850273102301365e-05" free_energy=-1298.8374841156808 pbc="T T T"
Si       3.14437907       1.47180070       4.27586490      -0.58527749      -0.13144440       0.50690856
Si       2.93491447       1.47180070       1.81570779       0.58527749      -0.13144440      -0.50690856
Si       4.27015019       3.22660865       2.94029527       0.51136230       0.13260192       0.58542006
Si       1.80914335       3.22660865       3.15127742      -0.51136230       0.13260192      -0.58542006
Si       5.97456124       3.22657611       1.23007856       0.58527749       0.13144440       0.50690856
Si       0.10473230       3.22657611       4.86149413      -0.58527749       0.13144440      -0.50690856
Si       4.84879012       1.47176815       5.98608161      -0.51136230      -0.13260192       0.58542006
Si       1.23050342       1.47176815       0.10549107       0.51136230      -0.13260192      -0.58542006
8
Lattice="6.0797949675688825 0.0 0.0 0.0 4.664667942120643 -9.599035863135934e-17 0.0 1.2520104765732394e-16 6.088279836814495" Properties=species:S:1:pos:R:3:forces:R:3 unique_starting_index=2 config_type=initial n_minim_iter=2 energy=-1299.2054406646587 stress="0.007639651581877937 -5.764551474294246e-12 6.928257036623563e-13 -5.764551474294246e-12 -0.002084131813065434 -2.1865299223820407e-12 6.928257036623563e-13 -2.1865299223820407e-12 0.007806113490266446" free_energy=-1299.2054406646587 pbc="T T T"
Si       3.07689319       1.44613701       4.33219111      -0.29659614       0.22099609       0.03038133
Si       3.00290178       1.44613701       1.75608873       0.29659614       0.22099608      -0.03038133
Si       4.32969203       3.21869625       3.00642539       0.02787871      -0.22080457       0.29617561
Si       1.75010294       3.21869625       3.08185445      -0.02787871      -0.22080457      -0.29617561
Si       6.04279926       3.21853093       1.28805119       0.29659614      -0.22099608       0.03038133
Si       0.03699571       3.21853093       4.80022865      -0.29659614      -0.22099608      -0.03038133
Si       4.79000043       1.44597169       6.05056530      -0.02787871       0.22080457       0.29617561
Si       1.28979454       1.44597169       0.03771453       0.02787871       0.22080457      -0.29617561
8
Lattice="6.031568400389962 0.0 0.0 0.0 4.6695448769255 -9.699182471570379e-17 0.0 1.2301172800088887e-16 6.038345069328736" Properties=species:S:1:pos:R:3:forces:R:3 unique_starting_index=2 config_type=initial n_minim_iter=3 energy=-1299.2328728314342 stress="-0.003706810993247843 -4.792851352814429e-12 -2.7146951038728497e-12 -4.792851352814429e-12 -0.0024963745204378243 7.921897012788792e-12 -2.7146951038728497e-12 7.921897012788792e-12 -0.003558075354208571" free_energy=-1299.2328728314342 pbc="T T T"
Si       3.04014869       1.44659235       4.30597762      -0.24740419       0.14998106      -0.15779699
Si       2.99141971       1.44659235       1.73236745       0.24740418       0.14998106       0.15779699
Si       4.30473974       3.22314009       2.99409299      -0.16081436      -0.14938279       0.24665123
Si       1.72682866       3.22314009       3.04425208       0.16081436      -0.14938279      -0.24665123
Si       6.00720391       3.22295253       1.28680508       0.24740419      -0.14998106      -0.15779699
Si       0.02436449       3.22295253       4.75153999      -0.24740418      -0.14998106       0.15779699
Si       4.74261286       1.44640479       6.01326552       0.16081436       0.14938279       0.24665123
Si       1.28895554       1.44640479       0.02507955      -0.16081436       0.14938279      -0.24665123
8
Lattice="6.054269412214911 0.0 0.0 0.0 4.70121743786548 -9.748101130082872e-17 0.0 1.236155248261597e-16 6.057547552604712" Properties=species:S:1:pos:R:3:forces:R:3 unique_starting_index=2 config_type=initial n_minim_iter=4 energy=-1299.2453460185882 stress="0.0005987263501176007 -9.560214588746293e-12 -3.576832472161774e-14 -9.560214588746293e-12 0.006253417550382829 -9.768984072948514e-13 -3.576832472161774e-14 -9.768984072948514e-13 0.0008498596232113961" free_energy=-1299.2453460185882 pbc="T T T"
Si       3.03724782       1.45738416       4.32571723      -0.10193797       0.18214901      -0.17580698
Si       3.01702159       1.45738416       1.73183032       0.10193797       0.18214901       0.17580698
Si       4.32701248       3.24405055       3.01792201      -0.17774118      -0.18205536       0.10025011
Si       1.72725693       3.24405055       3.03962554       0.17774118      -0.18205536      -0.10025011
Si       6.04415630       3.24383327       1.29694346       0.10193797      -0.18214901      -0.17580698
Si       0.01011311       3.24383327       4.76060410      -0.10193797      -0.18214901       0.17580698
Si       4.75439163       1.45716689       6.04669579       0.17774118       0.18205536       0.10025011
Si       1.29987778       1.45716689       0.01085177      -0.17774118       0.18205536      -0.10025011
8
Lattice="6.066233736417906 0.0 0.0 0.0 4.660103912402204 -9.657797945936875e-17 0.0 1.23829252541203e-16 6.064067752276353" Properties=species:S:1:pos:R:3:forces:R:3 unique_starting_index=2 config_type=initial n_minim_iter=5 energy=-1299.2589167129613 stress="0.0010641730428232272 -2.2915656878065532e-12 1.597139957760844e-13 -2.2915656878065532e-12 -0.0027859463022114014 -4.551167503796018e-12 1.597139957760844e-13 -4.551167503796018e-12 0.0013731499802358772" free_energy=-1299.2589167129613 pbc="T T T"
Si       3.03597315       1.44831395       4.32909042      -0.03144572       0.21576647      -0.12003481
Si       3.03026058       1.44831395       1.73497734       0.03144572       0.21576647       0.12003481
Si       4.33423368       3.21201846       3.02839646      -0.11783993      -0.21498841       0.02969349
Si       1.73200005       3.21201846       3.03567130       0.11783993      -0.21498841      -0.02969349
Si       6.06337745       3.21178996       1.29705654       0.03144572      -0.21576647      -0.12003481
Si       0.00285628       3.21178996       4.76701121      -0.03144572      -0.21576647       0.12003481
Si       4.76511692       1.44808545       6.06043033       0.11783993       0.21498841       0.02969349
Si       1.30111681       1.44808545       0.00363742      -0.11783993       0.21498841      -0.02969349
8
Lattice="6.0710488150754065 0.0 0.0 0.0 4.6564112828798825 -9.656783134542362e-17 0.0 1.2360138905396327e-16 6.0571483965666" Properties=species:S:1:pos:R:3:forces:R:3 unique_starting_index=2 config_type=initial n_minim_iter=6 energy=-1299.2775677638633 stress="0.0007505315582506151 9.45929904373516e-13 5.420583770444165e-14 9.45929904373516e-13 -0.003944415053212522 -2.2938034229651023e-12 5.420583770444165e-14 -2.2938034229651023e-12 0.0010432774143778298" free_energy=-1299.2775677638633 pbc="T T T"
Si       3.03595528       1.45667623       4.31465417      -0.00842462       0.16396135       0.00963568
Si       3.03509354       1.45667623       1.74249423       0.00842462       0.16396135      -0.00963568
Si       4.32806831       3.19997985       3.02728473       0.01576876      -0.16313750       0.00705914
Si       1.74298050       3.19997985       3.02986367      -0.01576876      -0.16313750      -0.00705914
Si       6.07061795       3.19973506       1.28607997       0.00842462      -0.16396135       0.00963568
Si       0.00043087       3.19973506       4.77106843      -0.00842462      -0.16396135      -0.00963568
Si       4.77850491       1.45643144       6.05585893      -0.01576876       0.16313750       0.00705914
Si       1.29254391       1.45643144       0.00128947       0.01576876       0.16313750      -0.00705914
8
Lattice="6.07700614106484 0.0 0.0 0.0 4.669060787811355 -9.695268401134422e-17 0.0 1.2322261964999117e-16 6.046703478799784" Properties=species:S:1:pos:R:3:forces:R:3 unique_starting_index=2 config_type=initial n_minim_iter=7 energy=-1299.2863973592641 stress="-0.0012194425074074239 1.0612729605747094e-11 1.8568809067940212e-13 1.0612729605747094e-11 -0.0006689768632624145 3.82969821551302e-12 1.8568809067940212e-13 3.82969821551302e-12 -0.0010328631444764859" free_energy=-1299.2863973592641 pbc="T T T"
Si       3.03282627       1.47141586       4.30141331       0.04592856       0.09435629       0.09493490
Si       3.04417987       1.47141586       1.74529017      -0.04592856       0.09435629      -0.09493490
Si       4.32654457       3.19792354       3.02803800       0.10166736      -0.09551610      -0.04643137
Si       1.75046157       3.19792354       3.01866547      -0.10166736      -0.09551610       0.04643137
Si       6.08268294       3.19764493       1.27806157      -0.04592856      -0.09435629       0.09493490
Si      -0.00567680       3.19764493       4.76864191       0.04592856      -0.09435629      -0.09493490
Si       4.78896464       1.47113725       6.05138974      -0.10166736       0.09551610      -0.04643137
Si       1.28804150       1.47113725      -0.00468627       0.10166736       0.09551610       0.04643137
8
Lattice="6.137184947560117 0.0 0.0 0.0 4.6804334443885525 -9.693771041939703e-17 0.0 1.240698339152614e-16 6.072149131143409" Properties=species:S:1:pos:R:3:forces:R:3 unique_starting_index=2 config_type=initial n_minim_iter=8 energy=-1299.2972598372796 stress="0.0028473311661131374 -2.6286995579103262e-12 -3.0213827073300095e-13 -2.6286995579103262e-12 0.008083946421675502 -3.96243601696532e-12 -3.0213827073300095e-13 -3.96243601696532e-12 0.003166190421430225" free_energy=-1299.2972598372796 pbc="T T T"
Si       3.05595017       1.49462324       4.32228547       0.09789585       0.08656839       0.15833398
Si       3.08123478       1.49462324       1.74986366      -0.09789585       0.08656839      -0.15833398
Si       4.37284187       3.18603678       3.04748178       0.17687615      -0.09409700      -0.09692237
Si       1.76434308       3.18603678       3.02466735      -0.17687615      -0.09409700       0.09692237
Si       6.14982726       3.18581020       1.28621090      -0.09789585      -0.08656839       0.15833398
Si      -0.01264231       3.18581020       4.78593823       0.09789585      -0.08656839      -0.15833398
Si       4.83293555       1.49439666       6.08355635      -0.17687615       0.09409700      -0.09692237
Si       1.30424940       1.49439666      -0.01140722       0.17687615       0.09409700       0.09692237
8
Lattice="6.311144469172885 0.0 0.0 0.0 4.635288683416052 -9.552818666174681e-17 0.0 1.257987706173826e-16 6.125374179268083" Properties=species:S:1:pos:R:3:forces:R:3 unique_starting_index=2 config_type=initial n_minim_iter=9 energy=-1299.3274385186164 stress="0.0015465631204126867 1.996174347479836e-12 -2.6902748369652632e-12 1.996174347479836e-12 0.012244028923837318 -8.980260902373166e-12 -2.6902748369652632e-12 -8.980260902373166e-12 0.0049717170307652025" free_energy=-1299.3274385186164 pbc="T T T"
Si       3.12847764       1.53977750       4.38155522       0.18654717      -0.09641750       0.14079777
Si       3.18266683       1.53977750       1.74381896      -0.18654717      -0.09641750      -0.14079777
Si       4.52202599       3.09526455       3.08759919       0.25343705       0.08250126      -0.17909082
Si       1.78911848       3.09526455       3.03777499      -0.25343705       0.08250126       0.17909082
Si       6.33823907       3.09551118       1.31886813      -0.18654717       0.09641750       0.14079777
Si      -0.02709460       3.09551118       4.80650605       0.18654717       0.09641750      -0.14079777
Si       4.94469072       1.54002413       6.15028628      -0.25343705      -0.08250126      -0.17909082
Si       1.36645375       1.54002413      -0.02491210       0.25343705      -0.08250126       0.17909082
8
Lattice="6.380084571622894 0.0 0.0 0.0 4.572820720469006 -9.462143703473809e-17 0.0 1.248679099920885e-16 6.103605573939986" Properties=species:S:1:pos:R:3:forces:R:3 unique_starting_index=2 config_type=initial n_minim_iter=10 energy=-1299.3771158194982 stress="-0.005584986669184042 -1.2567068774558124e-11 2.937654399733302e-13 -1.2567068774558124e-11 -0.007801776219575934 -1.7248055459469142e-12 2.937654399733302e-13 -1.7248055459469142e-12 0.003537505838291143" free_energy=-1299.3771158194982 pbc="T T T"
Si       3.18342023       1.51700439       4.38813203       0.04973109       0.02032858      -0.14321712
Si       3.19666435       1.51700439       1.71547354      -0.04973109       0.02032858       0.14321712
Si       4.59842596       3.05510059       3.05717070       0.07779788      -0.01048519      -0.04693743
Si       1.78165861       3.05510059       3.04643487      -0.07779788      -0.01048519       0.04693743
Si       6.38670663       3.05581633       1.33632925      -0.04973109      -0.02032858      -0.14321712
Si      -0.00662206       3.05581633       4.76727633       0.04973109      -0.02032858       0.14321712
Si       4.97170090       1.51772013       6.10897349      -0.07779788       0.01048519      -0.04693743
Si       1.40838368       1.51772013      -0.00536792       0.07779788       0.01048519       0.04693743
8
Lattice="6.680060605150052 0.0 0.0 0.0 4.570478758290234 -9.670854850662258e-17 0.0 1.1867320498112416e-16 5.937932535337011" Properties=species:S:1:pos:R:3:forces:R:3 unique_starting_index=2 config_type=initial n_minim_iter=11 energy=-1299.4477682750983 stress="-0.007082996452465534 -1.2137311650662152e-11 2.3922443602744576e-12 -1.2137311650662152e-11 0.007841176291100116 4.8177580309884055e-12 2.3922443602744576e-12 4.8177580309884055e-12 0.008377280884525199" free_energy=-1299.4477682750983 pbc="T T T"
Si       3.36199688       1.53888855       4.28238655      -0.18311779      -0.17813006      -0.40396198
Si       3.31806372       1.53888855       1.65554599       0.18311779      -0.17813006       0.40396198
Si       4.84256856       3.03054168       2.94894670       0.00957469       0.20667962       0.15581292
Si       1.83749204       3.03054168       2.98898584      -0.00957469       0.20667962      -0.15581292
Si       6.65809402       3.03159021       1.31342028       0.18311779       0.17813006      -0.40396197
Si       0.02196658       3.03159021       4.62451225      -0.18311779       0.17813005       0.40396197
Si       5.17752234       1.53993708       5.91791297      -0.00957469      -0.20667962       0.15581292
Si       1.50253826       1.53993708       0.02001957       0.00957469      -0.20667962      -0.15581292
8
Lattice="6.839850565892529 0.0 0.0 0.0 4.574856904304126 -1.0131412411937481e-16 0.0 1.1011465050590156e-16 5.805835658304832" Properties=species:S:1:pos:R:3:forces:R:3 unique_starting_index=2 config_type=initial n_minim_iter=12 energy=-1299.4754507735347 stress="-0.003715143017552776 4.41754148268847e-12 -4.601826831013368e-13 4.41754148268847e-12 0.01283832150970255 6.462815245017402e-12 -4.601826831013368e-13 6.462815245017402e-12 0.006947582906246609" free_energy=-1299.4754507735347 pbc="T T T"
Si       3.45716772       1.54062057       4.18709937      -0.31161499      -0.21560113      -0.39004685
Si       3.38268284       1.54062057       1.61873629       0.31161499      -0.21560113       0.39004685
Si       4.96630992       3.03324523       2.87091773      -0.07829064       0.25663125       0.24626590
Si       1.87354065       3.03324523       2.93491793       0.07829064       0.25663125      -0.24626590
Si       6.80260813       3.03423633       1.28418154       0.31161499       0.21560113      -0.39004685
Si       0.03724244       3.03423633       4.52165411      -0.31161499       0.21560113       0.39004685
Si       5.29346593       1.54161168       5.77383556       0.07829064      -0.25663125       0.24626590
Si       1.54638463       1.54161168       0.03200010      -0.07829064      -0.25663125      -0.24626590
8
Lattice="6.897417886080242 0.0 0.0 0.0 4.614277671900394 -1.0763845910615187e-16 0.0 9.887160300258533e-17 5.6192910839058205" Properties=species:S:1:pos:R:3:forces:R:3 unique_starting_index=2 config_type=initial n_minim_iter=13 energy=-1299.5187345097465 stress="-0.004965429012266146 -1.6203437071313568e-12 8.737568859225925e-13 -1.6203437071313568e-12 0.019205164015917972 9.75163074454122e-13 8.737568859225925e-13 9.75163074454122e-13 -0.005878188192084069" free_energy=-1299.5187345097465 pbc="T T T"
Si       3.48914934       1.52335487       4.03223541      -0.34991595      -0.15756681       0.13202409
Si       3.40826854       1.52335487       1.58705567       0.34991595      -0.15756681      -0.13202409
Si       4.98923042       3.09083519       2.77522581       0.10107935       0.21386596       0.25975385
Si       1.90818746       3.09083519       2.84406527      -0.10107935       0.21386596      -0.25975385
Si       6.85697749       3.09092280       1.22258987       0.34991595       0.15756681       0.13202409
Si       0.04044040       3.09092280       4.39670122      -0.34991595       0.15756681      -0.13202409
Si       5.35689641       1.52344248       5.58487136      -0.10107935      -0.21386596       0.25975385
Si       1.54052148       1.52344248       0.03441973       0.10107935      -0.21386596      -0.25975385
8
Lattice="7.0565022874696295 0.0 0.0 0.0 4.560460831497377 -1.121895169363066e-16 0.0 9.052118633903504e-17 5.568144696527741" Properties=species:S:1:pos:R:3:forces:R:3 unique_starting_index=2 config_type=initial n_minim_iter=14 energy=-1299.5866178022486 stress="0.006993206955646937 -1.8473005203040705e-12 -5.134456627155811e-13 -1.8473005203040705e-12 0.007527193908084577 -1.527680800564279e-12 -5.134456627155811e-13 -1.527680800564279e-12 -0.0027334832614751637" free_energy=-1299.5866178022486 pbc="T T T"
Si       3.53167611       1.50910360       4.00473483      -0.03977117      -0.14213738       0.17770297
Si       3.52482618       1.50910360       1.56340987       0.03977117      -0.14213738      -0.17770297
Si       5.12120354       3.05226934       2.77762513       0.00336763       0.19679434       0.03434072
Si       1.93529874       3.05226934       2.79051956      -0.00336763       0.19679434      -0.03434072
Si       7.05307732       3.05135724       1.22066248       0.03977117       0.14213738       0.17770297
Si       0.00342497       3.05135724       4.34748222      -0.03977117       0.14213738      -0.17770297
Si       5.46354989       1.50819149       5.56169748      -0.00336763      -0.19679434       0.03434072
Si       1.59295240       1.50819149       0.00644722       0.00336763      -0.19679434      -0.03434072
8
Lattice="6.957652510042343 0.0 0.0 0.0 4.556440706848431 -1.1809159952619078e-16 0.0 8.398664410358965e-17 5.6188771730475" Properties=species:S:1:pos:R:3:forces:R:3 unique_starting_index=2 config_type=initial n_minim_iter=15 energy=-1299.610407209599 stress="0.001868502863463519 -9.003671024560817e-12 1.4331013153267054e-14 -9.003671024560817e-12 0.003130119229608314 -2.716182120535729e-12 1.4331013153267054e-14 -2.716182120535729e-12 0.004718387569794113" free_energy=-1299.610407209599 pbc="T T T"
Si       3.47197396       1.49332967       4.04289105       0.04561527      -0.01318349      -0.00288713
Si       3.48567855       1.49332967       1.57598612      -0.04561527      -0.01318349       0.00288713
Si       5.04811739       3.06461283       2.81095010       0.02597881       0.07855589      -0.02936920
Si       1.90953512       3.06461283       2.80792707      -0.02597881       0.07855589       0.02936920
Si       6.96450480       3.06311104       1.23345247      -0.04561527       0.01318349      -0.00288713
Si      -0.00685229       3.06311104       4.38542471       0.04561527       0.01318349       0.00288713
Si       5.38836137       1.49182787       5.62038869      -0.02597881      -0.07855589      -0.02936920
Si       1.56929114       1.49182787      -0.00151152       0.02597881      -0.07855589       0.02936920
8
Lattice="6.994526686318233 0.0 0.0 0.0 4.546073631489203 -1.2656067515125538e-16 0.0 6.787624482570347e-17 5.432252814196561" Properties=species:S:1:pos:R:3:forces:R:3 unique_starting_index=2 config_type=initial n_minim_iter=16 energy=-1299.6344838453504 stress="-0.005204270551951257 3.5150722023170455e-12 1.285601232557625e-13 3.5150722023170455e-12 -0.001583408616621818 1.935639401104042e-13 1.285601232557625e-13 1.935639401104042e-13 -0.0035651966185987144" free_energy=-1299.6344838453504 pbc="T T T"
Si       3.50017137       1.43982740       3.91253907      -0.05202563       0.12314142       0.18477599
Si       3.49435531       1.43982740       1.51971374       0.05202563       0.12314142      -0.18477599
Si       5.08523354       3.11212179       2.70936514      -0.14640278       0.21118770       0.04024125
Si       1.90929314       3.11212179       2.72288767       0.14640278       0.21118770      -0.04024125
Si       6.99161866       3.10624623       1.19641267       0.05202563      -0.12314142       0.18477599
Si       0.00290803       3.10624623       4.23584015      -0.05202563      -0.12314142      -0.18477599
Si       5.40655649       1.43395184       5.42549155       0.14640278      -0.21118770       0.04024125
Si       1.58797020       1.43395184       0.00676126      -0.14640278      -0.21118770      -0.04024125
8
Lattice="7.292575739174678 0.0 0.0 0.0 4.5413994288940005 -1.4599085223451993e-16 0.0 3.25824847589941e-17 5.108626504588923" Properties=species:S:1:pos:R:3:forces:R:3 unique_starting_index=2 config_type=initial n_minim_iter=17 energy=-1299.7100934765606 stress="-0.004093014177264529 -2.893597135799501e-12 -2.879178295451554e-13 -2.893597135799501e-12 0.00042848898662967394 5.719053386376905e-13 -2.879178295451554e-13 5.719053386376905e-13 -0.02212475564609253" free_energy=-1299.7100934765606 pbc="T T T"
Si       3.61862961       1.34592535       3.70465537       0.28378599       0.15603617       0.82735116
Si       3.67394613       1.34592535       1.40397113      -0.28378599       0.15603617      -0.82735116
Si       5.30849012       3.24155609       2.56580987      -0.36384338       0.47711472      -0.18067431
Si       1.98408562       3.24155609       2.54281663       0.36384338       0.47711472       0.18067431
Si       7.32023400       3.19547408       1.15034212      -0.28378599      -0.15603617       0.82735116
Si      -0.02765826       3.19547408       3.95828438       0.28378599      -0.15603617      -0.82735116
Si       5.63037349       1.29984334       5.12012312       0.36384338      -0.47711472      -0.18067431
Si       1.66220225       1.29984334      -0.01149662      -0.36384338      -0.47711472       0.18067431
8
Lattice="7.4130784094860225 0.0 0.0 0.0 4.538914852450715 -1.5776350772854132e-16 0.0 1.3461894933656085e-17 5.001138348158554" Properties=species:S:1:pos:R:3:forces:R:3 unique_starting_index=2 config_type=initial n_minim_iter=18 energy=-1299.737213695224 stress="-0.005327710686719299 5.322490638829427e-12 -3.64890867684344e-12 5.322490638829427e-12 0.005870433512387945 5.641972027007802e-12 -3.64890867684344e-12 5.641972027007802e-12 -0.035453260334536066" free_energy=-1299.737213695224 pbc="T T T"
Si       3.67007519       1.30815147       3.63827756       0.37435190       0.09345900       1.17016211
Si       3.74300322       1.30815147       1.36286079      -0.37435190       0.09345900      -1.17016211
Si       5.39743522       3.29505991       2.51639245      -0.51748986       0.44590856      -0.21043709
Si       2.01564319       3.29505991       2.48474590       0.51748986       0.44590856       0.21043709
Si       7.44954242       3.23076339       1.13770839      -0.37435190      -0.09345900       1.17016211
Si      -0.03646402       3.23076339       3.86342996       0.37435190      -0.09345900      -1.17016211
Si       5.72218240       1.24385494       5.01696163       0.51748986      -0.44590856      -0.21043709
Si       1.69089601       1.24385494      -0.01582328      -0.51748986      -0.44590856       0.21043709
8
Lattice="7.571652131534926 0.0 0.0 0.0 4.529349699534902 -1.622485953464334e-16 0.0 5.060865112425705e-18 4.937880055338652" Properties=species:S:1:pos:R:3:forces:R:3 unique_starting_index=2 config_type=initial n_minim_iter=19 energy=-1299.798013252272 stress="0.0028946321363782766 -1.129797249185988e-12 -1.2632551168195012e-12 -1.129797249185988e-12 0.011179296071713953 6.617909649413182e-14 -1.2632551168195012e-12 6.617909649413182e-14 -0.045749447544734353" free_energy=-1299.798013252272 pbc="T T T"
Si       3.73473715       1.27397007       3.60880538       0.50844965       0.03620538       1.23289586
Si       3.83691498       1.27397007       1.32907467      -0.50844965       0.03620538      -1.23289586
Si       5.50866923       3.34455714       2.49281104      -0.53950326       0.28491970      -0.30590052
Si       2.06298290       3.34455714       2.44506902       0.53950326       0.28491970       0.30590052
Si       7.62274105       3.25537963       1.13986536      -0.50844965      -0.03620538       1.23289586
Si      -0.05108892       3.25537963       3.79801470       0.50844965      -0.03620538      -1.23289586
Si       5.84880896       1.18479256       4.96175107       0.53950326      -0.28491970      -0.30590052
Si       1.72284317       1.18479256      -0.02387101      -0.53950326      -0.28491970       0.30590052
8
Lattice="7.645096742820618 0.0 0.0 0.0 4.527690657453351 -1.6590401665807758e-16 0.0 3.584294785752915e-18 5.014952265451353" Properties=species:S:1:pos:R:3:forces:R:3 unique_starting_index=2 config_type=initial n_minim_iter=20 energy=-1299.9529963931159 stress="0.02289177215032584 2.310420134119062e-12 -3.895964382292292e-13 2.310420134119062e-12 0.016734235043534013 -4.198843791828945e-13 -3.895964382292292e-13 -4.198843791828945e-13 -0.008468143716262243" free_energy=-1299.9529963931159 pbc="T T T"
Si       3.76653550       1.26749035       3.68046175       0.56948342       0.01441625       0.86330955
Si       3.87856124       1.26749035       1.33449052      -0.56948342       0.01441625      -0.86330955
Si       5.54368678       3.37897654       2.53515528      -0.13725115       0.09132276      -0.32228639
Si       2.10140997       3.37897654       2.47979698       0.13725115       0.09132276       0.32228639
Si       7.70110961       3.26020031       1.17298562      -0.56948342      -0.01441625       0.86330955
Si      -0.05601287       3.26020031       3.84196665       0.56948342      -0.01441625      -0.86330955
Si       5.92395834       1.14871412       5.04263142       0.13725115      -0.09132276      -0.32228639
Si       1.72113840       1.14871412      -0.02767915      -0.13725115      -0.09132276       0.32228639
8
Lattice="7.549900301983433 0.0 0.0 0.0 4.503055097735184 -1.6783372908330507e-16 0.0 2.6009932549586657e-18 5.051042746819305" Properties=species:S:1:pos:R:3:forces:R:3 unique_starting_index=2 config_type=initial n_minim_iter=21 energy=-1300.0973841714015 stress="-0.003139689692383548 -4.014683665355894e-12 -5.757345082120376e-13 -4.014683665355894e-12 0.00865575453579395 -4.578079362029899e-13 -5.757345082120376e-13 -4.578079362029899e-13 0.0032799085180193832" free_energy=-1300.0973841714015 pbc="T T T"
Si       3.75425526       1.24515787       3.72061822       0.19844908       0.03650542       0.39265885
Si       3.79564504       1.24515787       1.33042453      -0.19844909       0.03650542      -0.39265885
Si       5.47017483       3.39141699       2.53390899      -0.15971866      -0.09830567      -0.12337734
Si       2.07972547       3.39141699       2.51713376       0.15971866      -0.09830567       0.12337734
Si       7.57059519       3.25789723       1.19509685      -0.19844908      -0.03650542       0.39265884
Si      -0.02069489       3.25789723       3.85594590       0.19844909      -0.03650542      -0.39265884
Si       5.85467562       1.11163811       5.05943036       0.15971866       0.09830567      -0.12337734
Si       1.69522468       1.11163811      -0.00838762      -0.15971866       0.09830567       0.12337734
