12
Lattice="7.993915086320317 1.0612105554387952e-15 -2.5433697091032876e-31 -3.9969575431601596 6.922933540449067 -2.0856524409113416e-31 2.4545832886458656e-31 3.741386903486308e-31 7.714855733126563" Properties=species:S:1:pos:R:3:forces:R:3 unique_starting_index=220 config_type=initial n_minim_iter=1 energy=-1952.6523796945412 stress="-0.001277227785424246 7.793208477617727e-12 1.5627611357943725e-12 7.793208477617727e-12 -0.0012772277743516118 1.4143824448970362e-12 1.5627611357943725e-12 1.4143824448970362e-12 -0.00016420996472490195" free_energy=-1952.6523796945412 pbc="T T T"
Si       3.68533216       0.88269075       5.02912038      -0.10795840       0.19539816       0.19065609
Si       2.91872328       3.28999689       5.02912038       0.22319897      -0.00420436       0.19065609
Si       5.38681599       2.75024659       5.02912038      -0.11524057      -0.19119380       0.19065609
Si       3.68533216       0.88269075       2.68573535      -0.10795840       0.19539816      -0.19065609
Si       2.91872328       3.28999689       2.68573535       0.22319897      -0.00420436      -0.19065609
Si       5.38681599       2.75024659       2.68573535      -0.11524057      -0.19119380      -0.19065609
Si       1.43406438       4.40467892       1.19680596       0.09981057      -0.29395010      -0.59867209
Si      -0.89942669       3.47865790       1.19680596      -0.30447354       0.06053656      -0.59867209
Si      -0.53463888       5.96253096       1.19680596       0.20466297       0.23341354      -0.59867209
Si       1.43406438       4.40467892       6.51804977       0.09981057      -0.29395010       0.59867209
Si      -0.89942669       3.47865790       6.51804977      -0.30447354       0.06053656       0.59867209
Si      -0.53463888       5.96253096       6.51804977       0.20466297       0.23341354       0.59867209
12
Lattice="8.029799075202767 -3.5495382423416326e-16 -2.5542935668381935e-31 -4.014899537601384 6.954009986410389 -2.094028538202201e-31 2.456472998980229e-31 3.7449156530451683e-31 7.719299510101441" Properties=species:S:1:pos:R:3:forces:R:3 unique_starting_index=220 config_type=initial n_minim_iter=2 energy=-1952.6688558771732 stress="0.005387214420418206 -5.458532089513504e-12 -5.645707015600271e-13 -5.458532089513504e-12 0.00538721442679955 -1.7926774302474813e-12 -5.645707015600271e-13 -1.7926774302474813e-12 0.004859935581752004" free_energy=-1952.6688558771732 pbc="T T T"
Si       3.70098461       0.88826516       5.03358400      -0.08291297       0.22134572       0.18055330
Si       2.93366662       3.30473071       5.03358400       0.23314750      -0.03886812       0.18055330
Si       5.41004618       2.76101481       5.03358400      -0.15023453      -0.18247760       0.18055330
Si       3.70098461       0.88826516       2.68571551      -0.08291297       0.22134572      -0.18055330
Si       2.93366662       3.30473071       2.68571551       0.23314750      -0.03886812      -0.18055330
Si       5.41004618       2.76101481       2.68571551      -0.15023453      -0.18247760      -0.18055330
Si       1.44132523       4.42202597       1.19257536       0.11459842      -0.40859178      -0.41162084
Si      -0.90597613       3.49477274       1.19257536      -0.41115008       0.10505075      -0.41162084
Si      -0.53535031       5.99122196       1.19257536       0.29655165       0.30354104      -0.41162084
Si       1.44132523       4.42202597       6.52672415       0.11459843      -0.40859178       0.41162084
Si      -0.90597613       3.49477274       6.52672415      -0.41115008       0.10505074       0.41162084
Si      -0.53535031       5.99122196       6.52672415       0.29655165       0.30354104       0.41162084
12
Lattice="8.039136946612404 -2.8190007430324524e-15 -2.565482723058815e-31 -4.0195684733062 6.962096820268406 -2.1129012152785624e-31 2.4302878974324253e-31 3.694226880565681e-31 7.661857421178174" Properties=species:S:1:pos:R:3:forces:R:3 unique_starting_index=220 config_type=initial n_minim_iter=3 energy=-1952.7084751281857 stress="0.002644207238785408 -6.135432594503301e-12 -3.0123899322102634e-12 -6.135432594503301e-12 0.002644207247246573 6.042094639993594e-13 -3.0123899322102634e-12 6.042094639993594e-13 -0.006421039837610664" free_energy=-1952.7084751281857 pbc="T T T"
Si       3.70274102       0.89421430       5.00071156      -0.08848858       0.13828671       0.20025369
Si       2.94260946       3.30832189       5.00071156       0.16400409       0.00749000       0.20025369
Si       5.41335374       2.75956133       5.00071156      -0.07551552      -0.14577671       0.20025369
Si       3.70274102       0.89421430       2.66114586      -0.08848858       0.13828671      -0.20025369
Si       2.94260946       3.30832189       2.66114586       0.16400409       0.00749000      -0.20025369
Si       5.41335374       2.75956133       2.66114586      -0.07551552      -0.14577671      -0.20025369
Si       1.44551914       4.41944870       1.16996073       0.13546911      -0.36258432       0.07150257
Si      -0.91497400       3.50051618       1.16996073      -0.38174179       0.06397247       0.07150257
Si      -0.53054634       6.00422946       1.16996073       0.24627268       0.29861185       0.07150257
Si       1.44551914       4.41944870       6.49189669       0.13546911      -0.36258432      -0.07150257
Si      -0.91497400       3.50051618       6.49189669      -0.38174179       0.06397247      -0.07150257
Si      -0.53054634       6.00422946       6.49189669       0.24627268       0.29861185      -0.07150257
12
Lattice="7.992358751223529 -7.865268848358565e-15 -2.5422546530445083e-31 -3.9961793756117587 6.92158571471845 -2.08408984601444e-31 2.4673447828873813e-31 3.761646980947373e-31 7.753094956616684" Properties=species:S:1:pos:R:3:forces:R:3 unique_starting_index=220 config_type=initial n_minim_iter=4 energy=-1952.7474193097332 stress="9.814530031480845e-05 4.3163223692648516e-12 -2.2866286042000523e-12 4.3163223692648516e-12 9.814531135945591e-05 1.2604884293249576e-12 -2.2866286042000523e-12 1.2604884293249576e-12 0.0005960209650159098" free_energy=-1952.7474193097332 pbc="T T T"
Si       3.67801721       0.89490179       5.06632480      -0.07294328       0.09674945      -0.18303392
Si       2.93217766       3.28887849       5.06632480       0.12025912       0.01479601      -0.18303392
Si       5.37834207       2.73780613       5.06632480      -0.04731584      -0.11154546      -0.18303392
Si       3.67801721       0.89490179       2.68677015      -0.07294328       0.09674945       0.18303392
Si       2.93217766       3.28887849       2.68677015       0.12025912       0.01479601       0.18303392
Si       5.37834207       2.73780613       2.68677015      -0.04731584      -0.11154546       0.18303392
Si       1.44056907       4.38350175       1.17026016       0.12063669      -0.28989259       0.19491175
Si      -0.92024083       3.48226543       1.17026016      -0.31137269       0.04047186       0.19491175
Si      -0.52032943       5.97740494       1.17026016       0.19073600       0.24942073       0.19491175
Si       1.44056907       4.38350175       6.58283480       0.12063669      -0.28989259      -0.19491175
Si      -0.92024083       3.48226543       6.58283480      -0.31137269       0.04047186      -0.19491175
Si      -0.52032943       5.97740494       6.58283480       0.19073600       0.24942073      -0.19491175
12
Lattice="8.007424214328978 -1.0385245824308455e-14 -2.546197961212793e-31 -4.00371210716448 6.934632788487547 -2.0863153567127e-31 2.471547640946719e-31 3.769171926646675e-31 7.763724233882844" Properties=species:S:1:pos:R:3:forces:R:3 unique_starting_index=220 config_type=initial n_minim_iter=5 energy=-1952.785228826462 stress="-0.0007924746238728728 1.1914959011601394e-11 2.0212470477360156e-12 1.1914959011601394e-11 -0.0007924746330837666 1.3542183395008173e-12 2.0212470477360156e-12 1.3542183395008173e-12 -9.537129734999477e-05" free_energy=-1952.785228826462 pbc="T T T"
Si       3.67716466       0.90813969       5.06598509      -0.08879041      -0.11692902       0.02763608
Si       2.95160102       3.29604494       5.06598509      -0.05686830       0.13535927       0.02763608
Si       5.38236945       2.73044885       5.06598509       0.14565871      -0.01843024       0.02763608
Si       3.67716466       0.90813969       2.69773914      -0.08879041      -0.11692902      -0.02763608
Si       2.95160102       3.29604494       2.69773914      -0.05686830       0.13535927      -0.02763608
Si       5.38236945       2.73044885       2.69773914       0.14565871      -0.01843024      -0.02763608
Si       1.45442821       4.36362299       1.17298987      -0.26808420      -0.13060979      -0.03653744
Si      -0.95191865       3.49324951       1.17298987       0.02093070       0.29747262      -0.03653744
Si      -0.50251076       6.01239377       1.17298987       0.24715350      -0.16686283      -0.03653744
Si       1.45442821       4.36362299       6.59073436      -0.26808420      -0.13060979       0.03653744
Si      -0.95191865       3.49324951       6.59073436       0.02093070       0.29747262       0.03653743
Si      -0.50251076       6.01239377       6.59073436       0.24715350      -0.16686283       0.03653744
12
Lattice="8.052949950537384 -1.5348844001576096e-14 -2.5619003972640667e-31 -4.02647497526868 6.974059232570017 -2.100602865746527e-31 2.4673547842004434e-31 3.7611609088946617e-31 7.754282905372258" Properties=species:S:1:pos:R:3:forces:R:3 unique_starting_index=220 config_type=initial n_minim_iter=6 energy=-1952.8208630191784 stress="0.0036881330453618502 6.006351105047856e-12 4.0237960723786695e-12 6.006351105047856e-12 0.0036881330419781164 7.386531156349525e-13 4.0237960723786695e-12 7.386531156349525e-13 0.001346218004102721" free_energy=-1952.8208630191784 pbc="T T T"
Si       3.68502026       0.91553461       5.05903682      -0.02480699      -0.08115826       0.03368499
Si       2.97684028       3.32497077       5.05903682      -0.05788162       0.06206261       0.03368499
Si       5.41756319       2.73355455       5.05903682       0.08268860       0.01909565       0.03368499
Si       3.68502026       0.91553461       2.69524608      -0.02480699      -0.08115825      -0.03368499
Si       2.97684028       3.32497077       2.69524608      -0.05788162       0.06206261      -0.03368499
Si       5.41756319       2.73355455       2.69524608       0.08268860       0.01909565      -0.03368499
Si       1.45278336       4.35419016       1.16598326      -0.22782712      -0.13542593       0.20583827
Si      -0.98202817       3.53881686       1.16598326      -0.00336874       0.26501704       0.20583827
Si      -0.47075639       6.05511215       1.16598326       0.23119586      -0.12959110       0.20583827
Si       1.45278336       4.35419016       6.58829964      -0.22782712      -0.13542593      -0.20583827
Si      -0.98202817       3.53881686       6.58829964      -0.00336874       0.26501704      -0.20583827
Si      -0.47075639       6.05511215       6.58829964       0.23119586      -0.12959110      -0.20583827
12
Lattice="8.095673930982166 -2.154878783906474e-14 -2.5766934989436693e-31 -4.047836965491065 7.01105928498599 -2.114149551723297e-31 2.4624654707538025e-31 3.7520944492670333e-31 7.742638556847522" Properties=species:S:1:pos:R:3:forces:R:3 unique_starting_index=220 config_type=initial n_minim_iter=7 energy=-1952.8773982973823 stress="0.003713151300550919 9.739355239475546e-12 2.966484510169419e-13 9.739355239475546e-12 0.0037131513017744423 -2.291665608591242e-12 2.966484510169419e-13 -2.291665608591242e-12 0.0002845899129901958" free_energy=-1952.8773982973823 pbc="T T T"
Si       3.67598666       0.91685296       5.04557210       0.07582837       0.06273214       0.05072595
Si       3.00386078       3.36913498       5.04557210       0.01641345      -0.09703537       0.05072595
Si       5.46366225       2.72507205       5.04557210      -0.09224181       0.03430322       0.05072595
Si       3.67598666       0.91685296       2.69706646       0.07582837       0.06273214      -0.05072595
Si       3.00386078       3.36913498       2.69706646       0.01641345      -0.09703537      -0.05072595
Si       5.46366225       2.72507205       2.69706646      -0.09224181       0.03430322      -0.05072595
Si       1.42572968       4.30421181       1.16808213      -0.09962403      -0.05981373       0.19983909
Si      -1.03314584       3.62423526       1.16808213      -0.00198820       0.11618381       0.19983909
Si      -0.39258505       6.09367220       1.16808213       0.10161223      -0.05637007       0.19983910
Si       1.42572968       4.30421181       6.57455643      -0.09962403      -0.05981373      -0.19983909
Si      -1.03314584       3.62423526       6.57455643      -0.00198820       0.11618381      -0.19983909
Si      -0.39258505       6.09367220       6.57455643       0.10161223      -0.05637007      -0.19983909
12
Lattice="8.082234212113756 -2.337641244797642e-14 -2.5709788605594897e-31 -4.04111710605686 6.999420147026227 -2.107776229393724e-31 2.4681266155761905e-31 3.7626261343404983e-31 7.756042831320585" Properties=species:S:1:pos:R:3:forces:R:3 unique_starting_index=220 config_type=initial n_minim_iter=8 energy=-1952.8893066930234 stress="0.0004296002474035924 3.4337862876832834e-12 -2.76064092218474e-12 3.4337862876832834e-12 0.0004296002423453076 -4.610368568626273e-13 -2.76064092218474e-12 -4.610368568626273e-13 -0.0003413742132804418" free_energy=-1952.8893066930234 pbc="T T T"
Si       3.66493184       0.91416918       5.05256002       0.06744042       0.09714197       0.00600552
Si       3.00034411       3.36841148       5.05256002       0.05040720      -0.10697610       0.00600552
Si       5.45807416       2.71684019       5.05256002      -0.11784762       0.00983413       0.00600552
Si       3.66493184       0.91416918       2.70348281       0.06744042       0.09714197      -0.00600552
Si       3.00034411       3.36841148       2.70348281       0.05040720      -0.10697610      -0.00600552
Si       5.45807416       2.71684019       2.70348281      -0.11784762       0.00983413      -0.00600552
Si       1.41253935       4.28214998       1.17418010      -0.04346408      -0.03460268       0.05482229
Si      -1.03893692       3.63505020       1.17418010      -0.00823476       0.05494234       0.05482229
Si      -0.37360364       6.08164082       1.17418010       0.05169884      -0.02033965       0.05482229
Si       1.41253935       4.28214998       6.58186274      -0.04346408      -0.03460268      -0.05482229
Si      -1.03893692       3.63505020       6.58186274      -0.00823476       0.05494234      -0.05482229
Si      -0.37360364       6.08164082       6.58186274       0.05169884      -0.02033965      -0.05482229
12
Lattice="8.084312331548578 -2.8721957477957296e-14 -2.5704723762828615e-31 -4.042156165774268 7.001219851248887 -2.105980475934325e-31 2.472893485719124e-31 3.771435585303889e-31 7.767464846036014" Properties=species:S:1:pos:R:3:forces:R:3 unique_starting_index=220 config_type=initial n_minim_iter=9 energy=-1952.8933923924005 stress="0.00038960495195940935 2.6980098639237847e-12 4.119771174329254e-12 2.6980098639237847e-12 0.0003896049261460438 1.1696042663252293e-12 4.119771174329254e-12 1.1696042663252293e-12 0.0007123258501418209" free_energy=-1952.8933923924005 pbc="T T T"
Si       3.65990922       0.91686366       5.05790891       0.08168990       0.05514270       0.03410627
Si       3.00622798       3.37321366       5.05790891       0.00691002      -0.09831688       0.03410627
Si       5.46033010       2.71114322       5.05790891      -0.08859992       0.04317418       0.03410627
Si       3.65990922       0.91686366       2.70955593       0.08168990       0.05514270      -0.03410627
Si       3.00622798       3.37321366       2.70955593       0.00691002      -0.09831688      -0.03410627
Si       5.46033010       2.71114322       2.70955593      -0.08859992       0.04317418      -0.03410627
Si       1.40388610       4.26231288       1.17786256      -0.04747521      -0.01982556      -0.01189187
Si      -1.05282879       3.65426239       1.17786256       0.00656816       0.05102752      -0.01189187
Si      -0.35105851       6.08586514       1.17786256       0.04090704      -0.03120196      -0.01189187
Si       1.40388610       4.26231288       6.58960229      -0.04747521      -0.01982556       0.01189187
Si      -1.05282879       3.65426239       6.58960229       0.00656816       0.05102752       0.01189187
Si      -0.35105851       6.08586514       6.58960229       0.04090704      -0.03120196       0.01189187
12
Lattice="8.084682610153207 -3.343002727456748e-14 -2.57049170025887e-31 -4.042341305076578 7.001540521926975 -2.1058774894668655e-31 2.473678564226117e-31 3.772764737275573e-31 7.769626830364834" Properties=species:S:1:pos:R:3:forces:R:3 unique_starting_index=220 config_type=initial n_minim_iter=10 energy=-1952.8962455160374 stress="-0.0011307900087443186 6.4993414188700404e-12 1.617243097388792e-12 6.4993414188700404e-12 -0.001130789998327058 4.888850767705863e-14 1.617243097388792e-12 4.888850767705863e-14 -0.0004756844357325986" free_energy=-1952.8962455160374 pbc="T T T"
Si       3.65604815       0.92097438       5.05929237       0.08333528      -0.01444974       0.02617189
Si       3.01190363       3.37482276       5.05929237      -0.05418148      -0.06494560       0.02617189
Si       5.45907093       2.70574408       5.05929237      -0.02915380       0.07939534       0.02617189
Si       3.65604815       0.92097438       2.71033446       0.08333528      -0.01444974      -0.02617189
Si       3.01190363       3.37482276       2.71033446      -0.05418148      -0.06494560      -0.02617189
Si       5.45907093       2.70574408       2.71033446      -0.02915380       0.07939534      -0.02617189
Si       1.39028958       4.23777421       1.17907349       0.01599674      -0.02402828      -0.00285619
Si      -1.06746677       3.67862732       1.17907349      -0.02880747      -0.00183944      -0.00285619
Si      -0.32282401       6.08668021       1.17907349       0.01281073       0.02586772      -0.00285619
Si       1.39028958       4.23777421       6.59055334       0.01599674      -0.02402828       0.00285619
Si      -1.06746677       3.67862732       6.59055334      -0.02880747      -0.00183944       0.00285619
Si      -0.32282401       6.08668021       6.59055334       0.01281073       0.02586772       0.00285619
12
Lattice="8.116702427514081 -3.5646659930966347e-14 -2.5824352211119826e-31 -4.058351213757012 7.029270497186029 -2.1177435729449505e-31 2.4667034385810996e-31 3.759789964870357e-31 7.753108254307813" Properties=species:S:1:pos:R:3:forces:R:3 unique_starting_index=220 config_type=initial n_minim_iter=11 energy=-1952.9013046284208 stress="0.0015567071706719421 -1.3379415602050627e-12 4.763252892337635e-13 -1.3379415602050627e-12 0.001556707169674106 3.206639311975802e-13 4.763252892337635e-13 3.206639311975802e-13 0.0009897831614585804" free_energy=-1952.9013046284208 pbc="T T T"
Si       3.67676103       0.92844959       5.05163063       0.11265930      -0.09282202       0.02285116
Si       3.02403082       3.38087725       5.05163063      -0.13671588      -0.05115480       0.02285116
Si       5.47426058       2.71994436       5.05163063       0.02405658       0.14397682       0.02285116
Si       3.67676103       0.92844959       2.70147762       0.11265930      -0.09282202      -0.02285116
Si       3.02403082       3.38087725       2.70147762      -0.13671588      -0.05115480      -0.02285116
Si       5.47426058       2.71994436       2.70147762       0.02405658       0.14397682      -0.02285116
Si       1.38807347       4.23641539       1.17869514      -0.01373246      -0.02571525      -0.00884751
Si      -1.08354541       3.70895592       1.17869514      -0.01540383       0.02475028      -0.00884751
Si      -0.30452927       6.11317039       1.17869514       0.02913629       0.00096497      -0.00884751
Si       1.38807347       4.23641539       6.57441311      -0.01373246      -0.02571525       0.00884751
Si      -1.08354541       3.70895592       6.57441311      -0.01540383       0.02475028       0.00884751
Si      -0.30452927       6.11317039       6.57441311       0.02913629       0.00096497       0.00884751
12
Lattice="8.15927009858661 -3.482403701390096e-14 -2.600232510738497e-31 -4.079635049293277 7.066135181714779 -2.137346913149213e-31 2.449593035227073e-31 3.728065542873233e-31 7.71234840566411" Properties=species:S:1:pos:R:3:forces:R:3 unique_starting_index=220 config_type=initial n_minim_iter=12 energy=-1952.9103871280195 stress="0.0011067240681039152 2.602184019092611e-14 -4.3618047886373846e-13 2.602184019092611e-14 0.0011067240694034397 1.6271351551309094e-12 -4.3618047886373846e-13 1.6271351551309094e-12 -0.00030412791352047087" free_energy=-1952.9103871280195 pbc="T T T"
Si       3.72898986       0.93499630       5.03573824       0.09447211      -0.11618991      -0.16459852
Si       3.02486985       3.36923709       5.03573824      -0.14785946      -0.02372029      -0.16459852
Si       5.48504422       2.76190251       5.03573824       0.05338736       0.13991020      -0.16459852
Si       3.72898986       0.93499630       2.67661016       0.09447211      -0.11618991       0.16459852
Si       3.02486985       3.36923709       2.67661016      -0.14785946      -0.02372029       0.16459852
Si       5.48504422       2.76190251       2.67661016       0.05338736       0.13991020       0.16459852
Si       1.38859620       4.25559682       1.17683840       0.02561612      -0.05700991      -0.04702191
Si      -1.08847901       3.73577719       1.17683840      -0.06218009       0.00632075      -0.04702192
Si      -0.30011841       6.14089706       1.17683840       0.03656397       0.05068916      -0.04702192
Si       1.38859620       4.25559682       6.53551000       0.02561612      -0.05700991       0.04702191
Si      -1.08847901       3.73577719       6.53551000      -0.06218009       0.00632075       0.04702192
Si      -0.30011841       6.14089706       6.53551000       0.03656397       0.05068916       0.04702192
12
Lattice="8.262667148726424 -6.26553919627441e-14 -2.6287320124923607e-31 -4.1313335743631585 7.155679653812248 -2.1555283896607676e-31 2.4647666976161678e-31 3.756933072291321e-31 7.74680134496663" Properties=species:S:1:pos:R:3:forces:R:3 unique_starting_index=220 config_type=initial n_minim_iter=13 energy=-1953.02168513158 stress="0.006397380733590912 8.181244321090523e-13 6.489552105605887e-13 8.181244321090523e-13 0.006397380710856421 -1.1908983712835855e-12 6.489552105605887e-13 -1.1908983712835855e-12 0.007058442727857863" free_energy=-1953.02168513158 pbc="T T T"
Si       3.91316044       0.94602811       5.06057735       0.19029935      -0.41550152      -0.15942732
Si       2.99403690       3.29376926       5.06057735      -0.45498455       0.04294669      -0.15942732
Si       5.48680215       2.91588301       5.06057735       0.26468519       0.37255483      -0.15942732
Si       3.91316044       0.94602811       2.68622400       0.19029935      -0.41550152       0.15942732
Si       2.99403690       3.29376926       2.68622400      -0.45498455       0.04294669       0.15942732
Si       5.48680215       2.91588301       2.68622400       0.26468520       0.37255483       0.15942732
Si       1.30818451       4.11155009       1.19556878      -0.08750657       0.04621356      -0.51996671
Si      -1.22471982       3.96698359       1.19556878       0.08377540       0.05267614      -0.51996671
Si      -0.08346592       6.23282634       1.19556878       0.00373117      -0.09888969      -0.51996671
Si       1.30818451       4.11155009       6.55123257      -0.08750657       0.04621356       0.51996671
Si      -1.22471982       3.96698359       6.55123257       0.08377540       0.05267614       0.51996671
Si      -0.08346592       6.23282634       6.55123257       0.00373117      -0.09888969       0.51996671
12
Lattice="8.294069893722506 -7.147244408469606e-14 -2.635126964060529e-31 -4.147034946861192 7.182875228727426 -2.1565601499014664e-31 2.4763420385480386e-31 3.779282657676441e-31 7.772328120806864" Properties=species:S:1:pos:R:3:forces:R:3 unique_starting_index=220 config_type=initial n_minim_iter=14 energy=-1953.0491636642264 stress="0.011897446000407768 -3.744741244681993e-12 2.3470475007682886e-13 -3.744741244681993e-12 0.011897446006977678 1.8441902224510185e-12 2.3470475007682886e-13 1.8441902224510185e-12 0.013322870244265808" free_energy=-1953.0491636642264 pbc="T T T"
Si       4.00338547       0.94390466       5.07705076       0.21088993      -0.40338034      -0.14028548
Si       2.96278680       3.24388938       5.07705076      -0.45478259       0.01905414      -0.14028548
Si       5.47493133       2.99508191       5.07705076       0.24389266       0.38432621      -0.14028548
Si       4.00338547       0.94390466       2.69527736       0.21088993      -0.40338034       0.14028548
Si       2.96278680       3.24388938       2.69527736      -0.45478259       0.01905414       0.14028548
Si       5.47493133       2.99508191       2.69527736       0.24389266       0.38432620       0.14028548
Si       1.27604845       4.05298259       1.20224397      -0.11317249       0.16608684      -0.65098377
Si      -1.27507412       4.05129356       1.20224397       0.20042166       0.01496683      -0.65098377
Si      -0.00097557       6.26147503       1.20224397      -0.08724918      -0.18105367      -0.65098377
Si       1.27604845       4.05298259       6.57008415      -0.11317249       0.16608684       0.65098377
Si      -1.27507412       4.05129356       6.57008415       0.20042166       0.01496683       0.65098377
Si      -0.00097557       6.26147503       6.57008415      -0.08724918      -0.18105367       0.65098377
12
Lattice="8.256045849266414 -6.953562802448663e-14 -2.615984497219167e-31 -4.128022924633148 7.149945440273821 -2.1325423223968235e-31 2.5025063583490745e-31 3.8284688916668954e-31 7.833099726582846" Properties=species:S:1:pos:R:3:forces:R:3 unique_starting_index=220 config_type=initial n_minim_iter=15 energy=-1953.1611539852183 stress="0.0048152827245995485 -1.0698961722877922e-11 1.6135248566916334e-12 -1.0698961722877922e-11 0.0048152827052441215 2.5815637045555977e-12 1.6135248566916334e-12 2.5815637045555977e-12 0.011177056277284044" free_energy=-1953.1611539852183 pbc="T T T"
Si       4.06578629       0.92393282       5.10909479       0.08782433      -0.10067831      -0.25786747
Si       2.89527825       3.16690482       5.10909479      -0.13110214      -0.02571894      -0.25786747
Si       5.42300300       3.05910852       5.10909479       0.04327781       0.12639726      -0.25786747
Si       4.06578629       0.92393282       2.72400494       0.08782433      -0.10067831       0.25786747
Si       2.89527825       3.16690482       2.72400494      -0.13110214      -0.02571894       0.25786747
Si       5.42300300       3.05910852       2.72400494       0.04327781       0.12639726       0.25786747
Si       1.26791053       4.02630428       1.20649423      -0.18793360       0.14876480      -0.75039441
Si      -1.27509722       4.03875057       1.20649423       0.22280090       0.08837287      -0.75039441
Si       0.00718546       6.23483674       1.20649423      -0.03486730      -0.23713767      -0.75039441
Si       1.26791053       4.02630428       6.62660550      -0.18793360       0.14876480       0.75039441
Si      -1.27509722       4.03875057       6.62660550       0.22280090       0.08837287       0.75039441
Si       0.00718546       6.23483674       6.62660550      -0.03486730      -0.23713767       0.75039441
12
Lattice="8.213807286724103 -6.54904886392176e-14 -2.6010545118918923e-31 -4.106903643361997 7.113365772092839 -2.1185291269420378e-31 2.5093902461511705e-31 3.8409492441595617e-31 7.8501516541853515" Properties=species:S:1:pos:R:3:forces:R:3 unique_starting_index=220 config_type=initial n_minim_iter=16 energy=-1953.2513919441956 stress="-0.0005082198528670943 3.653728258065171e-12 -9.399277265876318e-14 3.653728258065171e-12 -0.0005082198612849396 1.5426849252344183e-12 -9.399277265876318e-14 1.5426849252344183e-12 0.0015358765435590893" free_energy=-1953.2513919441956 pbc="T T T"
Si       4.07935943       0.90803491       5.10924059       0.02959359       0.03843706      -0.10360976
Si       2.85360441       3.12651942       5.10924059       0.01849068      -0.04484733      -0.10360976
Si       5.38774586       3.07881216       5.10924059      -0.04808427       0.00641027      -0.10360976
Si       4.07935943       0.90803491       2.74091106       0.02959359       0.03843706       0.10360976
Si       2.85360441       3.12651942       2.74091106       0.01849068      -0.04484733       0.10360976
Si       5.38774586       3.07881216       2.74091106      -0.04808427       0.00641027       0.10360976
Si       1.27046076       4.01892412       1.18861558      -0.05354984       0.02449497      -0.22862752
Si      -1.26164446       4.00365242       1.18861558       0.04798819       0.03412803      -0.22862752
Si      -0.00881753       6.20415572       1.18861558       0.00556165      -0.05862301      -0.22862752
Si       1.27046076       4.01892412       6.66153607      -0.05354984       0.02449497       0.22862752
Si      -1.26164446       4.00365242       6.66153607       0.04798819       0.03412803       0.22862752
Si      -0.00881753       6.20415572       6.66153607       0.00556165      -0.05862300       0.22862752
12