6
Lattice="4.882414329485843 0.4655173113224085 0.7992107225583848 -0.2758843683093816 4.508256319922796 -0.9485504220065737 -0.5961863361764705 -3.5561628490573303 5.720632992406326" Properties=species:S:1:pos:R:3:forces:R:3 unique_starting_index=318 config_type=initial n_minim_iter=5 energy=-976.058432482641 stress="-9.937357536767322e-05 -4.2080992861373375e-05 -2.130672453914828e-05 -4.2080992861373375e-05 0.00013424029089834612 -8.555097651617753e-06 -2.130672453914828e-05 -8.555097651617753e-06 5.216451662061597e-05" free_energy=-976.058432482641 pbc="T T T"
Si      -0.21451789       0.89312618       3.53916124       0.00003761      -0.00211468      -0.00542060
Si       4.23496535       0.79949458       1.80972167       0.00144203       0.00016617      -0.00225753
Si       4.75100712       2.85747236       0.21201507      -0.00134131      -0.00093845      -0.00298108
Si      -0.56936537       2.86660761       1.79855467      -0.00430447      -0.00031162      -0.00024509
Si       1.71448934      -0.92845349       5.52980475       0.00158648      -0.00380677       0.00565813
Si       2.14710692      -1.41325221       3.14470324       0.00257965       0.00700535       0.00524616
