10
Lattice="5.060009999999999 4.6471882359246243e-63 1.458519205748705e-62 5.308997964128185e-63 5.78061 -3.539602766809594e-16 -6.236943857855269e-32 4.0711056008735335e-16 6.648619999999999" Properties=species:S:1:pos:R:3:forces:R:3 unique_starting_index=27 config_type=initial n_minim_iter=1 energy=-1558.364309958928 stress="-1.0143988601801226 -0.9183182999679607 -0.44550250530215624 -1.9294538482265553e-13 8.154840925545405e-12 3.432281525683932e-12" pbc="T T T"
Si       0.24162104       0.57819569       5.88570548      -7.57285950      13.59683774     -15.04501756
Si       4.81838896       0.57819569       0.76291452       7.57285950      13.59683774      15.04501756
Si       2.77162604       0.57819569       0.76291452      -7.57285950      13.59683774      15.04501756
Si       2.28838396       0.57819569       5.88570548       7.57285950      13.59683774     -15.04501756
Si       4.61189197       3.85912367       0.92748183      29.82678985     -15.80141862      -1.38301176
Si       0.44811803       3.85912367       5.72113817     -29.82678985     -15.80141862       1.38301176
Si       2.08188697       3.85912367       5.72113817      29.82678985     -15.80141862       1.38301176
Si       2.97812303       3.85912367       0.92748183     -29.82678985     -15.80141862      -1.38301176
Si       1.26500250       5.20795387       5.44934791       0.00000000       4.40916177     -20.24785834
Si       3.79500750       5.20795387       1.19927209      -0.00000000       4.40916177      20.24785834
10
Lattice="5.160820886107987 9.491250225442478e-63 2.326026520456087e-34 -1.627113366865554e-50 5.884771494788348 -3.570402283697826e-16 -6.33063995182975e-32 4.1444633338512257e-16 6.706472334700819" Properties=species:S:1:pos:R:3:forces:R:3 unique_starting_index=27 config_type=initial n_minim_iter=2 energy=-1566.4276558242523 stress="-0.8688148453299339 -0.7576464409100301 -0.4004607927635842 5.262574459101767e-12 -4.737668671268969e-13 1.0010238978990714e-12" pbc="T T T"
Si       0.24566250       0.58999845       5.93540179      -5.43416710      12.51571950     -14.44451033
Si       4.91515839       0.58999845       0.77107054       5.43416710      12.51571950      14.44451033
Si       2.82607294       0.58999845       0.77107054      -5.43416710      12.51571950      14.44451033
Si       2.33474795       0.58999845       5.93540179       5.43416710      12.51571950     -14.44451033
Si       4.70681708       3.92705306       0.93541272      25.30079639     -13.96604017      -0.95387283
Si       0.45400381       3.92705306       5.77105961     -25.30079639     -13.96604017       0.95387283
Si       2.12640663       3.92705306       5.77105961      25.30079639     -13.96604017       0.95387283
Si       3.03441425       3.92705306       0.93541272     -25.30079639     -13.96604017      -0.95387283
Si       1.29020522       5.30224547       5.49472249       0.00000000       2.90064135     -17.31674593
Si       3.87061566       5.30224547       1.21174985       0.00000000       2.90064135      17.31674593
10
Lattice="5.990197642480086 4.771260104942573e-52 2.1232042732096824e-33 -1.4836427579608163e-49 6.701476184225083 -5.869011899493132e-16 -7.104644284099036e-32 2.367874667876022e-16 7.183340709804364" Properties=species:S:1:pos:R:3:forces:R:3 unique_starting_index=27 config_type=initial n_minim_iter=3 energy=-1603.6705536521927 stress="-0.146942559282165 -0.24049016978770618 -0.13880185363638353 -3.9941062374420114e-12 3.908001613948592e-12 -1.8034770619200287e-12" pbc="T T T"
Si       0.27961628       0.68431972       6.34418519       0.61236489       4.99582614      -8.46269534
Si       5.71058136       0.68431972       0.83915552      -0.61236489       4.99582614       8.46269534
Si       3.27471510       0.68431972       0.83915552       0.61236489       4.99582614       8.46269534
Si       2.71548254       0.68431972       6.34418519      -0.61236489       4.99582614      -8.46269534
Si       5.48895968       4.45817905       1.00105041       5.69379093      -5.09225660      -0.76479600
Si       0.50123796       4.45817905       6.18229030      -5.69379093      -5.09225660       0.76479600
Si       2.49386086       4.45817905       6.18229030       5.69379093      -5.09225660       0.76479600
Si       3.49633678       4.45817905       1.00105041      -5.69379093      -5.09225660      -0.76479600
Si       1.49754941       6.04098862       5.86953488       0.00000000       0.19286093      -5.58739858
Si       4.49264823       6.04098862       1.31380583      -0.00000000       0.19286093       5.58739858
10
Lattice="6.317151642497518 -7.655719064717991e-49 -3.593394774813506e-34 -7.778326946794581e-49 7.310449430719101 -7.302127570786559e-16 -7.83424132263084e-32 1.3175049174558188e-16 7.553147432988769" Properties=species:S:1:pos:R:3:forces:R:3 unique_starting_index=27 config_type=initial n_minim_iter=4 energy=-1611.4732475700423 stress="-0.039835592285032036 -0.0875625200634573 -0.06648287660406464 1.3255484885588337e-12 -1.4364895192762856e-12 -1.6673310646096146e-12" pbc="T T T"
Si       0.29601327       0.75569124       6.65776348       0.58837314       2.99565595      -4.43142761
Si       6.02113837       0.75569124       0.89538395      -0.58837314       2.99565595       4.43142761
Si       3.45458909       0.75569124       0.89538395       0.58837314       2.99565595       4.43142761
Si       2.86256255       0.75569124       6.65776348      -0.58837314       2.99565595      -4.43142761
Si       5.79910967       4.85393683       1.05140830       2.36185905      -2.82016108      -0.61194644
Si       0.51804197       4.85393683       6.50173914      -2.36185905      -2.82016108       0.61194644
Si       2.64053385       4.85393683       6.50173914       2.36185905      -2.82016108       0.61194644
Si       3.67661779       4.85393683       1.05140830      -2.36185905      -2.82016108      -0.61194644
Si       1.57928791       6.59029700       6.16310394       0.00000000      -0.35098974      -3.55831798
Si       4.73786373       6.59029700       1.39004349      -0.00000000      -0.35098974       3.55831798
10
Lattice="6.516846990295333 -1.6854467643305027e-48 -5.105169126868159e-33 -1.0327815921445764e-48 7.828058321676255 6.024247837271152e-16 -8.697055791352194e-32 1.7292867231815024e-15 7.955832139194284" Properties=species:S:1:pos:R:3:forces:R:3 unique_starting_index=27 config_type=initial n_minim_iter=5 energy=-1614.878262684352 stress="-0.01604711871010195 -0.054459205288072916 -0.027634714826344497 1.963335144605071e-12 6.715688344713904e-13 -7.742957599868055e-13" pbc="T T T"
Si       0.30748965       0.82068795       6.99921939      -0.37093455       2.07857812      -2.10746274
Si       6.20935734       0.82068795       0.95661275       0.37093455       2.07857812       2.10746274
Si       3.56591315       0.82068795       0.95661275      -0.37093455       2.07857812       2.10746274
Si       2.95093384       0.82068795       6.99921939       0.37093455       2.07857812      -2.10746274
Si       5.99093470       5.18679726       1.10559930       1.57153994      -1.84183596      -0.54531033
Si       0.52591229       5.18679726       6.85023284      -1.57153994      -1.84183596       0.54531033
Si       2.73251121       5.18679726       6.85023284       1.57153994      -1.84183596       0.54531033
Si       3.78433578       5.18679726       1.10559930      -1.57153994      -1.84183596      -0.54531033
Si       1.62921175       7.05556990       6.48084625       0.00000000      -0.47348430      -1.88589109
Si       4.88763524       7.05556990       1.47498589       0.00000000      -0.47348430       1.88589109
10
Lattice="6.743819848564042 -1.7631009042784838e-48 -1.0091009213446383e-32 -1.2281448945317284e-48 8.792515751251937 4.658003915642352e-16 -9.620530307587781e-32 1.71816987442289e-15 8.438990901545877" Properties=species:S:1:pos:R:3:forces:R:3 unique_starting_index=27 config_type=initial n_minim_iter=6 energy=-1618.076542918851 stress="0.0020299871043318865 -0.005098370125055786 -0.014543240498244903 4.747297939149949e-12 1.2642118843767871e-12 -8.676937909825608e-13" pbc="T T T"
Si       0.31485218       0.94430669       7.40745697       0.78206710       0.40762917      -1.84702733
Si       6.42896767       0.94430669       1.03153393      -0.78206711       0.40762917       1.84702733
Si       3.68676211       0.94430669       1.03153393       0.78206710       0.40762917       1.84702733
Si       3.05705774       0.94430669       7.40745697      -0.78206710       0.40762917      -1.84702733
Si       6.21377064       5.80589521       1.16838875      -0.11631373      -0.15894129       0.40842194
Si       0.53004920       5.80589521       7.27060216       0.11631373      -0.15894128      -0.40842194
Si       2.84186072       5.80589521       7.27060216      -0.11631373      -0.15894128      -0.40842194
Si       3.90195913       5.80589521       1.16838875       0.11631373      -0.15894129       0.40842194
Si       1.68595496       7.91972611       6.85937199       0.00000000      -0.49737576       0.71300702
Si       5.05786489       7.91972611       1.57961892       0.00000000      -0.49737576      -0.71300702
10
Lattice="6.7037129975210235 -1.755422692315951e-48 -1.3652593363195655e-32 -1.2164007597237646e-48 8.925229418218922 4.1905607993977216e-16 -1.0025898573424398e-31 1.6827577259457835e-15 8.807440689092374" Properties=species:S:1:pos:R:3:forces:R:3 unique_starting_index=27 config_type=initial n_minim_iter=7 energy=-1618.499794606114 stress="0.0048485892766090685 0.0017904640786405763 -0.008705072409206706 3.102988812819684e-12 -1.2006082475122055e-12 -4.838108266901821e-13" pbc="T T T"
Si       0.32108869       0.96418153       7.71263250       0.74131074       0.20235893      -0.92132322
Si       6.38262431       0.96418153       1.09480819      -0.74131074       0.20235893       0.92132322
Si       3.67294518       0.96418153       1.09480819       0.74131074       0.20235893       0.92132322
Si       3.03076781       0.96418153       7.71263250      -0.74131074       0.20235893      -0.92132322
Si       6.17561008       5.89133709       1.22343373      -0.09688459       0.09353971       0.50452416
Si       0.52810291       5.89133709       7.58400696       0.09688458       0.09353971      -0.50452416
Si       2.82375359       5.89133709       7.58400696      -0.09688458       0.09353971      -0.50452416
Si       3.87995941       5.89133709       1.22343373       0.09688459       0.09353971       0.50452416
Si       1.67592825       8.03240674       7.16589501      -0.00000000      -0.59179727       0.58371774
Si       5.02778475       8.03240674       1.64154568      -0.00000000      -0.59179727      -0.58371774
10
Lattice="6.566796156425365 -2.1503041897848593e-48 -1.0873882044228817e-32 -1.8155929300182343e-48 8.857476088089703 8.699929564967721e-16 -9.52576132987516e-32 2.171528807784683e-15 9.1398638283232" Properties=species:S:1:pos:R:3:forces:R:3 unique_starting_index=27 config_type=initial n_minim_iter=8 energy=-1618.7674119073524 stress="0.0036785816437959903 -0.009360912637471228 -0.005467657206608371 3.591022110007898e-12 1.0548696286939299e-13 3.8612426115234816e-13" pbc="T T T"
Si       0.32482469       0.96072873       7.99018338       0.49286255       0.55747561      -0.35712833
Si       6.24197147       0.96072873       1.14968045      -0.49286255       0.55747561       0.35712833
Si       3.60822277       0.96072873       1.14968045       0.49286255       0.55747561       0.35712833
Si       2.95857339       0.96072873       7.99018338      -0.49286255       0.55747561      -0.35712833
Si       6.04813388       5.84840197       1.27703066       0.50383633      -0.20048071       0.42487074
Si       0.51866227       5.84840197       7.86283317      -0.50383633      -0.20048071      -0.42487074
Si       2.76473580       5.84840197       7.86283317       0.50383633      -0.20048071      -0.42487074
Si       3.80206035       5.84840197       1.27703066      -0.50383633      -0.20048071       0.42487074
Si       1.64169904       7.96012344       7.44494564       0.00000000      -0.71398979       0.26723909
Si       4.92509712       7.96012344       1.69491819      -0.00000000      -0.71398979      -0.26723909
10
Lattice="6.521004016079535 4.271334058578824e-48 4.291547459047986e-33 6.221214145862998e-48 9.016614984958474 1.0256196046293578e-15 -7.516057636461919e-32 2.3762461768046485e-15 9.235424056024586" Properties=species:S:1:pos:R:3:forces:R:3 unique_starting_index=27 config_type=initial n_minim_iter=9 energy=-1618.9026099306282 stress="0.007345743827712203 -0.0017275959303360757 -0.005371584523659481 2.122885952281332e-12 -9.908720740729076e-13 6.780599012042284e-13" pbc="T T T"
Si       0.32550920       0.98275743       8.07128310       0.81503205       0.27492222      -0.33262104
Si       6.19549482       0.98275743       1.16414096      -0.81503205       0.27492222       0.33262104
Si       3.58601121       0.98275743       1.16414096       0.81503205       0.27492222       0.33262104
Si       2.93499281       0.98275743       8.07128310      -0.81503205       0.27492222      -0.33262104
Si       6.00897380       5.95176342       1.29328553       0.46936692       0.06121625       0.47774123
Si       0.51203022       5.95176342       7.94213853      -0.46936692       0.06121625      -0.47774122
Si       2.74847179       5.95176342       7.94213853       0.46936692       0.06121625      -0.47774123
Si       3.77253223       5.95176342       1.29328553      -0.46936692       0.06121625       0.47774123
Si       1.63025100       8.09703375       7.52461097       0.00000000      -0.67227693       0.32248502
Si       4.89075301       8.09703375       1.71081308       0.00000000      -0.67227693      -0.32248502
10
Lattice="6.451084410225706 -5.483633521961777e-48 1.9000297217402182e-32 -1.864774351415639e-48 9.039503828021614 7.457069947094411e-16 -5.568241891894195e-32 2.051827379203029e-15 9.308514338222308" Properties=species:S:1:pos:R:3:forces:R:3 unique_starting_index=27 config_type=initial n_minim_iter=10 energy=-1619.0069436573112 stress="0.008186132358780648 -0.002785184990804302 -0.005117128824695752 -7.643810199316081e-12 -7.047138247340101e-13 -3.5611964294053763e-13" pbc="T T T"
Si       0.32563805       0.98706445       8.13341200       0.84933889       0.29925917      -0.27273125
Si       6.12544636       0.98706445       1.17510233      -0.84933889       0.29925917       0.27273125
Si       3.55118025       0.98706445       1.17510233       0.84933889       0.29925917       0.27273125
Si       2.89990416       0.98706445       8.13341200      -0.84933889       0.29925917      -0.27273125
Si       5.94662844       5.96727562       1.30603171       0.69623696       0.04992513       0.45545192
Si       0.50445597       5.96727562       8.00248263      -0.69623696       0.04992512      -0.45545192
Si       2.72108624       5.96727562       8.00248263       0.69623696       0.04992512      -0.45545192
Si       3.72999817       5.96727562       1.30603171      -0.69623696       0.04992513       0.45545192
Si       1.61277110       8.11315660       7.58585662      -0.00000000      -0.69836859       0.25646286
Si       4.83831331       8.11315660       1.72265772      -0.00000000      -0.69836859      -0.25646285
10
Lattice="6.170698801520185 -2.3780293421796983e-47 3.1349368753758265e-32 -2.4628777147627424e-49 9.177206836402801 -3.17691535631321e-15 -3.966816842341376e-32 -2.4467598565591098e-15 9.5707006744261" Properties=species:S:1:pos:R:3:forces:R:3 unique_starting_index=27 config_type=initial n_minim_iter=11 energy=-1619.4332014138108 stress="0.0026276657182464423 -0.0022819573422793267 -0.005776203787881339 4.787368845117424e-12 6.164829793982733e-13 2.1523607415351784e-12" pbc="T T T"
Si       0.32468994       1.00953029       8.35700344       0.87038316       0.28896110      -0.11413015
Si       5.84600886       1.00953029       1.21369723      -0.87038316       0.28896110       0.11413015
Si       3.41003934       1.00953029       1.21369723       0.87038316       0.28896110       0.11413015
Si       2.76065946       1.00953029       8.35700344      -0.87038316       0.28896110      -0.11413015
Si       5.69899301       6.05941737       1.35199696       1.62897108       0.12003895       0.49060303
Si       0.47170579       6.05941737       8.21870372      -1.62897108       0.12003895      -0.49060303
Si       2.61364361       6.05941737       8.21870372       1.62897108       0.12003895      -0.49060303
Si       3.55705519       6.05941737       1.35199696      -1.62897108       0.12003895       0.49060303
Si       1.54267470       8.21941039       7.80469082       0.00000000      -0.81800011       0.02169511
Si       4.62802410       8.21941039       1.76600985       0.00000000      -0.81800011      -0.02169511
10
Lattice="6.117351940862827 -1.5784226373019764e-47 4.796867346570777e-32 4.2178394608492904e-48 9.246668460577713 -3.577595014396096e-15 -1.903074749117451e-32 -2.8535231487013863e-15 9.755128284675045" Properties=species:S:1:pos:R:3:forces:R:3 unique_starting_index=27 config_type=initial n_minim_iter=12 energy=-1619.6618266575729 stress="0.003361945765023989 -0.0003954129653931331 -0.005086998244700711 -1.0955162174904697e-12 1.964481645792086e-13 -5.931441322718666e-13" pbc="T T T"
Si       0.32970651       1.02164527       8.51657343       0.88206561       0.22254841      -0.05047552
Si       5.78764543       1.02164527       1.23855486      -0.88206561       0.22254841       0.05047552
Si       3.38838249       1.02164527       1.23855486       0.88206561       0.22254841       0.05047552
Si       2.72896946       1.02164527       8.51657343      -0.88206561       0.22254841      -0.05047552
Si       5.66436640       6.10713921       1.38436744       1.18288177       0.18059163       0.58334762
Si       0.45298554       6.10713921       8.37076084      -1.18288177       0.18059163      -0.58334762
Si       2.60569043       6.10713921       8.37076084       1.18288177       0.18059163      -0.58334762
Si       3.51166151       6.10713921       1.38436744      -1.18288177       0.18059163       0.58334762
Si       1.52933799       8.26895762       7.95536675       0.00000000      -0.80628008       0.18706110
Si       4.58801396       8.26895762       1.79976153       0.00000000      -0.80628008      -0.18706110
10
Lattice="5.979558853169575 -1.2193508372735099e-47 5.922913298162903e-32 4.86953926190761e-49 9.271478600262444 -3.1532055646003692e-15 -6.861086331211733e-33 -2.2519380171224658e-15 10.097275265991446" Properties=species:S:1:pos:R:3:forces:R:3 unique_starting_index=27 config_type=initial n_minim_iter=13 energy=-1619.9689796870703 stress="-0.00257211131930273 -8.27884784343107e-05 -0.002586095870264215 1.4523161447832643e-12 -1.1491134446621717e-12 4.840065422761369e-13" pbc="T T T"
Si       0.33775594       1.03139847       8.81389861       0.35045867       0.19915003       0.11470071
Si       5.64180292       1.03139847       1.28337666      -0.35045867       0.19915004      -0.11470071
Si       3.32753536       1.03139847       1.28337666       0.35045867       0.19915004      -0.11470071
Si       2.65202349       1.03139847       8.81389861      -0.35045867       0.19915004       0.11470071
Si       5.55753073       6.12921556       1.44888573       0.88952698       0.18446304       0.65965604
Si       0.42202812       6.12921556       8.64838954      -0.88952698       0.18446304      -0.65965604
Si       2.56775130       6.12921556       8.64838954       0.88952698       0.18446304      -0.65965604
Si       3.41180755       6.12921556       1.44888573      -0.88952698       0.18446304       0.65965604
Si       1.49488971       8.26574042       8.23950873      -0.00000000      -0.76722615       0.48084264
Si       4.48466914       8.26574042       1.85776654       0.00000000      -0.76722615      -0.48084264
10
Lattice="6.077134759971014 6.782861618568136e-49 6.524415001604459e-32 1.5606653371621324e-48 9.276310257607651 -1.9498154586208544e-15 -3.471046794807613e-34 -7.832705166392546e-16 10.262948240334508" Properties=species:S:1:pos:R:3:forces:R:3 unique_starting_index=27 config_type=initial n_minim_iter=14 energy=-1620.0452351953302 stress="0.011040553399492347 0.002426795349761218 0.0029989650572858667 9.93941587394743e-13 -4.979453362451053e-13 1.2318042704843446e-13" pbc="T T T"
Si       0.34885922       1.03769831       8.96153721       0.65573254       0.08225449       0.19136613
Si       5.72827554       1.03769831       1.30141103      -0.65573254       0.08225449      -0.19136613
Si       3.38742660       1.03769831       1.30141103       0.65573254       0.08225449      -0.19136613
Si       2.68970816       1.03769831       8.96153721      -0.65573254       0.08225449       0.19136613
Si       5.66241261       6.13774706       1.49004351      -0.40249914       0.24688903       0.41314393
Si       0.41472215       6.13774706       8.77290473       0.40249914       0.24688903      -0.41314393
Si       2.62384523       6.13774706       8.77290473      -0.40249914       0.24688903      -0.41314393
Si       3.45328953       6.13774706       1.49004351       0.40249914       0.24688903       0.41314393
Si       1.51928369       8.24784851       8.38737242       0.00000000      -0.65828703       0.85341750
Si       4.55785107       8.24784851       1.87557582       0.00000000      -0.65828703      -0.85341750
10
Lattice="5.96096971016093 3.917294571051092e-48 6.516803788585364e-32 2.981306992793721e-49 9.237040560925262 -1.3551368749420918e-15 2.932111255232652e-36 -1.0717517975659022e-16 10.20928515381823" Properties=species:S:1:pos:R:3:forces:R:3 unique_starting_index=27 config_type=initial n_minim_iter=15 energy=-1620.1300786692734 stress="-0.0015178388639240966 -0.002584638363015165 -0.0019061130222192996 2.846892832770794e-12 9.948922330413716e-13 -7.397614086547623e-13" pbc="T T T"
Si       0.34499400       1.03394269       8.91604951       0.03858458       0.21857677       0.16812199
Si       5.61597571       1.03394269       1.29323564      -0.03858458       0.21857677      -0.16812199
Si       3.32547886       1.03394269       1.29323564       0.03858458       0.21857677      -0.16812199
Si       2.63549085       1.03394269       8.91604951      -0.03858458       0.21857677       0.16812199
Si       5.55245433       6.11367682       1.48521124       0.41976185       0.04189001       0.59689329
Si       0.40851538       6.11367682       8.72407391      -0.41976185       0.04189001      -0.59689329
Si       2.57196948       6.11367682       8.72407391       0.41976185       0.04189001      -0.59689329
Si       3.38900023       6.11367682       1.48521124      -0.41976185       0.04189001       0.59689329
Si       1.49024243       8.20783229       8.34962846       0.00000000      -0.52093356       0.43149395
Si       4.47072728       8.20783229       1.85965669      -0.00000000      -0.52093356      -0.43149395
10
Lattice="5.973313775752415 -5.0815826110321753e-48 6.533521846935563e-32 5.368105432503295e-50 9.269636548378958 -2.5568509430924223e-15 -1.3048503089904848e-37 -1.4858188200843959e-15 10.23584188238152" Properties=species:S:1:pos:R:3:forces:R:3 unique_starting_index=27 config_type=initial n_minim_iter=16 energy=-1620.15237527048 stress="0.0008471213851042518 -0.00020688500984397174 -0.0007950105824771974 -5.995637310778777e-13 1.0550729870672965e-12 -4.219268020834561e-13" pbc="T T T"
Si       0.34583852       1.03894922       8.94020585       0.13789516       0.14298508       0.17913908
Si       5.62747526       1.03894922       1.29563604      -0.13789516       0.14298508      -0.17913908
Si       3.33249540       1.03894922       1.29563604       0.13789516       0.14298508      -0.17913908
Si       2.64081837       1.03894922       8.94020585      -0.13789516       0.14298508       0.17913908
Si       5.56536776       6.13551122       1.49249579       0.20422385       0.12744413       0.55060445
Si       0.40794602       6.13551122       8.74334610      -0.20422385       0.12744413      -0.55060445
Si       2.57871087       6.13551122       8.74334610       0.20422385       0.12744413      -0.55060445
Si       3.39460291       6.13551122       1.49249579      -0.20422385       0.12744413       0.55060445
Si       1.49332844       8.23356005       8.37382095       0.00000000      -0.54085843       0.51237888
Si       4.47998533       8.23356005       1.86202093       0.00000000      -0.54085843      -0.51237888
10
Lattice="5.966495339909329 -3.769677257306388e-48 6.540539229786773e-32 8.976444394237855e-51 9.27222252190191 -2.375491009811452e-15 7.341140253423678e-39 -1.2743533514929598e-15 10.24681932122208" Properties=species:S:1:pos:R:3:forces:R:3 unique_starting_index=27 config_type=initial n_minim_iter=17 energy=-1620.168899894428 stress="0.0004297726272716184 -0.00019877266887333202 -0.0008519335942170727 -2.1347254098799126e-12 -1.231257351038416e-12 1.3661618084611224e-12" pbc="T T T"
Si       0.34590036       1.04011396       8.95080492       0.08955426       0.13716082       0.18559661
Si       5.62059498       1.04011396       1.29601441      -0.08955426       0.13716082      -0.18559661
Si       3.32914803       1.04011396       1.29601441       0.08955426       0.13716082      -0.18559661
Si       2.63734731       1.04011396       8.95080492      -0.08955426       0.13716082       0.18559661
Si       5.55969124       6.13800266       1.49720426       0.19248626       0.12274525       0.54551599
Si       0.40680410       6.13800266       8.74961506      -0.19248626       0.12274524      -0.54551599
Si       2.57644357       6.13800266       8.74961506       0.19248626       0.12274524      -0.54551599
Si       3.39005177       6.13800266       1.49720426      -0.19248626       0.12274524       0.54551599
Si       1.49162383       8.23254756       8.38569355      -0.00000000      -0.51981213       0.48946360
Si       4.47487150       8.23254756       1.86112577       0.00000000      -0.51981213      -0.48946360
10
Lattice="5.953444985828373 4.7746926249839e-49 6.568989909788596e-32 1.4556384185414236e-51 9.281617593144338 -1.8103787747533964e-15 -5.100460672764864e-40 -6.086288941898134e-16 10.291392882590474" Properties=species:S:1:pos:R:3:forces:R:3 unique_starting_index=27 config_type=initial n_minim_iter=18 energy=-1620.224607008765 stress="0.0002909207188915691 2.1097435939851737e-05 -0.000547201235401199 8.185835792492145e-13 6.211541795818927e-13 1.777534050896947e-13" pbc="T T T"
Si       0.34626044       1.04434281       8.99372023      -0.02552091       0.11270851       0.21288843
Si       5.60718455       1.04434281       1.29767265       0.02552091       0.11270851      -0.21288843
Si       3.32298293       1.04434281       1.29767265      -0.02552091       0.11270851      -0.21288843
Si       2.63046205       1.04434281       8.99372023       0.02552091       0.11270851       0.21288843
Si       5.54993079       6.14706326       1.51541356       0.06537833       0.11497819       0.50329392
Si       0.40351420       6.14706326       8.77597932      -0.06537833       0.11497819      -0.50329392
Si       2.57320830       6.14706326       8.77597932       0.06537833       0.11497819      -0.50329392
Si       3.38023669       6.14706326       1.51541356      -0.06537833       0.11497819       0.50329392
Si       1.48836125       8.22885673       8.43266588      -0.00000000      -0.45537341       0.43970272
Si       4.46508374       8.22885673       1.85872700      -0.00000000      -0.45537341      -0.43970272
