18
Lattice="5.848949008924381 0.0 0.0 0.0 4.846958557205475 -4.5590661355207785e-24 0.0 1.0701815257820091e-23 11.377605303283893" Properties=species:S:1:pos:R:3:forces:R:3 unique_starting_index=36 config_type=initial n_minim_iter=1 energy=-2929.2407014180776 stress="0.0023792798680078086 3.3650551396982537e-12 -5.789133384868038e-13 3.3650551396982537e-12 -0.0016916162347251588 -2.7564571331093892e-12 -5.789133384868038e-13 -2.7564571331093892e-12 0.004166710237265631" free_energy=-2929.2407014180776 pbc="T T T"
Si       4.36170300       4.72220370      10.66548445      -0.18444683       0.19376175      -0.10902108
Si       1.48724601       4.72220370       0.71212086       0.18444683       0.19376175       0.10902108
Si       4.41172051       4.72220370       4.97668179       0.18444683       0.19376175      -0.10902108
Si       1.43722849       4.72220370       6.40092351      -0.18444683       0.19376175       0.10902108
Si       0.03209856       1.53778943       1.98821096      -0.11161946      -0.03639384      -0.28973254
Si       5.81685044       1.53778943       9.38939435       0.11161946      -0.03639384       0.28973254
Si       2.89237594       1.53778943       7.67701361       0.11161946      -0.03639384      -0.28973254
Si       2.95657307       1.53778943       3.70059169      -0.11161946      -0.03639384       0.28973254
Si       1.56848423       3.30398606       2.68815734       0.02541581       0.00755188       0.23346381
Si       4.28046478       3.30398606       8.68944797      -0.02541581       0.00755188      -0.23346381
Si       1.35599028       3.30398606       8.37695999      -0.02541581       0.00755188       0.23346381
Si       4.49295873       3.30398606       3.00064532       0.02541581       0.00755188      -0.23346381
Si       3.72686888       0.27902268       1.63551002      -0.00941522      -0.18422088      -0.24999815
Si       2.12208012       0.27902268       9.74209528       0.00941522      -0.18422088       0.24999815
Si      -0.80239438       0.27902268       7.32431267       0.00941522      -0.18422087      -0.24999815
Si       6.65134339       0.27902268       4.05329263      -0.00941522      -0.18422087       0.24999815
Si      -0.00000000       2.94911047      -0.00000000       0.00000000       0.03860217       0.00000000
Si       2.92447450       2.94911047       5.68880265       0.00000000       0.03860217      -0.00000000
18
Lattice="5.824175306659421 0.0 0.0 0.0 4.861607812383292 -4.869054882319128e-24 0.0 9.932291157656628e-24 11.293345592989342" Properties=species:S:1:pos:R:3:forces:R:3 unique_starting_index=36 config_type=initial n_minim_iter=2 energy=-2929.252160022692 stress="-0.0015577349171791845 -6.607260376265809e-12 2.485716862594561e-12 -6.607260376265809e-12 -0.00350131820224317 2.4726947908935976e-14 2.485716862594561e-12 2.4726947908935976e-14 -0.0032281806838876763" free_energy=-2929.252160022692 pbc="T T T"
Si       4.34221282       4.73755080      10.58590001      -0.13993412       0.18942236      -0.10295481
Si       1.48196248       4.73755080       0.70744558       0.13993412       0.18942236       0.10295481
Si       4.39405014       4.73755080       4.93922722       0.13993412       0.18942236      -0.10295481
Si       1.43012517       4.73755080       6.35411838      -0.13993412       0.18942236       0.10295481
Si       0.03134787       1.54223529       1.97189617      -0.10175765      -0.06822114      -0.26427325
Si       5.79282743       1.54223529       9.32144943       0.10175765      -0.06822114       0.26427325
Si       2.88073978       1.54223529       7.61856896       0.10175765      -0.06822114      -0.26427325
Si       2.94343553       1.54223529       3.67477663      -0.10175765      -0.06822114       0.26427325
Si       1.56198076       3.31401379       2.66953120       0.03986415      -0.00769258       0.24767612
Si       4.26219455       3.31401379       8.62381439      -0.03986414      -0.00769258      -0.24767612
Si       1.35010689       3.31401379       8.31620400      -0.03986415      -0.00769258       0.24767612
Si       4.47406841       3.31401379       2.97714160       0.03986415      -0.00769258      -0.24767612
Si       3.71103157       0.27884401       1.62202538      -0.00233768      -0.15330910      -0.21110611
Si       2.11314373       0.27884401       9.67132021       0.00233768      -0.15330910       0.21110611
Si      -0.79894392       0.27884401       7.26869818       0.00233768      -0.15330910      -0.21110611
Si       6.62311923       0.27884401       4.02464741      -0.00233768      -0.15330910       0.21110611
Si      -0.00000000       2.95823789      -0.00000000      -0.00000000       0.07960092       0.00000000
Si       2.91208765       2.95823789       5.64667280      -0.00000000       0.07960091       0.00000000
18
Lattice="5.818612000279237 0.0 0.0 0.0 4.897689903105869 -5.0135926106533176e-24 0.0 9.662055079256976e-24 11.282680372882258" Properties=species:S:1:pos:R:3:forces:R:3 unique_starting_index=36 config_type=initial n_minim_iter=3 energy=-2929.2607838857143 stress="0.0008773921447346213 -1.314110315846555e-11 -3.123334930367918e-12 -1.314110315846555e-11 0.0036028831812463594 -3.74133361678501e-12 -3.123334930367918e-12 -3.74133361678501e-12 -0.0015726597194250552" free_energy=-2929.2607838857143 pbc="T T T"
Si       4.33666237       4.77440973      10.57498680      -0.08711134       0.15226484      -0.12092665
Si       1.48194963       4.77440973       0.70769357       0.08711134       0.15226484       0.12092665
Si       4.39125563       4.77440973       4.93364661       0.08711134       0.15226484      -0.12092665
Si       1.42735637       4.77440973       6.34903376      -0.08711134       0.15226484       0.12092665
Si       0.03039198       1.55321193       1.96764124      -0.09131004      -0.05806966      -0.23859538
Si       5.78822002       1.55321193       9.31503914       0.09131004      -0.05806966       0.23859538
Si       2.87891402       1.55321193       7.60898142       0.09131004      -0.05806966      -0.23859538
Si       2.93969798       1.55321193       3.67369895      -0.09131004      -0.05806966       0.23859538
Si       1.56077493       3.33860642       2.66909392       0.01980708       0.01090822       0.22555203
Si       4.25783707       3.33860642       8.61358646      -0.01980708       0.01090822      -0.22555204
Si       1.34853107       3.33860642       8.31043410      -0.01980708       0.01090822       0.22555204
Si       4.47008093       3.33860642       2.97224627       0.01980708       0.01090822      -0.22555204
Si       3.70743685       0.27942326       1.61850491       0.02460382      -0.16389076      -0.15780411
Si       2.11117515       0.27942326       9.66417547      -0.02460382      -0.16389076       0.15780411
Si      -0.79813085       0.27942326       7.25984509      -0.02460381      -0.16389076      -0.15780411
Si       6.61674285       0.27942326       4.02283528       0.02460382      -0.16389076       0.15780411
Si      -0.00000000       2.98072499      -0.00000000      -0.00000000       0.11757471      -0.00000000
Si       2.90930600       2.98072499       5.64134019      -0.00000000       0.11757471       0.00000000
18
Lattice="5.7466988627839815 0.0 0.0 0.0 4.890936339676186 -4.8525883774646405e-24 0.0 1.0131394345439595e-23 11.388537259094194" Properties=species:S:1:pos:R:3:forces:R:3 unique_starting_index=36 config_type=initial n_minim_iter=4 energy=-2929.297282129692 stress="-0.007604337815786958 -8.56761043406113e-12 3.453908851228576e-12 -8.56761043406113e-12 0.0014408212368454026 -1.0995190669292424e-12 3.453908851228576e-12 -1.0995190669292424e-12 0.0021838883832890343" free_energy=-2929.297282129692 pbc="T T T"
Si       4.27477966       4.77938070      10.66690668       0.05499269       0.02364835      -0.13460808
Si       1.47191921       4.77938070       0.72163058      -0.05499269       0.02364835       0.13460808
Si       4.34526864       4.77938070       4.97263805      -0.05499270       0.02364835      -0.13460808
Si       1.40143023       4.77938070       6.41589921       0.05499269       0.02364835       0.13460808
Si       0.02362592       1.54742909       1.96919323      -0.02605031      -0.03069609      -0.23726452
Si       5.72307294       1.54742909       9.41934403       0.02605031      -0.03069609       0.23726452
Si       2.84972351       1.54742909       7.66346186       0.02605031      -0.03069609      -0.23726452
Si       2.89697535       1.54742909       3.72507540      -0.02605031      -0.03069609       0.23726452
Si       1.54322295       3.33430610       2.70934390      -0.01180982       0.06902405       0.10801410
Si       4.20347591       3.33430610       8.67919336       0.01180982       0.06902405      -0.10801410
Si       1.33012648       3.33430610       8.40361253       0.01180982       0.06902405       0.10801410
Si       4.41657238       3.33430610       2.98492473      -0.01180982       0.06902405      -0.10801410
Si       3.66207996       0.26801886       1.62075947       0.12048572      -0.09369703      -0.08671082
Si       2.08461890       0.26801886       9.76777779      -0.12048572      -0.09369703       0.08671083
Si      -0.78873053       0.26801886       7.31502810      -0.12048572      -0.09369703      -0.08671083
Si       6.53542939       0.26801886       4.07350916       0.12048572      -0.09369703       0.08671082
Si      -0.00000000       2.98221928      -0.00000000       0.00000000       0.06344145      -0.00000000
Si       2.87334943       2.98221928       5.69426863      -0.00000000       0.06344145      -0.00000000
18
Lattice="5.837280767828679 0.0 0.0 0.0 4.842235367167186 -4.82852247616249e-24 0.0 1.0074962749191925e-23 11.376844472656567" Properties=species:S:1:pos:R:3:forces:R:3 unique_starting_index=36 config_type=initial n_minim_iter=5 energy=-2929.34083001494 stress="0.000991181741872686 1.2346396220113364e-11 -2.9503972189940218e-12 1.2346396220113364e-11 -0.001067990727531238 -6.1208509115844494e-12 -2.9503972189940218e-12 -6.1208509115844494e-12 -0.001403081430781498" free_energy=-2929.34083001494 pbc="T T T"
Si       4.33130025       4.74786622      10.64397789       0.15036371      -0.14391457      -0.18108517
Si       1.50598052       4.74786622       0.73286658      -0.15036371      -0.14391457       0.18108517
Si       4.42462090       4.74786622       4.95555565      -0.15036371      -0.14391457      -0.18108517
Si       1.41265987       4.74786622       6.42128882       0.15036371      -0.14391457       0.18108517
Si       0.01468867       1.52667007       1.94049039       0.01915551       0.12005445      -0.08371585
Si       5.82259210       1.52667007       9.43635408      -0.01915551       0.12005445       0.08371585
Si       2.90395172       1.52667007       7.62891263      -0.01915551       0.12005445      -0.08371585
Si       2.93332905       1.52667007       3.74793185       0.01915551       0.12005445       0.08371585
Si       1.56978277       3.30254540       2.72898820      -0.03721309      -0.14404782      -0.09801649
Si       4.26749800       3.30254540       8.64785627       0.03721309      -0.14404782       0.09801649
Si       1.34885762       3.30254540       8.41741044       0.03721309      -0.14404782      -0.09801649
Si       4.48842315       3.30254540       2.95943403      -0.03721309      -0.14404782       0.09801649
Si       3.72214262       0.24893633       1.60003060       0.05811896       0.02216423      -0.06423916
Si       2.11513815       0.24893633       9.77681388      -0.05811896       0.02216423       0.06423916
Si      -0.80350223       0.24893633       7.28845283      -0.05811895       0.02216423      -0.06423916
Si       6.64078300       0.24893633       4.08839164       0.05811895       0.02216423       0.06423916
Si      -0.00000000       2.96102104      -0.00000000       0.00000000       0.29148743      -0.00000000
Si       2.91864038       2.96102104       5.68842224       0.00000000       0.29148743       0.00000000
18
Lattice="5.793077736411299 0.0 0.0 0.0 4.86961196727196 -4.736513145714979e-24 0.0 1.0425068955216608e-23 11.454291112138764" Properties=species:S:1:pos:R:3:forces:R:3 unique_starting_index=36 config_type=initial n_minim_iter=6 energy=-2929.3730650498746 stress="-0.002522778095205616 8.090399501734442e-12 -1.2396821859695477e-11 8.090399501734442e-12 0.002647593049966354 2.827987892500365e-12 -1.2396821859695477e-11 2.827987892500365e-12 0.004154200274341249" free_energy=-2929.3730650498746 pbc="T T T"
Si       4.30691308       4.76778761      10.70178936       0.05610270      -0.06176658      -0.10470918
Si       1.48616466       4.76778761       0.75250175      -0.05610270      -0.06176658       0.10470918
Si       4.38270353       4.76778761       4.97464381      -0.05610270      -0.06176658      -0.10470918
Si       1.41037421       4.76778761       6.47964730       0.05610270      -0.06176658       0.10470918
Si       0.01426543       1.54224996       1.94242410       0.00598082       0.08626770      -0.15756709
Si       5.77881231       1.54224996       9.51186701      -0.00598082       0.08626770       0.15756709
Si       2.88227344       1.54224996       7.66956965      -0.00598082       0.08626770      -0.15756709
Si       2.91080429       1.54224996       3.78472146       0.00598082       0.08626770       0.15756709
Si       1.55559187       3.31289083       2.74515192      -0.07876553       0.01623038      -0.02506414
Si       4.23748587       3.31289083       8.70913919       0.07876553       0.01623038       0.02506414
Si       1.34094700       3.31289083       8.47229747       0.07876552       0.01623038      -0.02506414
Si       4.45213074       3.31289083       2.98199364      -0.07876553       0.01623038       0.02506414
Si       3.69902142       0.24843962       1.60328700       0.12002529      -0.06275379      -0.08104359
Si       2.09405632       0.24843962       9.85100412      -0.12002529      -0.06275379       0.08104359
Si      -0.80248255       0.24843962       7.33043255      -0.12002529      -0.06275379      -0.08104358
Si       6.59556029       0.24843962       4.12385856       0.12002529      -0.06275379       0.08104359
Si      -0.00000000       2.99816873      -0.00000000      -0.00000000       0.04404458       0.00000000
Si       2.89653887       2.99816873       5.72714556       0.00000000       0.04404458       0.00000000
18
Lattice="5.82623748110144 0.0 0.0 0.0 4.8541667728030715 -4.701517798918325e-24 0.0 1.0529656228225047e-23 11.508478292180492" Properties=species:S:1:pos:R:3:forces:R:3 unique_starting_index=36 config_type=initial n_minim_iter=7 energy=-2929.425369723886 stress="-0.0014930110301292767 9.823684502634127e-12 -1.1247739268238372e-12 9.823684502634127e-12 0.0021130969734713995 -7.000522336181829e-13 -1.1247739268238372e-12 -7.000522336181829e-13 0.005980817769121547" free_energy=-2929.425369723886 pbc="T T T"
Si       4.33949801       4.75328370      10.70151683      -0.11963784      -0.01145541       0.07180516
Si       1.48673947       4.75328370       0.80696146       0.11963784      -0.01145541      -0.07180515
Si       4.39985821       4.75328370       4.94727769       0.11963784      -0.01145541       0.07180515
Si       1.42637927       4.75328370       6.56120060      -0.11963784      -0.01145541      -0.07180516
Si       0.00304588       1.55102362       1.89018364      -0.01091503       0.17812918      -0.04572983
Si       5.82319160       1.55102362       9.61829465       0.01091503       0.17812918       0.04572983
Si       2.91007286       1.55102362       7.64442279       0.01091503       0.17812918      -0.04572983
Si       2.91616462       1.55102362       3.86405551      -0.01091503       0.17812918       0.04572983
Si       1.55895538       3.28357473       2.77718153      -0.15869895       0.04387370      -0.06651425
Si       4.26728210       3.28357473       8.73129676       0.15869895       0.04387370       0.06651425
Si       1.35416336       3.28357473       8.53142068       0.15869895       0.04387370      -0.06651425
Si       4.47207412       3.28357473       2.97705762      -0.15869895       0.04387370       0.06651425
Si       3.73754844       0.22270335       1.56756402       0.14111730      -0.09515255      -0.12482147
Si       2.08868904       0.22270335       9.94091427      -0.14111730      -0.09515255       0.12482147
Si      -0.82442970       0.22270335       7.32180317      -0.14111730      -0.09515255      -0.12482147
Si       6.65066718       0.22270335       4.18667512       0.14111730      -0.09515255       0.12482147
Si      -0.00000000       3.04760551      -0.00000000       0.00000000      -0.23078984       0.00000000
Si       2.91311874       3.04760551       5.75423915       0.00000000      -0.23078984       0.00000000
18
Lattice="5.858185513019059 0.0 0.0 0.0 4.844872100649035 -4.830459348331555e-24 0.0 1.0140718277179022e-23 11.442187284786902" Properties=species:S:1:pos:R:3:forces:R:3 unique_starting_index=36 config_type=initial n_minim_iter=8 energy=-2929.441571311802 stress="-0.0004587736318575409 2.4654922532339166e-12 -6.2055556395162705e-12 2.4654922532339166e-12 -0.0002903881800431696 -6.169080200464296e-12 -6.2055556395162705e-12 -6.169080200464296e-12 -0.0008097034720050494" free_energy=-2929.441571311802 pbc="T T T"
Si       4.36242456       4.74473296      10.63211301      -0.13459028      -0.00500793       0.06770610
Si       1.49576095       4.74473296       0.81007427       0.13459028      -0.00500793      -0.06770610
Si       4.42485371       4.74473296       4.91101937       0.13459028      -0.00500793       0.06770610
Si       1.43333180       4.74473296       6.53116791      -0.13459028      -0.00500793      -0.06770610
Si       0.00061729       1.55287724       1.86790986      -0.01747741       0.15850072       0.02345372
Si       5.85756822       1.55287724       9.57427742       0.01747741       0.15850072      -0.02345372
Si       2.92847546       1.55287724       7.58900351       0.01747741       0.15850072       0.02345372
Si       2.92971005       1.55287724       3.85318378      -0.01747741       0.15850072      -0.02345372
Si       1.56443387       3.27405632       2.76412263      -0.14959272      -0.01477438      -0.06669843
Si       4.29375164       3.27405632       8.67806465       0.14959272      -0.01477438       0.06669843
Si       1.36465888       3.27405632       8.48521627       0.14959272      -0.01477438      -0.06669843
Si       4.49352663       3.27405632       2.95697101      -0.14959272      -0.01477438       0.06669843
Si       3.76276381       0.21638295       1.54871512       0.10155198      -0.06548434      -0.10723459
Si       2.09542170       0.21638295       9.89347217      -0.10155198      -0.06548434       0.10723459
Si      -0.83367106       0.21638295       7.26980876      -0.10155198      -0.06548434      -0.10723459
Si       6.69185657       0.21638295       4.17237853       0.10155198      -0.06548434       0.10723459
Si      -0.00000000       3.04927158      -0.00000000       0.00000000      -0.14646813       0.00000000
Si       2.92909276       3.04927158       5.72109364       0.00000000      -0.14646813      -0.00000000
18
Lattice="5.934506148271335 0.0 0.0 0.0 4.815456616851112 -4.845207079455722e-24 0.0 1.0037584308270986e-23 11.433352721904392" Properties=species:S:1:pos:R:3:forces:R:3 unique_starting_index=36 config_type=initial n_minim_iter=9 energy=-2929.463356608511 stress="0.003623559652793916 -1.90209170800543e-12 1.8600996428836132e-12 -1.90209170800543e-12 -0.002811610750908345 2.2191328479588108e-12 1.8600996428836132e-12 2.2191328479588108e-12 -0.008214114768072472" free_energy=-2929.463356608511 pbc="T T T"
Si       4.40926075       4.71787091      10.59823159      -0.08362384       0.00431061       0.02306419
Si       1.52524540       4.71787091       0.83512113       0.08362384       0.00431061      -0.02306419
Si       4.49249847       4.71787091       4.88155523       0.08362384       0.00431061       0.02306419
Si       1.44200768       4.71787091       6.55179749      -0.08362384       0.00431061      -0.02306419
Si      -0.00945024       1.56743503       1.82692011      -0.02873836       0.05824660       0.16173286
Si       5.94395639       1.56743503       9.60643261       0.02873836       0.05824660      -0.16173286
Si       2.97670332       1.56743503       7.54359647       0.02873836       0.05824660       0.16173286
Si       2.95780283       1.56743503       3.88975625      -0.02873836       0.05824660      -0.16173286
Si       1.56650371       3.24166925       2.76978957      -0.14278674      -0.07236902      -0.07347929
Si       4.36800244       3.24166925       8.66356315       0.14278674      -0.07236902       0.07347929
Si       1.40074936       3.24166925       8.48646593       0.14278673      -0.07236902      -0.07347929
Si       4.53375678       3.24166925       2.94688679      -0.14278673      -0.07236902       0.07347929
Si       3.83345615       0.19079529       1.50721255       0.05958282      -0.03930355      -0.04999073
Si       2.10105000       0.19079529       9.92614017      -0.05958282      -0.03930355       0.04999073
Si      -0.86620307       0.19079529       7.22388891      -0.05958282      -0.03930355      -0.04999073
Si       6.80070922       0.19079529       4.20946381       0.05958282      -0.03930355       0.04999073
Si      -0.00000000       3.05246035      -0.00000000      -0.00000000       0.09823070       0.00000000
Si       2.96725307       3.05246035       5.71667636      -0.00000000       0.09823070      -0.00000000
18
Lattice="5.884566265998269 0.0 0.0 0.0 4.820726095303131 -4.7662835354020414e-24 0.0 1.0476239602460423e-23 11.669109654759087" Properties=species:S:1:pos:R:3:forces:R:3 unique_starting_index=36 config_type=initial n_minim_iter=10 energy=-2929.516486930379 stress="0.00364770064286612 -2.5863841016778564e-12 2.1935265842174596e-12 -2.5863841016778564e-12 0.002900526156197484 4.880533609203708e-12 2.1935265842174596e-12 4.880533609203708e-12 0.0054337043464886235" free_energy=-2929.516486930379 pbc="T T T"
Si       4.35978307       4.72069703      10.79600286       0.07701841       0.03917463      -0.00486422
Si       1.52478319       4.72069703       0.87310680      -0.07701841       0.03917463       0.00486422
Si       4.46706633       4.72069703       4.96144803      -0.07701841       0.03917463      -0.00486422
Si       1.41749994       4.72069703       6.70766162       0.07701841       0.03917463       0.00486422
Si      -0.01817913       1.59948298       1.83634965      -0.04738885      -0.05531341       0.05717130
Si       5.90274539       1.59948298       9.83276001       0.04738885      -0.05531341      -0.05717130
Si       2.96046226       1.59948298       7.67090448       0.04738885      -0.05531341       0.05717130
Si       2.92410401       1.59948298       3.99820518      -0.04738885      -0.05531341      -0.05717130
Si       1.52478948       3.23288926       2.82452674      -0.15633037       0.13013082       0.01948505
Si       4.35977678       3.23288926       8.84458291       0.15633037       0.13013082      -0.01948505
Si       1.41749365       3.23288926       8.65908157       0.15633037       0.13013082       0.01948505
Si       4.46707262       3.23288926       3.01002808      -0.15633037       0.13013082      -0.01948505
Si       3.82894288       0.16670458       1.49809147       0.19381097      -0.12780964       0.01937903
Si       2.05562339       0.16670458      10.17101818      -0.19381097      -0.12780964      -0.01937903
Si      -0.88665974       0.16670458       7.33264630      -0.19381097      -0.12780964       0.01937903
Si       6.77122601       0.16670458       4.33646336       0.19381097      -0.12780964      -0.01937903
Si      -0.00000000       3.07306188      -0.00000000       0.00000000       0.02763520       0.00000000
Si       2.94228313       3.07306188       5.83455483       0.00000000       0.02763520      -0.00000000
18
Lattice="5.831372204677741 0.0 0.0 0.0 4.824062132711041 -5.3321593420516114e-24 0.0 9.176020426663941e-24 11.688924212474609" Properties=species:S:1:pos:R:3:forces:R:3 unique_starting_index=36 config_type=initial n_minim_iter=11 energy=-2929.536074900685 stress="-0.0016367790377267246 5.829656935214887e-12 1.7368110464825866e-13 5.829656935214887e-12 -0.0008186437960605345 2.148878121951657e-12 1.7368110464825866e-13 2.148878121951657e-12 -0.0015141348807170504" free_energy=-2929.536074900685 pbc="T T T"
Si       4.31343022       4.72547082      10.79459535       0.14837521       0.07091901      -0.09007190
Si       1.51794198       4.72547082       0.89432886      -0.14837521       0.07091901       0.09007190
Si       4.43362808       4.72547082       4.95013325      -0.14837521       0.07091901      -0.09007190
Si       1.39774412       4.72547082       6.73879097       0.14837521       0.07091901       0.09007190
Si      -0.02742611       1.62096631       1.81304381      -0.06373990      -0.19991843       0.09796051
Si       5.85879832       1.62096631       9.87588040       0.06373990      -0.19991843      -0.09796051
Si       2.94311222       1.62096631       7.65750592       0.06373990      -0.19991843       0.09796051
Si       2.88825999       1.62096631       4.03141829      -0.06373990      -0.19991843      -0.09796051
Si       1.48656293       3.22838669       2.83273626      -0.10471631       0.14777510       0.07197289
Si       4.34480927       3.22838669       8.85618795       0.10471631       0.14777510      -0.07197289
Si       1.42912317       3.22838669       8.67719837       0.10471631       0.14777510       0.07197289
Si       4.40224904       3.22838669       3.01172584      -0.10471631       0.14777510      -0.07197289
Si       3.82111838       0.14271972       1.46703964       0.19065930      -0.06505603       0.13985025
Si       2.01025383       0.14271972      10.22188458      -0.19065930      -0.06505603      -0.13985025
Si      -0.90543228       0.14271972       7.31150174      -0.19065930      -0.06505603       0.13985025
Si       6.73680448       0.14271972       4.37742247       0.19065930      -0.06505603      -0.13985025
Si      -0.00000000       3.09310166      -0.00000000      -0.00000000       0.09256069       0.00000000
Si       2.91568610       3.09310166       5.84446211       0.00000000       0.09256069       0.00000000
18
Lattice="5.814091351138385 0.0 0.0 0.0 4.831567755209077 -5.65872717959909e-24 0.0 8.393832569584457e-24 11.665860808161112" Properties=species:S:1:pos:R:3:forces:R:3 unique_starting_index=36 config_type=initial n_minim_iter=12 energy=-2929.5470282651913 stress="-0.003336195313499625 2.364612296499853e-12 7.453052553535874e-13 2.364612296499853e-12 -0.001508941850964364 -1.0490632339251189e-12 7.453052553535874e-13 -1.0490632339251189e-12 -0.002112845600391912" free_energy=-2929.5470282651913 pbc="T T T"
Si       4.30455482       4.73431213      10.78003663       0.09117254       0.05751520      -0.08230678
Si       1.50953653       4.73431213       0.88582418      -0.09117254       0.05751520       0.08230678
Si       4.41658220       4.73431213       4.94710622      -0.09117254       0.05751520      -0.08230678
Si       1.39750915       4.73431213       6.71875458       0.09117254       0.05751520       0.08230678
Si      -0.02605138       1.61393626       1.82214995      -0.06091948      -0.12153570       0.05412488
Si       5.84014273       1.61393626       9.84371086       0.06091948      -0.12153570      -0.05412488
Si       2.93309705       1.61393626       7.65508035       0.06091948      -0.12153570       0.05412488
Si       2.88099430       1.61393626       4.01078046      -0.06091948      -0.12153570      -0.05412488
Si       1.48465639       3.23989494       2.82675114      -0.09325651       0.10410616       0.02757385
Si       4.32943496       3.23989494       8.83910967       0.09325651       0.10410616      -0.02757385
Si       1.42238929       3.23989494       8.65968154       0.09325651       0.10410616       0.02757385
Si       4.39170207       3.23989494       3.00617927      -0.09325651       0.10410616      -0.02757385
Si       3.80758008       0.14752275       1.47699087       0.15314759      -0.04472651       0.06767560
Si       2.00651127       0.14752275      10.18886994      -0.15314758      -0.04472651      -0.06767561
Si      -0.90053441       0.14752275       7.30992127      -0.15314759      -0.04472651       0.06767561
Si       6.71462576       0.14752275       4.35593954       0.15314759      -0.04472651      -0.06767561
Si      -0.00000000       3.09190758      -0.00000000       0.00000000       0.00928169       0.00000000
Si       2.90704568       3.09190758       5.83293040      -0.00000000       0.00928169      -0.00000000
18
Lattice="5.8184708471467435 0.0 0.0 0.0 4.834376570030996 -5.9234723677932695e-24 0.0 7.804682881954235e-24 11.688478464153427" Properties=species:S:1:pos:R:3:forces:R:3 unique_starting_index=36 config_type=initial n_minim_iter=13 energy=-2929.562167112966 stress="-0.0002643854296406753 -2.187586870077899e-12 -9.075041681350471e-12 -2.187586870077899e-12 -0.001203507698790082 2.756966929424991e-12 -9.075041681350471e-12 2.756966929424991e-12 -0.0012456607721272011" free_energy=-2929.562167112966 pbc="T T T"
Si       4.31098348       4.74204614      10.79015165      -0.02217183       0.03673005      -0.06013994
Si       1.50748737       4.74204614       0.89832681       0.02217183       0.03673005       0.06013994
Si       4.41672280       4.74204614       4.94591242       0.02217183       0.03673005      -0.06013994
Si       1.40174805       4.74204614       6.74256605      -0.02217183       0.03673005       0.06013994
Si      -0.03251485       1.61216490       1.81995089      -0.04595833      -0.01297124       0.05935471
Si       5.85098569       1.61216490       9.86852757       0.04595833      -0.01297124      -0.05935471