22
Lattice="5.68127494096964 2.6430066652074185e-16 0.4220421237704249 -1.6139853575334206e-15 9.885417115925605 1.2560653979283829e-14 1.0884604563728637 -2.0836175956898076e-14 16.48403776613715" Properties=species:S:1:pos:R:3:forces:R:3 unique_starting_index=292 config_type=initial n_minim_iter=1 energy=-3570.5907250533614 stress="0.00016516271163630457 -2.2135903944823562e-12 -0.00031838304331507347 -2.2135903944823562e-12 -6.317200697764594e-05 -8.704398082509527e-13 -0.00031838304331507347 -8.704398082509527e-13 -0.00021781936451559147" free_energy=-3570.5907250533614 pbc="T T T"
Si       2.69580416       2.65441889      14.09421164      -0.16901620      -0.40593952       0.02493035
Si       4.07393124       2.65441889       2.81186825       0.16901620      -0.40593952      -0.02493035
Si       5.32068863       4.02989748       4.50801198       0.26481049       0.24946962      -0.29376989
Si       1.44904677       4.02989748      12.39806791      -0.26481049       0.24946962       0.29376989
Si       4.84891141       7.77873149      15.96300622       0.20274032       0.54226899      -0.19172202
Si       1.92082399       7.77873149       0.94307368      -0.20274032       0.54226899       0.19172202
Si       4.80098829       2.87593486      10.10442668      -0.01018850       0.29687910      -0.12293707
Si       1.96874711       2.87593486       6.80165321       0.01018850       0.29687910       0.12293707
Si       0.33537024       3.48346643       1.13266707      -0.41057130      -0.33858193       0.39223148
Si       6.43436516       3.48346643      15.77341282       0.41057130      -0.33858193      -0.39223148
Si       0.92041982       6.43106053       7.19146931      -0.43445881      -0.12471811      -0.28888198
Si       5.84931558       6.43106053       9.71461059       0.43445881      -0.12471811       0.28888198
Si       2.89030491       4.19756123       4.70076316      -0.11994185      -0.30458675       0.08990337
Si       3.87943049       4.19756123      12.20531673       0.11994185      -0.30458675      -0.08990337
Si       4.43916108       2.30341675      15.69660490      -0.09596536       0.09894228      -0.21007549
Si       2.33057431       2.30341675       1.20947499       0.09596536       0.09894228       0.21007549
Si       4.03061808       2.05391397       5.12338502       0.19293252      -0.01070291       0.25417960
Si       2.73911731       2.05391397      11.78269487      -0.19293252      -0.01070291      -0.25417960
Si       2.16136549       4.84009794       8.35979647      -0.01845575      -0.02144897      -0.23113774
Si       4.60836991       4.84009794       8.54628343       0.01845575      -0.02144897       0.23113774
Si       3.56614430       6.26729068       1.33027704      -0.18966220       0.01841820      -0.63742417
Si       3.20359110       6.26729068      15.57580285       0.18966220       0.01841820       0.63742417
22
Lattice="5.63696106809171 2.1939421410905394e-16 0.5298594692911582 -1.4545103699484714e-15 9.920817361526607 1.2718905479392904e-14 1.3759537255757808 -2.0871503704574728e-14 16.710799470009515" Properties=species:S:1:pos:R:3:forces:R:3 unique_starting_index=292 config_type=initial n_minim_iter=2 energy=-3570.745550788588 stress="0.0019927599079294796 -1.3282432028324856e-12 0.0027478729536019025 -1.3282432028324856e-12 0.0028515485976614136 -2.1720586422126897e-13 0.0027478729536019025 -2.1720586422126897e-13 0.011311760402200471" free_energy=-3570.745550788588 pbc="T T T"
Si       2.91522376       2.63890062      14.32131185       0.49129026      -0.39811768      -0.14945894
Si       4.09769103       2.63890062       2.91934709      -0.49129026      -0.39811768       0.14945894
Si       5.36919053       4.05970719       4.64268497       0.26239763       0.21133657      -0.38433919
Si       1.64372426       4.05970719      12.59797397      -0.26239762       0.21133657       0.38433919
Si       5.10475779       7.84001543      16.23937606       0.24673593       0.23658936      -0.04581664
Si       1.90815700       7.84001543       1.00128289      -0.24673593       0.23658936       0.04581664
Si       4.93867573       2.90453469      10.31036114      -0.12229985       0.27140795       0.03690991
Si       2.07423907       2.90453469       6.93029780       0.12229985       0.27140795      -0.03690991
Si       0.32818908       3.47506924       1.17689076      -0.26515432      -0.15789948       0.07790988
Si       6.68472571       3.47506924      16.06376818       0.26515432      -0.15789948      -0.07790988
Si       1.01500887       6.44640235       7.27998920      -0.26342914      -0.31488328      -0.05953786
Si       5.99790592       6.44640235       9.96066974       0.26342914      -0.31488328       0.05953786
Si       2.94150769       4.19381686       4.81744018      -0.11578476      -0.23436155      -0.07750402
Si       4.07140710       4.19381686      12.42321876       0.11578476      -0.23436155       0.07750402
Si       4.67574528       2.31776465      15.96076118      -0.32840531       0.11179266      -0.37487053
Si       2.33716952       2.31776465       1.27989776       0.32840531       0.11179266       0.37487053
Si       4.09824836       2.06060938       5.27651251       0.15865752       0.03131084       0.05023358
Si       2.91466644       2.06060938      11.96414643      -0.15865752       0.03131084      -0.05023358
Si       2.29107656       4.85610840       8.48944084       0.06264389       0.10195212      -0.00116854
Si       4.72183823       4.85610840       8.75121810      -0.06264389       0.10195212       0.00116854
Si       3.54530216       6.29086959       1.37148475      -0.27533748       0.14087248      -0.79074061
Si       3.46761263       6.29086959      15.86917419       0.27533748       0.14087248       0.79074061
22
Lattice="5.572882052598832 3.323237184846057e-16 0.5894765036541193 -1.1074977558332303e-15 9.899520750228637 1.2716333526073053e-14 1.548066052555792 -2.0571760249104294e-14 16.557176229212054" Properties=species:S:1:pos:R:3:forces:R:3 unique_starting_index=292 config_type=initial n_minim_iter=3 energy=-3570.951892701022 stress="-0.004571445553555734 3.2857548004596072e-12 0.0027431893665719118 3.2857548004596072e-12 -0.0022502252663337747 -1.6460779872644438e-12 0.0027431893665719118 -1.6460779872644438e-12 0.007051989345661384" free_energy=-3570.951892701022 pbc="T T T"
Si       3.03265813       2.60905242      14.21055479       1.04015311      -0.59883312      -0.21275754
Si       4.08828998       2.60905242       2.93609794      -1.04015311      -0.59883312       0.21275754
Si       5.36989590       4.06578468       4.64024358       0.47023952       0.22907013      -0.54071757
Si       1.75105221       4.06578468      12.50640915      -0.47023952       0.22907013       0.54071757
Si       5.23674472       7.85487437      16.12275281       0.14672204       0.22139714      -0.31988468
Si       1.88420339       7.85487437       1.02389992      -0.14672204       0.22139714       0.31988468
Si       4.99300096       2.91594465      10.25569878      -0.29659077       0.09761742       0.25185929
Si       2.12794715       2.91594465       6.89095395       0.29659077       0.09761742      -0.25185929
Si       0.31448436       3.44780236       1.19077386       0.04262608       0.07362265      -0.05274236
Si       6.80646375       3.44780236      15.95587888      -0.04262608       0.07362265       0.05274236
Si       1.05937274       6.42473221       7.20033677      -0.07064203      -0.18953641      -0.41801919
Si       6.06157536       6.42473221       9.94631597       0.07064203      -0.18953641       0.41801919
Si       2.95265397       4.16680310       4.80729466      -0.28474187      -0.14367660      -0.13143400
Si       4.16829413       4.16680310      12.33935808       0.28474187      -0.14367660       0.13143400
Si       4.79189421       2.31871438      15.83970762      -0.11867006       0.12702781      -0.58649476
Si       2.32905389       2.31871438       1.30694511       0.11867006       0.12702781       0.58649476
Si       4.11864516       2.05563561       5.28533057       0.22215366      -0.17600108       0.09716269
Si       3.00230295       2.05563561      11.86132217      -0.22215366      -0.17600108      -0.09716269
Si       2.35742040       4.84466292       8.41641433       0.02486789       0.28426798       0.08028282
Si       4.76352770       4.84466292       8.73023841      -0.02486789       0.28426798      -0.08028282
Si       3.50438799       6.27871884       1.35972768      -0.31610773       0.07504408      -0.55612610
Si       3.61656012       6.27871884      15.78692505       0.31610773       0.07504408       0.55612610
22
Lattice="5.601733291606125 3.500532025445386e-16 0.624663489890199 -1.0184847503712698e-15 9.98935980097789 1.2797181399350707e-14 1.671418667217688 -2.032802527490807e-14 16.345412827458777" Properties=species:S:1:pos:R:3:forces:R:3 unique_starting_index=292 config_type=initial n_minim_iter=4 energy=-3571.13352088333 stress="0.002355269544517118 6.857222723894187e-13 0.0033466149271244184 6.857222723894187e-13 0.0026394038967803655 4.286866644930546e-12 0.0033466149271244184 4.286866644930546e-12 0.005618311986689415" free_energy=-3571.13352088333 pbc="T T T"
Si       3.14018810       2.60741263      14.04252222       1.45334856      -0.62088265      -0.31004597
Si       4.13296386       2.60741263       2.92755410      -1.45334856      -0.62088265       0.31004598
Si       5.44191379       4.11776351       4.60144183       0.21505551       0.06337522      -0.54364489
Si       1.83123817       4.11776351      12.36863449      -0.21505551       0.06337522       0.54364489
Si       5.38474141       7.95793208      15.93410066       0.30189900       0.05558758      -0.22906136
Si       1.88841055       7.95793208       1.03597566      -0.30189900       0.05558758       0.22906136
Si       5.08553740       2.95977693      10.14965374      -0.31393386      -0.02835400       0.36031902
Si       2.18761456       2.95977693       6.82042258       0.31393386      -0.02835400      -0.36031902
Si       0.30229612       3.45995714       1.19804161       0.45947064       0.27363708       0.01802627
Si       6.97085584       3.45995714      15.77203471      -0.45947064       0.27363708      -0.01802627
Si       1.08959674       6.47516816       7.09279008       0.11355020      -0.23534230      -0.57415011
Si       6.18355522       6.47516816       9.87728624      -0.11355020      -0.23534230       0.57415011
Si       2.99211175       4.18666742       4.76944529      -0.02686716      -0.12723061      -0.20606969
Si       4.28104021       4.18666742      12.20063103       0.02686716      -0.12723061       0.20606969
Si       4.91818653       2.34586987      15.64873055       0.15942943       0.16134043      -0.63800147
Si       2.35496543       2.34586987       1.32134577      -0.15942943       0.16134043       0.63800147
Si       4.18611145       2.07310306       5.26078193       0.34254556       0.02861057       0.13500845
Si       3.08704051       2.07310306      11.70929439      -0.34254556       0.02861057      -0.13500845
Si       2.42570363       4.88839362       8.30825085       0.12053204       0.43394651       0.19338617
Si       4.84744833       4.88839362       8.66182547      -0.12053204       0.43394651      -0.19338617
Si       3.51640284       6.33705364       1.33030012      -0.04228380      -0.00468784      -0.34986428
Si       3.75674912       6.33705364      15.63977620       0.04228380      -0.00468784       0.34986428
22
Lattice="5.567939501524833 3.6345023597532413e-16 0.5837104597610008 -1.0869444451398073e-15 10.001975683594717 1.2864334704034525e-14 1.5541732302678828 -2.0122699634125675e-14 16.23700910659989" Properties=species:S:1:pos:R:3:forces:R:3 unique_starting_index=292 config_type=initial n_minim_iter=5 energy=-3571.278854221621 stress="-0.0004345215616316203 -8.754630212915579e-13 -0.001501286393005893 -8.754630212915579e-13 0.0019461111454165392 6.1975401557228494e-12 -0.001501286393005893 6.1975401557228494e-12 0.0057945080519552815" free_energy=-3571.278854221621 pbc="T T T"
Si       3.03449734       2.58087153      13.93740573       1.26653144      -0.63939727      -0.47220833
Si       4.08761539       2.58087153       2.88331384      -1.26653144      -0.63939727       0.47220833
Si       5.39902780       4.13802217       4.51687667       0.11212330       0.02178322      -0.42458553
Si       1.72308493       4.13802217      12.30384290      -0.11212330       0.02178322       0.42458553
Si       5.26357506       8.00008016      15.79010088      -0.40742733      -0.09440076       0.01379488
Si       1.85853767       8.00008016       1.03061869       0.40742733      -0.09440076      -0.01379488
Si       4.98762269       2.97976977      10.05201987      -0.31463741      -0.19574217       0.38631205
Si       2.13449004       2.97976977       6.76869970       0.31463741      -0.19574217      -0.38631205
Si       0.27541349       3.44793318       1.21060782       0.52513663       0.36845651      -0.12757920
Si       6.84669925       3.44793318      15.61011175      -0.52513663       0.36845651       0.12757920
Si       1.01311637       6.47468222       7.01993958       0.05719436      -0.20032158      -0.21238530
Si       6.10899636       6.47468222       9.80077999      -0.05719436      -0.20032158       0.21238530
Si       2.93721035       4.17345971       4.72416691      -0.01505150      -0.01048570      -0.27197433
Si       4.18490238       4.17345971      12.09655265       0.01505150      -0.01048570       0.27197433
Si       4.78466953       2.35606031      15.50500864       0.26990192       0.23756538      -0.07641962
Si       2.33744320       2.35606031       1.31571093      -0.26990192       0.23756538       0.07641961
Si       4.14357235       2.07459763       5.21802832       0.49966861       0.13807785       0.05521427
Si       2.97854038       2.07459763      11.60269125      -0.49966861       0.13807785      -0.05521427
Si       2.35729052       4.89782302       8.23145208       0.12928420       0.56236747       0.18430519
Si       4.76482221       4.89782302       8.58926749      -0.12928420       0.56236747      -0.18430519
Si       3.47679909       6.34567281       1.26095101       0.09268347      -0.18790295       0.03148628
Si       3.64531364       6.34567281      15.55976856      -0.09268347      -0.18790295      -0.03148628
22
Lattice="5.58201713527934 4.9983216777256e-16 0.6425350068198319 -6.824213416669286e-16 9.93616723928631 1.2441511154607667e-14 1.7475081556716778 -2.0284554419757918e-14 15.968315870619326" Properties=species:S:1:pos:R:3:forces:R:3 unique_starting_index=292 config_type=initial n_minim_iter=6 energy=-3571.458363836937 stress="0.00015168964528073959 5.032627205987908e-13 0.0002499711411692564 5.032627205987908e-13 -0.0010196207830219619 -1.630066473785741e-12 0.0002499711411692564 -1.630066473785741e-12 0.002492014457171706" free_energy=-3571.458363836937 pbc="T T T"
Si       3.21535083       2.52779164      13.72458188       1.50743676      -0.68191492      -0.51640600
Si       4.11417446       2.52779164       2.88626900      -1.50743676      -0.68191492       0.51640600
Si       5.47655728       4.12641895       4.47966511      -0.08234011       0.12272087      -0.51691785
Si       1.85296801       4.12641895      12.13118577       0.08234011       0.12272087       0.51691785
Si       5.46631814       7.98025236      15.56150356      -0.23316459      -0.02753923      -0.10033684
Si       1.86320716       7.98025236       1.04934732       0.23316459      -0.02753924       0.10033684
Si       5.10659608       2.97507342       9.93478876      -0.27542309      -0.49648540       0.37947612
Si       2.22292921       2.97507342       6.67606212       0.27542309      -0.49648540      -0.37947612
Si       0.27649950       3.41129128       1.21444484       0.70070884       0.40005173       0.00499795
Si       7.05302579       3.41129128      15.39640604      -0.70070884       0.40005173      -0.00499795
Si       1.07240732       6.42205405       6.88158467       0.12414535      -0.10442052      -0.35480297
Si       6.25711797       6.42205405       9.72926621      -0.12414535      -0.10442052       0.35480297
Si       2.98884288       4.12682395       4.67803467       0.08732002       0.12503235      -0.35637123
Si       4.34068241       4.12682395      11.93281621      -0.08732002       0.12503235       0.35637123
Si       4.97250906       2.34997557      15.27127877       0.45480146       0.16487144      -0.14274041
Si       2.35701623       2.34997557       1.33957211      -0.45480146       0.16487144       0.14274040
Si       4.22984542       2.06090389       5.19503882       0.58763558       0.08448679       0.37730561
Si       3.09967988       2.06090389      11.41581206      -0.58763558       0.08448679      -0.37730562
Si       2.45765156       4.87353000       8.10437011       0.21859246       0.64230635       0.33114247
Si       4.87187373       4.87353000       8.50648077      -0.21859246       0.64230635      -0.33114247
Si       3.48432541       6.30253318       1.24407573       0.36432297      -0.22910945       0.57446408
Si       3.84519988       6.30253318      15.36677515      -0.36432297      -0.22910945      -0.57446408
22
Lattice="5.549623972214029 3.25695660584417e-16 0.6877636887262606 -9.315851927343468e-16 10.044172830531103 1.2886585946339686e-14 1.914400718086513 -1.9084263602836083e-14 15.40469936013534" Properties=species:S:1:pos:R:3:forces:R:3 unique_starting_index=292 config_type=initial n_minim_iter=7 energy=-3571.668596755214 stress="-0.002856420435770911 4.1826769985731655e-12 0.0007949065097221754 4.1826769985731655e-12 0.00016401424319547575 -1.0609012439760778e-12 0.0007949065097221754 -1.0609012439760778e-12 -0.00921602084266771" free_energy=-3571.668596755214 pbc="T T T"
Si       3.38972196       2.49669524      13.25123304       1.06782714      -0.39493286      -0.47988410
Si       4.07430273       2.49669524       2.84123001      -1.06782714      -0.39493286       0.47988410
Si       5.50579351       4.19287924       4.34538079      -0.35814477       0.07546678      -0.48039078
Si       1.95823118       4.19287924      11.74708226       0.35814477       0.07546678       0.48039078
Si       5.60997199       8.10730507      15.03979329      -0.04713250      -0.18507474      -0.26456306
Si       1.85405270       8.10730507       1.05266976       0.04713250      -0.18507474       0.26456306
Si       5.17028170       3.01534819       9.63881465      -0.20467482      -0.71103146       0.10851628
Si       2.29374299       3.01534819       6.45364840       0.20467482      -0.71103146      -0.10851628
Si       0.28615078       3.43942458       1.20104140       0.45723937       0.39303141       0.13602766
Si       7.17787391       3.43942458      14.89142165      -0.45723937       0.39303141      -0.13602766
Si       1.11354253       6.47778312       6.60394582       0.25273293       0.00447039      -0.81522885
Si       6.35048216       6.47778312       9.48851723      -0.25273293       0.00447039       0.81522885
Si       3.01209563       4.15052817       4.53864207       0.13779999       0.20955692      -0.35570869
Si       4.45192906       4.15052817      11.55382098      -0.13779999       0.20955692       0.35570869
Si       5.11663367       2.39045170      14.74972363       0.74467280       0.08686849      -0.24711107
Si       2.34739102       2.39045170       1.34273942      -0.74467280       0.08686849       0.24711107
Si       4.29411899       2.08504494       5.08681527       0.46335813       0.32743009       1.00396402
Si       3.16990570       2.08504494      11.00564778      -0.46335813       0.32743009      -1.00396402
Si       2.53624022       4.94946302       7.83171744       0.13599674       0.43096539       0.24545363
Si       4.92778447       4.94946302       8.26074561      -0.13599674       0.43096539      -0.24545363
Si       3.46745002       6.36431520       1.20880527       0.61800782      -0.23675039       1.10236216
Si       3.99657467       6.36431520      14.88365779      -0.61800782      -0.23675039      -1.10236216
22
Lattice="5.658842290475667 4.634652608526535e-16 0.6551404383498742 -7.065330694241415e-16 9.814053282373141 1.2368188029571322e-14 1.8455464604857403 -1.9359083594992677e-14 15.339058750176116" Properties=species:S:1:pos:R:3:forces:R:3 unique_starting_index=292 config_type=initial n_minim_iter=8 energy=-3571.826566214697 stress="0.004929152854321421 -1.5123706227126415e-12 -0.0025605390287091897 -1.5123706227126415e-12 -0.004331545251074025 -2.9654167320546816e-12 -0.0025605390287091897 -2.9654167320546816e-12 -0.01014093627628245" free_energy=-3571.826566214697 pbc="T T T"
Si       3.40218958       2.42924975      13.17579843       0.17182592      -0.21980287      -0.12123420
Si       4.10219917       2.42924975       2.81840076      -0.17182592      -0.21980287       0.12123420
Si       5.58067482       4.09539053       4.29112184      -0.32404908       0.22952967      -0.42637758
Si       1.92371393       4.09539053      11.70307735       0.32404908       0.22952967       0.42637758
Si       5.61136852       7.91100550      14.95439555      -0.05258685       0.02324906      -0.25483745
Si       1.89302024       7.91100550       1.03980365       0.05258685       0.02324906       0.25483745
Si       5.20248640       2.92936298       9.58414296      -0.03059090      -0.72227803       0.06083980
Si       2.30190235       2.92936298       6.41005623       0.03059090      -0.72227803      -0.06083980
Si       0.30360560       3.37596891       1.19187643      -0.27282235      -0.08846745       0.50084625
Si       7.20078315       3.37596891      14.80232276       0.27282235      -0.08846745      -0.50084625
Si       1.09890393       6.32785054       6.56671347       0.08116397       0.03728472      -0.63928093
Si       6.40548482       6.32785054       9.42748572      -0.08116397       0.03728472       0.63928093
Si       3.04491614       4.06237075       4.49690731       0.35260470       0.29556765      -0.31793665
Si       4.45947261       4.06237075      11.49729188      -0.35260470       0.29556765       0.31793665
Si       5.13226864       2.33891568      14.66841482       0.68090094      -0.20645529       0.10152523
Si       2.37212011       2.33891568       1.32578437      -0.68090094      -0.20645529      -0.10152523
Si       4.35895078       2.04319841       5.05528855       0.48155509       0.03413631       1.14050537
Si       3.14543797       2.04319841      10.93891064      -0.48155509       0.03413631      -1.14050537
Si       2.53870392       4.85131922       7.79941213       0.36569214       0.42372660       0.21970737
Si       4.96568483       4.85131922       8.19478706      -0.36569214       0.42372660      -0.21970738
Si       3.54428720       6.21246812       1.20800474       0.35883122       0.19350964       0.56378624
Si       3.96010155       6.21246812      14.78619445      -0.35883122       0.19350964      -0.56378624
22
Lattice="5.600360577564445 4.432738113622959e-16 0.7053055236880864 -6.243916250919096e-16 9.855790497900804 1.2287773243651704e-14 1.9705588925902475 -1.9721569522842378e-14 15.464728981936284" Properties=species:S:1:pos:R:3:forces:R:3 unique_starting_index=292 config_type=initial n_minim_iter=9 energy=-3572.0996667711593 stress="-0.0006810264223758776 -1.7058861340463732e-12 -0.00010345156791772508 -1.7058861340463732e-12 -0.002764868373834413 -2.3354183840503386e-12 -0.00010345156791772508 -2.3354183840503386e-12 -0.0034990684633884944" free_energy=-3572.0996667711593 pbc="T T T"
Si       3.51966103       2.41918271      13.28867246       0.06647658      -0.06906561      -0.39045409
Si       4.05125844       2.41918271       2.88136204      -0.06647658      -0.06906561       0.39045408
Si       5.55408632       4.12002162       4.34797055      -0.16510926       0.22650828      -0.37985841
Si       2.01683315       4.12002162      11.82206396       0.16510926       0.22650828       0.37985841
Si       5.68563779       7.94611119      15.10081234       0.06666722      -0.22262774      -0.19179358
Si       1.88528168       7.94611119       1.06922216      -0.06666722      -0.22262774       0.19179358
Si       5.22718680       2.92716322       9.70033559      -0.17255145      -0.43505613       0.03505067
Si       2.34373267       2.92716322       6.46969892       0.17255145      -0.43505613      -0.03505067
Si       0.31513573       3.39526015       1.20969045      -0.64559264      -0.08684375       0.43199998
Si       7.25578374       3.39526015      14.96034406       0.64559264      -0.08684375      -0.43199998
Si       1.14684412       6.34914515       6.60513055       0.08795246       0.01623118      -0.11461682
Si       6.42407536       6.34914515       9.56490396      -0.08795246       0.01623118       0.11461682
Si       3.05466650       4.08183687       4.54406593       0.18087661       0.15834866      -0.22115128
Si       4.51625297       4.08183687      11.62596858      -0.18087661       0.15834865       0.22115128
Si       5.22715797       2.35190829      14.81049502       0.34268582      -0.26203386       0.30579420
Si       2.34376150       2.35190829       1.35953949      -0.34268582      -0.26203386      -0.30579420
Si       4.37797731       2.05747281       5.15158216       0.31515512       0.04807585       0.75007012
Si       3.19294217       2.05747281      11.01845234      -0.31515512       0.04807585      -0.75007012
Si       2.59194267       4.88928282       7.88259752       0.07520811       0.24358251       0.12389720
Si       4.97897680       4.88928282       8.28743699      -0.07520811       0.24358251      -0.12389720
Si       3.52396327       6.23779869       1.25262073      -0.17593649       0.38288062       0.28613293
Si       4.04695621       6.23779869      14.91741378       0.17593649       0.38288062      -0.28613293
22
Lattice="5.583946530691185 4.813302201940954e-16 0.7440875522166293 -4.6673757221472e-16 9.889450067512698 1.2138591751877078e-14 2.0767840777693767 -2.0071485658924944e-14 15.507198437693956" Properties=species:S:1:pos:R:3:forces:R:3 unique_starting_index=292 config_type=initial n_minim_iter=10 energy=-3572.2856784405035 stress="-0.000937201365058692 -7.541711420029047e-14 0.0018098843613627515 -7.541711420029047e-14 0.0016205216190454074 -2.6704010297214486e-12 0.0018098843613627515 -2.6704010297214486e-12 0.00226975829190303" free_energy=-3572.2856784405035 pbc="T T T"
Si       3.65659000       2.38059704      13.31003855      -0.16665536       0.19698452      -0.53990702
Si       4.00414061       2.38059704       2.94124744       0.16665536       0.19698452       0.53990702
Si       5.56048652       4.15595553       4.34711614      -0.06987702       0.16775805      -0.14563053
Si       2.10024409       4.15595553      11.90416985       0.06987702       0.16775805       0.14563053
Si       5.77424638       7.98032222      15.15047679       0.21900569      -0.41004304       0.01129047
Si       1.88648423       7.98032222       1.10080920      -0.21900569      -0.41004304      -0.01129047
Si       5.26020333       2.91286800       9.76117314      -0.15758539      -0.12343781      -0.04602311
Si       2.40052728       2.91286800       6.49011285       0.15758539      -0.12343781       0.04602311
Si       0.30829126       3.40765271       1.24022388      -0.90761795      -0.16760329       0.23701034
Si       7.35243935       3.40765271      15.01106211       0.90761795      -0.16760330      -0.23701034
Si       1.17964171       6.35747596       6.59102215       0.11088732      -0.04297941       0.50283380
Si       6.48108890       6.35747596       9.66026384      -0.11088732      -0.04297941      -0.50283380
Si       3.07938998       4.09339895       4.55475932       0.12399515       0.03710098      -0.08646084
Si       4.58134063       4.09339895      11.69652668      -0.12399515       0.03710098       0.08646084
Si       5.34334890       2.36257384      14.86924429      -0.05912771      -0.31956292       0.41504068
Si       2.31738171       2.36257384       1.38204170       0.05912771      -0.31956292      -0.41504068
Si       4.44762974       2.07671491       5.24884510       0.09182276       0.15510253       0.22235398
Si       3.21310087       2.07671491      11.00244089      -0.09182276       0.15510253      -0.22235398
Si       2.65196674       4.94091728       7.92272478      -0.12219405       0.05502796       0.02725744
Si       5.00876387       4.94091728       8.32856122       0.12219405       0.05502796      -0.02725744
Si       3.52137072       6.26645405       1.27916680      -0.29144892       0.45165243       0.16349974
Si       4.13935989       6.26645405      14.97211920       0.29144892       0.45165243      -0.16349974
22
Lattice="5.599100509900303 5.821750540289049e-16 0.6911530318326047 -3.906135529924355e-16 9.849592743055766 1.2023409382390254e-14 1.916246463692363 -2.0339110844940753e-14 15.639834956110443" Properties=species:S:1:pos:R:3:forces:R:3 unique_starting_index=292 config_type=initial n_minim_iter=11 energy=-3572.4233063035117 stress="0.001517362162153801 -4.343513704781018e-12 -0.001443549385411982 -4.343513704781018e-12 0.0017553097919101146 1.7464452310421729e-12 -0.001443549385411982 1.7464452310421729e-12 0.0075799794711466405" free_energy=-3572.4233063035117 pbc="T T T"
Si       3.54105760       2.36843113      13.36905383      -0.05505581       0.12154602      -0.34291795
Si       3.97428938       2.36843113       2.96193416       0.05505581       0.12154602       0.34291795
Si       5.52115264       4.15152330       4.30817786       0.17981647       0.12243019       0.04209925
Si       1.99419434       4.15152330      12.02281013      -0.17981647       0.12243019      -0.04209925