6
Lattice="3.594612997704008 0.6234055627425611 -4.885694439141989e-15 0.3814783758457716 6.262770868063345 -1.3186181546852123e-14 1.0630509323626404e-14 2.1329583083687242e-14 10.45146752753264" Properties=species:S:1:pos:R:3:forces:R:3 unique_starting_index=22 config_type=initial n_minim_iter=1 energy=-974.1007243618193 stress="-0.0002688001523459165 0.0011776176820956705 -4.453935613664748e-12 0.0011776176820956705 -0.0009558576600666368 1.1588314046530323e-12 -4.453935613664748e-12 1.1588314046530323e-12 0.0012386089290375936" free_energy=-974.1007243618193 pbc="T T T"
Si       3.40565507       2.59955246       0.03655004       0.14846249       0.01190032       0.04724729
Si       0.57043631       4.28662396       0.03655004      -0.14846249      -0.01190032       0.04724729
Si       2.57473172       4.96434702       6.40730037       0.04378354       0.07137382       0.08003474
Si       1.40135966       1.92182941       6.40730037      -0.04378354      -0.07137382       0.08003474
Si       1.58121085       2.28580111       9.05478443       0.01163610      -0.17528846      -0.12728203
Si       2.39488052       4.60037532       9.05478443      -0.01163610       0.17528846      -0.12728203
6
Lattice="3.595408960756244 0.611288486453857 -4.861774820661501e-15 0.3572447323272501 6.281262426316518 -1.3199273753812994e-14 1.0587348517809395e-14 2.1241747289452662e-14 10.40850369875329" Properties=species:S:1:pos:R:3:forces:R:3 unique_starting_index=22 config_type=initial n_minim_iter=2 energy=-974.1026591711724 stress="-0.0009913582352903752 -0.0005385037227696487 3.6281752911148666e-12 -0.0005385037227696487 0.0009527271602983718 4.9407179943112984e-12 3.6281752911148666e-12 4.9407179943112984e-12 -0.002954291315674561" free_energy=-974.1026591711724 pbc="T T T"
Si       3.40064749       2.59464635       0.03707198       0.09661633       0.02717290       0.14593819
Si       0.55200621       4.29790456       0.03707198      -0.09661633      -0.02717290       0.14593819
Si       2.55819407       4.97110762       6.38209993       0.00949155       0.03754723      -0.05133487
Si       1.39445962       1.92144329       6.38209993      -0.00949155      -0.03754723      -0.05133487
Si       1.57384292       2.28437851       9.01575124       0.02824035      -0.14205841      -0.09460331
Si       2.37881077       4.60817240       9.01575124      -0.02824035       0.14205841      -0.09460331
6
Lattice="3.601208959863504 0.6079157343291766 -4.860790247625644e-15 0.3519950867917482 6.281198654930088 -1.3193807207837451e-14 1.0611903257460712e-14 2.129170097997865e-14 10.432942064080873" Properties=species:S:1:pos:R:3:forces:R:3 unique_starting_index=22 config_type=initial n_minim_iter=3 energy=-974.104293906753 stress="0.0017008075137323623 -0.0007081266065804818 -4.397963796352563e-12 -0.0007081266065804818 0.0012146675999250133 2.2833613690989606e-12 -4.397963796352563e-12 2.2833613690989606e-12 5.575904649880985e-05" free_energy=-974.104293906753 pbc="T T T"
Si       3.40574328       2.59177241       0.03832028       0.07593724       0.01758129       0.03590773
Si       0.54746077       4.29734198       0.03832028      -0.07593724      -0.01758129       0.03590773
Si       2.55839640       4.96957251       6.39727162       0.04665337       0.02696537       0.02201020
Si       1.39480765       1.91954188       6.39727162      -0.04665337      -0.02696537       0.02201020
Si       1.57474772       2.28104535       9.03557127       0.04763944      -0.12439835      -0.05791793
Si       2.37845633       4.60806904       9.03557127      -0.04763944       0.12439835      -0.05791793
6
Lattice="3.5895220932609715 0.6088510610304031 -4.8508117456246825e-15 0.356421955732805 6.257917773950307 -1.3150798184326143e-14 1.0637431666720952e-14 2.1343645407290435e-14 10.458351868949048" Properties=species:S:1:pos:R:3:forces:R:3 unique_starting_index=22 config_type=initial n_minim_iter=4 energy=-974.1060591531036 stress="-0.0006917508091921349 -0.0007422316001974163 -5.765016274298919e-13 -0.0007422316001974163 -0.0023193492860185674 2.249755095424e-12 -5.765016274298919e-13 2.249755095424e-12 0.001043869118150047" free_energy=-974.1060591531036 pbc="T T T"
Si       3.39960381       2.58562032       0.04042959       0.02250686      -0.03979358       0.00624448
Si       0.54634024       4.28114851       0.04042959      -0.02250686       0.03979358       0.00624448
Si       2.55527006       4.95447703       6.41348615       0.02060606      -0.00200667       0.04938484
Si       1.39067399       1.91229180       6.41348615      -0.02060606       0.00200667       0.04938484
Si       1.57246661       2.26949069       9.05492800       0.05067307      -0.08676502      -0.05562932
Si       2.37347744       4.59727814       9.05492800      -0.05067307       0.08676502      -0.05562932
6
Lattice="3.589388906101309 0.621097289741344 -4.875668569960944e-15 0.3743990032786306 6.277205358699654 -1.3208445377228397e-14 1.0635624165804614e-14 2.1339967740235724e-14 10.456552610918449" Properties=species:S:1:pos:R:3:forces:R:3 unique_starting_index=22 config_type=initial n_minim_iter=5 energy=-974.1073598625609 stress="0.0001905001013568408 0.0010376049585950928 2.6743622015325783e-12 0.0010376049585950928 0.0004890076827980102 2.6751389214558243e-12 2.6743622015325783e-12 2.6751389214558243e-12 0.0008784310854504725" free_energy=-974.1073598625609 pbc="T T T"
Si       3.40769244       2.60303402       0.04198313       0.02648932      -0.00139129      -0.03011520
Si       0.55609547       4.29526863       0.04198313      -0.02648932       0.00139128      -0.03011520
Si       2.56928463       4.97723056       6.41326347      -0.02546280       0.00135304       0.02229861
Si       1.39450328       1.92107209       6.41326347       0.02546280      -0.00135304       0.02229861
Si       1.57951427       2.27667210       9.05092899       0.08420474      -0.02661546       0.00781659
Si       2.38427364       4.62163054       9.05092899      -0.08420474       0.02661546       0.00781659
6
Lattice="3.5909962965884055 0.6141965756271194 -4.863220362844816e-15 0.3627416509539922 6.276081312865044 -1.3194294572135682e-14 1.0624940810017593e-14 2.1318227948614902e-14 10.44591842287288" Properties=species:S:1:pos:R:3:forces:R:3 unique_starting_index=22 config_type=initial n_minim_iter=6 energy=-974.1082044561107 stress="0.0001390465250469189 7.406334960250196e-05 4.110766688027881e-12 7.406334960250196e-05 0.00021359811933613652 -3.362223879945142e-13 4.110766688027881e-12 -3.362223879945142e-13 3.0858301386177024e-05" free_energy=-974.1082044561107 pbc="T T T"
Si       3.40625397       2.59631397       0.04218365       0.01061192      -0.00851271      -0.01159131
Si       0.54748398       4.29396391       0.04218365      -0.01061192       0.00851271      -0.01159131
Si       2.56169137       4.97221869       6.40706515      -0.02231337      -0.01647489      -0.00500191
Si       1.39204658       1.91805920       6.40706515       0.02231337       0.01647489      -0.00500191
Si       1.57760345       2.27222498       9.04115720       0.07344093      -0.02200449       0.01659322
Si       2.37613450       4.61805291       9.04115720      -0.07344093       0.02200449       0.01659322
6
Lattice="3.5898836355789747 0.6102892806575919 -4.8541146012351616e-15 0.35634466347147853 6.273033128848727 -1.3181568331055583e-14 1.062158121503669e-14 2.1311389345495005e-14 10.442574137391222" Properties=species:S:1:pos:R:3:forces:R:3 unique_starting_index=22 config_type=initial n_minim_iter=7 energy=-974.1087327765637 stress="-0.00034648282241129115 -0.0005666122532696836 5.473902375749473e-13 -0.0005666122532696836 -0.00043745073736087877 3.633013249035118e-12 5.473902375749473e-13 3.633013249035118e-12 -0.00040911635922070435" free_energy=-974.1087327765637 pbc="T T T"
Si       3.40577905       2.59128059       0.04282530       0.00719133      -0.01085745      -0.01030635
Si       0.54044924       4.29204182       0.04282530      -0.00719133       0.01085745      -0.01030635
Si       2.55562567       4.96737309       6.40542648      -0.02712882      -0.02022289      -0.02377310
Si       1.39060263       1.91594932       6.40542648       0.02712882       0.02022289      -0.02377310
Si       1.58027585       2.26525345       9.03719492       0.03574427       0.00033644       0.03407945
Si       2.36595245       4.61806896       9.03719492      -0.03574427      -0.00033644       0.03407945
6
Lattice="3.5922950801367906 0.6167420859450087 -4.869736416129418e-15 0.36723995369904483 6.276510805642903 -1.319974877182361e-14 1.0622033239284044e-14 2.1312306707289703e-14 10.443023853901336" Properties=species:S:1:pos:R:3:forces:R:3 unique_starting_index=22 config_type=initial n_minim_iter=8 energy=-974.1094628323755 stress="3.707748800359059e-05 0.00014154525579211094 -3.481166165224998e-13 0.00014154525579211094 0.00016740252853650025 -2.316373221461001e-12 -3.481166165224998e-13 -2.316373221461001e-12 3.512815396179537e-05" free_energy=-974.1094628323755 pbc="T T T"
Si       3.41400742       2.59739421       0.04182432       0.05154086       0.01990843      -0.02259652
Si       0.54552762       4.29585868       0.04182432      -0.05154086      -0.01990843      -0.02259652
Si       2.56268173       4.97269654       6.40513834      -0.01477547       0.01783165      -0.01084795
Si       1.39685331       1.92055635       6.40513834       0.01477547      -0.01783165      -0.01084795
Si       1.59230343       2.26561676       9.03915093      -0.01301251       0.01111772       0.03344447
Si       2.36723160       4.62763613       9.03915093       0.01301251      -0.01111772       0.03344447
6
Lattice="3.5947745888949174 0.6167967971576032 -4.87237001372617e-15 0.36793269682293817 6.274583295292189 -1.3196520630662392e-14 1.0620622502122929e-14 2.130943360478861e-14 10.44161921655125" Properties=species:S:1:pos:R:3:forces:R:3 unique_starting_index=22 config_type=initial n_minim_iter=9 energy=-974.1098152174728 stress="1.252117868410911e-05 -0.00012065468015354907 -5.626252780020074e-12 -0.00012065468015354907 -0.0003513906934701707 1.1527229339873192e-12 -5.626252780020074e-12 1.1527229339873192e-12 0.00012010286834726547" free_energy=-974.1098152174728 pbc="T T T"
Si       3.42007332       2.59730518       0.03973909       0.02408751       0.00759350       0.00251735
Si       0.54263396       4.29407491       0.03973909      -0.02408751      -0.00759350       0.00251735
Si       2.56250789       4.97134419       6.40316012       0.01492341       0.01895127       0.00668183
Si       1.40019940       1.92003590       6.40316012      -0.01492341      -0.01895127       0.00668183
Si       1.59639118       2.26473403       9.04113143      -0.00187672       0.00523975      -0.00919918
Si       2.36631610       4.62664606       9.04113143       0.00187672      -0.00523976      -0.00919918
6
Lattice="3.5944972009324703 0.6176808699631744 -4.8738920488608506e-15 0.3689120464326257 6.277647985728862 -1.3203771838719598e-14 1.062041624008913e-14 2.1309012163231806e-14 10.441413560475807" Properties=species:S:1:pos:R:3:forces:R:3 unique_starting_index=22 config_type=initial n_minim_iter=10 energy=-974.1099074224678 stress="2.54924833964182e-05 -4.6596164736424133e-05 -4.186118500710878e-13 -4.6596164736424133e-05 -9.60188800573492e-05 -5.747292661828715e-12 -4.186118500710878e-13 -5.747292661828715e-12 1.5766159419046538e-05" free_energy=-974.1099074224678 pbc="T T T"
Si       3.42157955       2.59938853       0.03971074       0.01107459       0.00682946       0.00412023
Si       0.54182969       4.29594033       0.03971074      -0.01107459      -0.00682946       0.00412023
Si       2.56297583       4.97462046       6.40302059       0.01079736       0.01300109       0.00294629
Si       1.40043342       1.92070840       6.40302059      -0.01079736      -0.01300109       0.00294629
Si       1.59726021       2.26546056       9.04099434       0.00859098       0.01358707      -0.00706652
Si       2.36614903       4.62986829       9.04099434      -0.00859098      -0.01358707      -0.00706652
6
Lattice="3.5940841307069173 0.6185437971495931 -4.87523294543355e-15 0.3699583068042204 6.280031404876361 -1.320970072000568e-14 1.062105234817472e-14 2.1310305042827774e-14 10.442046464797214" Properties=species:S:1:pos:R:3:forces:R:3 unique_starting_index=22 config_type=initial n_minim_iter=11 energy=-974.1099551078086 stress="7.884639784616505e-06 1.4114350705802965e-05 -4.70076752025981e-13 1.4114350705802965e-05 4.254587458629346e-05 -8.409956223270256e-13 -4.70076752025981e-13 -8.409956223270256e-13 -3.2102161508672835e-05" free_energy=-974.1099551078086 pbc="T T T"
Si       3.42295398       2.60129953       0.03970635       0.00126238       0.00469903       0.00431800
Si       0.54108846       4.29727567       0.03970635      -0.00126238      -0.00469903       0.00431800
Si       2.56348554       4.97747389       6.40339150       0.00621230       0.00502130       0.00093779
Si       1.40055689       1.92110131       6.40339150      -0.00621230      -0.00502130       0.00093779
Si       1.59833959       2.26630985       9.04156637       0.01387204       0.01792524      -0.00525579
Si       2.36570284       4.63226535       9.04156637      -0.01387204      -0.01792524      -0.00525579
6
Lattice="3.593543762258561 0.619575351924936 -4.876788519243342e-15 0.3711748928340414 6.28304885687649 -1.3217097047205085e-14 1.0622529978150091e-14 2.131330983322599e-14 10.443516987607188" Properties=species:S:1:pos:R:3:forces:R:3 unique_starting_index=22 config_type=initial n_minim_iter=12 energy=-974.1099985301095 stress="-1.669011093870074e-05 5.7213590835236085e-05 -4.370275987607062e-12 5.7213590835236085e-05 0.0001356011221935962 3.322080323433606e-12 -4.370275987607062e-12 3.322080323433606e-12 -5.43572062981199e-05" free_energy=-974.1099985301095 pbc="T T T"
Si       3.42476183       2.60386715       0.03971655      -0.00515952       0.00050396       0.00330127
Si       0.53995683       4.29875706       0.03971655       0.00515953      -0.00050396       0.00330126
Si       2.56421041       4.98123194       6.40426658      -0.00126876      -0.00866298      -0.00060196
Si       1.40050825       1.92139226       6.40426658       0.00126876       0.00866298      -0.00060196
Si       1.60026743       2.26827701       9.04286174       0.01078337       0.01436356      -0.00269930
Si       2.36445123       4.63434720       9.04286174      -0.01078337      -0.01436356      -0.00269930
6
Lattice="3.59377554970072 0.6191551569921362 -4.876166726868766e-15 0.37064403071154367 6.282030388579939 -1.321447932547695e-14 1.0622843387179441e-14 2.1313945825599384e-14 10.443828709248148" Properties=species:S:1:pos:R:3:forces:R:3 unique_starting_index=22 config_type=initial n_minim_iter=13 energy=-974.1100277384071 stress="-2.364954844992408e-06 -8.789294520591909e-06 4.3800406925069966e-13 -8.789294520591909e-06 -9.693418380116972e-06 3.7983211527949885e-12 4.3800406925069966e-13 3.7983211527949885e-12 1.2411728969299372e-05" free_energy=-974.1100277384071 pbc="T T T"
Si       3.42443848       2.60325354       0.03976161       0.00497285      -0.00072724       0.00146319
Si       0.53998111       4.29793200       0.03976161      -0.00497285       0.00072724       0.00146319
Si       2.56415422       4.98006206       6.40447689      -0.00130813      -0.00687461       0.00134773
Si       1.40026537       1.92112348       6.40447689       0.00130813       0.00687461       0.00134773
Si       1.60050347       2.26906482       9.04306862      -0.00241736       0.00142542      -0.00281092
Si       2.36391611       4.63212072       9.04306862       0.00241736      -0.00142543      -0.00281092
