20
Lattice="7.050857928220909 -0.20152872622144175 0.45946252293889445 -2.369384004205596 5.1166665290936395 1.9504184469235206 -2.4302896605144455 -1.024596083004064 9.825226523910052" Properties=species:S:1:pos:R:3:forces:R:3 unique_starting_index=76 config_type=initial n_minim_iter=1 energy=-3256.7406372924315 stress="0.00018569101642959164 6.628034923464149e-05 -1.929252147335525e-05 6.628034923464149e-05 0.00019141833565718459 0.00014094804528211156 -1.929252147335525e-05 0.00014094804528211156 0.00022645518833126595" free_energy=-3256.7406372924315 pbc="T T T"
Si       3.71904268       0.11574258       8.14197368      -0.01885854      -0.03363624       0.03839814
Si      -2.93618036      -0.18016174       9.98630126      -0.01816526       0.00811663      -0.01636712
Si       2.98629206      -0.07009285       2.28509547      -0.01193262       0.00598453       0.00777570
Si      -1.72199356       2.17764529       3.56791964       0.05392895       0.00418815       0.08035480
Si       3.49343307       2.60649788       0.33288229      -0.03274666       0.02092636       0.01636770
Si       2.32792834       2.00980143       8.15484087      -0.05141885      -0.04087347      -0.05186412
Si      -3.19257503       4.04286108       7.79081367       0.00399877      -0.01931896      -0.07002989
Si      -0.98105025       0.67918930       7.47672442      -0.05827342      -0.10440606      -0.02465823
Si       4.99403500      -0.30604445       4.45088536       0.04839508       0.07125415       0.01005826
Si      -0.56260428      -0.19474748      10.18314901       0.02105813      -0.01336873       0.05577527
Si       2.97241109      -0.38478018       5.75348185      -0.02073915       0.06015957       0.02518503
Si       2.45537605       4.13200715       2.96084643       0.07124310       0.00685587      -0.00975640
Si       1.73615291       1.65669620       5.79575663       0.03501873      -0.02687321      -0.01059054
Si      -1.08800765       3.11392361       7.24822176      -0.05644354      -0.08067595       0.02336610
Si      -1.56178023       2.64961802       1.23568734       0.02461301       0.03587503      -0.15809238
Si      -0.13715658       2.98032388       5.05714678      -0.01957679       0.03281642       0.04834281
Si       1.77566399       1.80446551       3.22663461      -0.00749613      -0.03221141       0.01222123
Si       3.41054809       3.09309026       4.86546474      -0.08351178       0.01311644      -0.00603193
Si      -0.29041202       3.44567549       9.74392178       0.09198230       0.07303965       0.03120055
Si      -2.59314899       3.44623109      10.35133934       0.02892467       0.01903124      -0.00165498
20
Lattice="7.044028470275838 -0.20414651411218462 0.4597835647677221 -2.368648514730036 5.110845997221009 1.944007892438102 -2.426528228976892 -1.0300457317252385 9.813940434310647" Properties=species:S:1:pos:R:3:forces:R:3 unique_starting_index=76 config_type=initial n_minim_iter=2 energy=-3256.7414841898726 stress="-0.0015282917776690346 -9.835860739715006e-05 0.0001009533139016819 -9.835860739715006e-05 -0.0016957465623966958 -0.00026682788646531096 0.0001009533139016819 -0.00026682788646531096 -0.0015496525237952369" free_energy=-3256.7414841898726 pbc="T T T"
Si       3.71590274       0.10775090       8.13303546      -0.01993051      -0.02730657       0.03249122
Si      -2.93246016      -0.18629529       9.97390496       0.00203753      -0.00144177      -0.01329707
Si       2.98343802      -0.07269437       2.28281959      -0.00256602       0.00515869       0.01407545
Si      -1.71992719       2.17343104       3.56297586       0.03643196       0.01489838       0.04529068
Si       3.48864118       2.60267274       0.33112518      -0.03236434       0.02320118       0.02083583
Si       2.32502971       2.00026379       8.14304096      -0.05580634      -0.04001889      -0.04897965
Si      -3.18999550       4.03377958       7.77710641       0.00081538      -0.01825932      -0.07054679
Si      -0.98038758       0.67176615       7.46678363      -0.04181554      -0.08524945      -0.01250215
Si       4.99036817      -0.30980008       4.44642176       0.04284048       0.06021287       0.00896569
Si      -0.56063753      -0.20215547      10.17179997       0.01302576      -0.00323561       0.07063139
Si       2.96991077      -0.38887694       5.74752104      -0.00766173       0.05188889       0.01428505
Si       2.45282400       4.12483243       2.95431321       0.05953805       0.00038993      -0.02611995
Si       1.73495343       1.64968755       5.78758290       0.00961536      -0.02899190      -0.01523986
Si      -1.08809295       3.10457471       7.23740951      -0.05093468      -0.08544005       0.02617494
Si      -1.56069548       2.64706647       1.22980619       0.00907009       0.04492629      -0.11719205
Si      -0.13783067       2.97403342       5.04951916       0.00297581       0.03741040       0.05879441
Si       1.77350373       1.79913716       3.22176622      -0.01755905      -0.03377648       0.00859683
Si       3.40540665       3.08530102       4.85757082      -0.05546433       0.01518669      -0.00620442
Si      -0.28902666       3.43603660       9.73005553       0.07182330       0.05754310       0.03196169
Si      -2.59033236       3.43617710      10.33603877       0.03592882       0.01290364      -0.02202125
20
Lattice="7.0563578398900235 -0.21500759666374752 0.4611511982824545 -2.3792511088962707 5.1206708470206355 1.9322969993825463 -2.4286119242886937 -1.0541155983266814 9.823609693630752" Properties=species:S:1:pos:R:3:forces:R:3 unique_starting_index=76 config_type=initial n_minim_iter=3 energy=-3256.74473828661 stress="0.0014365479684835343 -0.00125745588670906 -0.00027813078975037964 -0.00125745588670906 0.0009034838190682396 -0.001521601927890642 -0.00027813078975037964 -0.001521601927890642 0.00013531868343382545" free_energy=-3256.74473828661 pbc="T T T"
Si       3.72114495       0.07980460       8.14210218      -0.03532123       0.05785942       0.02954085
Si      -2.93775582      -0.20762392       9.98020987       0.06848359      -0.01625315      -0.02456133
Si       2.98792436      -0.08208171       2.28560880       0.01312130      -0.02969658       0.00608119
Si      -1.72124472       2.17203928       3.56612075      -0.04980619       0.06879190      -0.09719507
Si       3.48853370       2.60493574       0.32639917      -0.05146640       0.05810403      -0.01113636
Si       2.32271455       1.97780319       8.13993810      -0.00635565      -0.05175783       0.00203533
Si      -3.19987513       4.02587432       7.76664404      -0.04686731      -0.02336290      -0.07207303
Si      -0.98696570       0.64732618       7.46866165      -0.03465683      -0.05451244       0.00725939
Si       5.00350330      -0.32263058       4.45163683       0.00631447       0.01307928       0.04186554
Si      -0.55896158      -0.22868624      10.18449999      -0.02097930      -0.01301026       0.07359974
Si       2.97435423      -0.40341244       5.75487376       0.01042327      -0.00780191      -0.02683492
Si       2.45751264       4.12400871       2.94521203       0.01068485      -0.03384503       0.02037791
Si       1.73874756       1.63426603       5.78687488      -0.04274337      -0.00229255      -0.04966841
Si      -1.09803907       3.08805811       7.23674723       0.00886302      -0.06366867       0.02472680
Si      -1.56491448       2.65510725       1.21142404       0.00255631       0.03282851       0.05882679
Si      -0.14294345       2.97091155       5.04974315       0.09170366       0.05519440       0.08011704
Si       1.77368225       1.79008464       3.22066803      -0.00857272       0.00208072       0.01194529
Si       3.40101910       3.07666007       4.85306633      -0.00310800      -0.01013605      -0.05108063
Si      -0.28603648       3.42534151       9.73102322       0.02176086      -0.01664516       0.01152610
Si      -2.59606663       3.42266539      10.33437043       0.06596566       0.03504428      -0.03535221
20
Lattice="7.047562609395331 -0.1996827284278632 0.46466224239259335 -2.3649834140664256 5.120751033887638 1.944302754991377 -2.422828483523456 -1.0374570039689108 9.829592613838456" Properties=species:S:1:pos:R:3:forces:R:3 unique_starting_index=76 config_type=initial n_minim_iter=4 energy=-3256.7478193386173 stress="2.6151112393993087e-05 0.0004606358297668708 -0.0002227267481975307 0.0004606358297668708 0.0008046042232138657 -0.0004264845715079367 -0.0002227267481975307 -0.0004264845715079367 0.0004949988199943849" free_energy=-3256.7478193386173 pbc="T T T"
Si       3.72011910       0.10467257       8.15335215      -0.02663603       0.02865655       0.01970356
Si      -2.92964261      -0.19143608       9.98734514       0.06917812      -0.02205750      -0.01344095
Si       2.98502949      -0.07094434       2.28945281       0.01733562      -0.03840778       0.01181535
Si      -1.71163105       2.17725208       3.57529589      -0.00213340       0.09337320      -0.11982839
Si       3.48846066       2.61403265       0.33469751      -0.03519707       0.00555898      -0.01876079
Si       2.32636680       1.99923827       8.15179965      -0.00371877      -0.00381493       0.00077163
Si      -3.18402197       4.03634310       7.77893462      -0.08987778      -0.03242761      -0.05000912
Si      -0.98256147       0.65851226       7.47619451      -0.01419499      -0.08094566      -0.01269056
Si       5.00050377      -0.30045502       4.45827336      -0.00367345      -0.00084285       0.02169198
Si      -0.55310035      -0.20775555      10.19579243      -0.00966246      -0.02389152       0.03190084
Si       2.97231325      -0.38292249       5.76163113      -0.02306890      -0.07232410      -0.02736409
Si       2.46656966       4.13602666       2.95813359       0.00064527      -0.02729361       0.01436417
Si       1.74358429       1.64994401       5.79636436      -0.04934645       0.03325361      -0.03365389
Si      -1.08844173       3.09935597       7.25091895       0.07641581      -0.03885464       0.02423912
Si      -1.55632648       2.65627870       1.21333801      -0.00486105       0.03195891       0.11799319
Si      -0.13418129       2.98348545       5.06311252       0.04266445       0.03609602       0.05793651
Si       1.77644932       1.80003624       3.22906152      -0.01786694       0.02015075       0.00361946
Si       3.40314183       3.09504967       4.86582942       0.01507113      -0.01092180      -0.01556402
Si      -0.27097575       3.44879051       9.74892645       0.00417701       0.02643375      -0.01305554
Si      -2.57945623       3.44141010      10.35031083       0.05474988       0.07630021       0.00033153
20
Lattice="7.0518439146139835 -0.20356269503397592 0.4677903647479318 -2.3687518942945895 5.120478178535114 1.950006433850929 -2.418641201869339 -1.0211223308170758 9.825398746955335" Properties=species:S:1:pos:R:3:forces:R:3 unique_starting_index=76 config_type=initial n_minim_iter=5 energy=-3256.748676833563 stress="0.0003750229218470317 -0.0002881214341122328 -7.248689523313782e-05 -0.0002881214341122328 -2.064071388791331e-05 0.00038781003962010786 -7.248689523313782e-05 0.00038781003962010786 0.00018314421925762496" free_energy=-3256.748676833563 pbc="T T T"
Si       3.72588880       0.11362835       8.15431432      -0.02145566       0.03620622       0.01164827
Si      -2.92579912      -0.17542776       9.98391626       0.07255569       0.00114551       0.00441288
Si       2.98795098      -0.06989005       2.29058123       0.03424359      -0.00717118      -0.00077822
Si      -1.71216151       2.18209184       3.57639064       0.00811626       0.11786482      -0.09694578
Si       3.48846983       2.60998108       0.33997981      -0.02027245       0.00682308      -0.00902329
Si       2.33013040       2.00713061       8.15429979      -0.00365875      -0.01641599      -0.01079870
Si      -3.18519801       4.04550046       7.78120964      -0.06340236      -0.03099595      -0.04834140
Si      -0.98014216       0.66822496       7.47532529      -0.02038904      -0.09243993      -0.01995804
Si       5.00582411      -0.29704202       4.45981017      -0.00441221      -0.01594553       0.01700025
Si      -0.54825633      -0.19307586      10.19408696      -0.02226795      -0.03913400       0.02190169
Si       2.97688374      -0.37671831       5.76154804      -0.02577840      -0.06678452      -0.03056264
Si       2.46688289       4.13465681       2.96471702      -0.01888035      -0.01793802       0.01369018
Si       1.74606873       1.65552814       5.79835169      -0.06333288       0.01953468      -0.01872415
Si      -1.08727329       3.10691881       7.25383360       0.05723755      -0.02473324       0.02472389
Si      -1.55833272       2.65699634       1.21635304      -0.01268273       0.00510227       0.09865444
Si      -0.13346405       2.98837956       5.06701493       0.01994754      -0.00254274       0.05585207
Si       1.77767377       1.80177119       3.23201967      -0.01567214      -0.00262862      -0.00826945
Si       3.40521565       3.09681113       4.87093805       0.03753784       0.00488115      -0.00581932
Si      -0.26829631       3.45993224       9.75213836      -0.00469014       0.02697378      -0.00459210
Si      -2.57760468       3.45509915      10.35216997       0.06725658       0.09819820       0.00592943
20
Lattice="7.0512156065321205 -0.20075795583833264 0.47455416221538965 -2.364468381303617 5.118251852502964 1.9464821931005862 -2.409050095254473 -1.0226876357167598 9.819235249920883" Properties=species:S:1:pos:R:3:forces:R:3 unique_starting_index=76 config_type=initial n_minim_iter=6 energy=-3256.7504292939348 stress="-0.0001378368881797839 0.0001408666860834041 0.0005840664506761539 0.0001408666860834041 -0.0002295170197572248 0.00022906391157034446 0.0005840664506761539 0.00022906391157034446 -0.0005307732134451753" free_energy=-3256.7504292939348 pbc="T T T"
Si       3.73282621       0.11513339       8.15515057      -0.01679406       0.01720241       0.00922545
Si      -2.91395992      -0.17758813       9.97704574       0.04934003       0.00232279       0.00728951
Si       2.99039777      -0.06931353       2.29275268       0.02085530       0.00022028      -0.00020930
Si      -1.70742245       2.18318415       3.57070964       0.03931351       0.08893895      -0.03780753
Si       3.48867012       2.61097927       0.34280956      -0.01292952      -0.00187131       0.01296534
Si       2.33840001       2.00656686       8.15297083      -0.00738807      -0.00547238      -0.01998455
Si      -3.17719115       4.04193179       7.77338991      -0.04959484      -0.03130267      -0.04964061
Si      -0.97287559       0.66489198       7.47096309      -0.01741680      -0.08399127      -0.02026522
Si       5.00935581      -0.29549676       4.46345518       0.00743042       0.00435459       0.00282661
Si      -0.53863456      -0.19486944      10.19031709      -0.00871972      -0.02385796       0.04187467
Si       2.98141056      -0.37742680       5.76156466      -0.03401344      -0.05246066      -0.02362603
Si       2.47091935       4.13397020       2.96587571       0.00454049      -0.01711241       0.00391063
Si       1.75080799       1.65587230       5.79703219      -0.04364155       0.00215388      -0.00994675
Si      -1.07737870       3.10431396       7.25027569       0.03182618      -0.03064904       0.03568192
Si      -1.55608363       2.65615220       1.21639134      -0.01351041       0.02327769       0.04690200
Si      -0.12655803       2.98761529       5.06608972      -0.00482167      -0.00981934       0.01414833
Si       1.78087935       1.80187633       3.23226922      -0.01622337      -0.00158164      -0.00794608
Si       3.41134044       3.09708013       4.87186360       0.01820460       0.01076103      -0.00469704
Si      -0.25722420       3.45893864       9.74763355       0.00750904       0.03282299      -0.00532176
Si      -2.56416817       3.45452871      10.34527416       0.04603388       0.07606407       0.00462041
20
Lattice="7.038829775770333 -0.19978187976194997 0.46340103317121295 -2.3634028233577684 5.10833819524834 1.9531786958275428 -2.4218627878308414 -1.0224949668893104 9.840778588596613" Properties=species:S:1:pos:R:3:forces:R:3 unique_starting_index=76 config_type=initial n_minim_iter=7 energy=-3256.753751231464 stress="-0.0017023033784703606 0.00043225847311908697 -0.0005909120707942318 0.00043225847311908697 -0.0013776139855121517 0.00037137687050822294 -0.0005909120707942318 0.00037137687050822294 -0.0010727429366748453" free_energy=-3256.753751231464 pbc="T T T"
Si       3.71016635       0.11591577       8.16561453       0.01439488      -0.02711485       0.02587273
Si      -2.92035061      -0.17946724       9.99897635      -0.03986156       0.04269671       0.03461518
Si       2.98364088      -0.07053401       2.29235111       0.02822720       0.01697451       0.01061047
Si      -1.70804127       2.18817081       3.57339137       0.03322861       0.00276558       0.04012099
Si       3.47930634       2.60779581       0.33704180       0.03982980      -0.02283055      -0.00763705
Si       2.31880529       1.99953002       8.16058375      -0.08111193      -0.00848393       0.00105150
Si      -3.19096686       4.02954336       7.78492843       0.03680877      -0.02418618      -0.04402364
Si      -0.98727802       0.65144945       7.48348468       0.00639630      -0.08015093      -0.01954992
Si       4.99494385      -0.29346433       4.46463004      -0.01337379       0.05401120      -0.05119074
Si      -0.55588985      -0.19912721      10.21420022       0.04689355      -0.00876273       0.05977751
Si       2.96383879      -0.38128721       5.76474966       0.00131991      -0.00770813      -0.03240224
Si       2.46382133       4.12432074       2.96687785      -0.00699492       0.01072818      -0.00610237
Si       1.73409889       1.65296365       5.80149659       0.01759823      -0.02390276      -0.00151146
Si      -1.08427683       3.09180322       7.26776667      -0.04390972      -0.03550579       0.01374594
Si      -1.55565015       2.65397379       1.22463956       0.02357416       0.02358278      -0.04445293
Si      -0.13276145       2.98339273       5.08084467      -0.05774868       0.00581802       0.00492490
Si       1.77078816       1.79766509       3.23465771      -0.01603821      -0.03305768      -0.02144492
Si       3.39769849       3.09152298       4.87296628       0.02416677       0.01761342       0.02538584
Si      -0.27012148       3.45568373       9.76510473      -0.00688165       0.03835627      -0.02164590
Si      -2.57076508       3.45469262      10.36723572      -0.00651770       0.05915686       0.03385613
20
Lattice="7.041215389452319 -0.20174987906289493 0.4811396570820767 -2.3605359877048153 5.105187297255481 1.9488846805272069 -2.398982458033286 -1.0276321195365519 9.858502409946716" Properties=species:S:1:pos:R:3:forces:R:3 unique_starting_index=76 config_type=initial n_minim_iter=8 energy=-3256.757473592019 stress="-0.0011721307826580585 0.0002854836492023005 0.0005967216869453215 0.0002854836492023005 -0.0010879669914941345 -0.00017234692187668274 0.0005967216869453215 -0.00017234692187668274 6.785164670890659e-05" free_energy=-3256.757473592019 pbc="T T T"
Si       3.72702055       0.10970907       8.19723422       0.01888009      -0.02290417       0.04093715
Si      -2.89387488      -0.18451580      10.01448830      -0.04768180       0.06083467       0.02050371
Si       2.99105656      -0.07339857       2.30571824       0.01811043       0.03236334      -0.01252328
Si      -1.69619618       2.19330632       3.57495118       0.06141442       0.00095341       0.05865131
Si       3.47632430       2.60739967       0.34484186       0.06855579      -0.02192232       0.00250563
Si       2.33289182       1.98879069       8.17952634      -0.08021517      -0.00253503       0.01242797
Si      -3.17869892       4.01945043       7.78345259       0.03362316       0.00185446      -0.05396961
Si      -0.97532457       0.63231157       7.49508810       0.02866365      -0.07621195      -0.02442737
Si       5.00938755      -0.29226957       4.48828251      -0.00728838       0.03411157      -0.06082068
Si      -0.53122049      -0.20848718      10.24416590       0.06040241      -0.02071736       0.09819027
Si       2.97494165      -0.38612431       5.78428995      -0.00610457      -0.02861583      -0.04078543
Si       2.47443506       4.11859288       2.97701903      -0.00709696      -0.00895446       0.02640166
Si       1.74587864       1.64717033       5.81522372       0.02407238      -0.03674704       0.01719629
Si      -1.06861829       3.07730744       7.28399311      -0.04638253      -0.02150994       0.00474539
Si      -1.55258606       2.65666606       1.21799190       0.00534335       0.03258446      -0.02024447
Si      -0.12122094       2.98209397       5.09763770      -0.08380321      -0.02703103      -0.04864320
Si       1.77622557       1.79203145       3.24546840      -0.01354397      -0.02003870      -0.02437573
Si       3.40556728       3.08719303       4.88906767       0.02364377       0.03965261       0.00263895
Si      -0.24194391       3.45488294       9.78628542      -0.01695231       0.01020808      -0.05023056
Si      -2.54133915       3.45521522      10.38307157      -0.03364057       0.07462525       0.05182200
20
Lattice="7.049015683456331 -0.20139901645236105 0.4830236892666676 -2.3620883211542765 5.111727810576482 1.947255364156479 -2.398325546482938 -1.0266776434651017 9.847087204711059" Properties=species:S:1:pos:R:3:forces:R:3 unique_starting_index=76 config_type=initial n_minim_iter=9 energy=-3256.75929376953 stress="9.27221088763768e-05 0.00030920789704211364 0.00026185222475869476 0.00030920789704211364 0.0004399045775062921 -2.3618540938278518e-05 0.00026185222475869476 -2.3618540938278518e-05 -0.001153191884178135" free_energy=-3256.75929376953 pbc="T T T"
Si       3.73185249       0.11178011       8.19335656       0.02874799       0.00516416       0.00957061
Si      -2.89160208      -0.18168192      10.00233863      -0.04940864       0.06018552       0.06403626
Si       2.99619551      -0.07294283       2.30492658       0.02843713       0.01528216       0.01291692
Si      -1.69302662       2.20238848       3.57100736       0.03350372      -0.02209355       0.07599872
Si       3.47811956       2.61231659       0.34671490       0.06173724      -0.02536787       0.01279544
Si       2.33404023       1.99024848       8.16923509      -0.04166857       0.01054393       0.01933893
Si      -3.18203339       4.02321377       7.76781813       0.04357708      -0.02603289      -0.03628961
Si      -0.97756950       0.62374072       7.48467407       0.02612236      -0.04500909      -0.02701625
Si       5.01863279      -0.28705647       4.48588221      -0.03504570       0.04542342      -0.08355297
Si      -0.52725806      -0.20875955      10.23945633       0.04190514       0.01653365       0.08444079
Si       2.97789131      -0.38529535       5.77829095      -0.00523612      -0.03430997      -0.05999767
Si       2.48167726       4.12361260       2.97607054      -0.02045939       0.00132314       0.01508648
Si       1.74902893       1.64969367       5.80829975       0.02380254      -0.04048877       0.00339291
Si      -1.06801848       3.07615247       7.27955392      -0.05612973      -0.00644248       0.01824262
Si      -1.55271349       2.66352717       1.21303171       0.02254975       0.03395574      -0.02090022
Si      -0.11976512       2.98928272       5.09799534      -0.06455435      -0.02498412      -0.08058854
Si       1.77787011       1.79323486       3.24323160      -0.00549443      -0.01377428      -0.03407786
Si       3.40850768       3.09352994       4.88495334       0.05111520       0.01948954       0.02000979
Si      -0.23395994       3.46670968       9.77756094      -0.04156868      -0.02349033      -0.05258399
Si      -2.53590889       3.46811274      10.37258719      -0.04193254       0.05409210       0.05917766
20
Lattice="7.047009791798203 -0.2079102384840306 0.48814155861790676 -2.3655237941795213 5.104289540639494 1.9562723557766835 -2.392878477724281 -1.0236576673794864 9.899393103088173" Properties=species:S:1:pos:R:3:forces:R:3 unique_starting_index=76 config_type=initial n_minim_iter=10 energy=-3256.7627812922915 stress="0.0010731306703511832 -0.0004792232290077686 -0.00010175025804357677 -0.0004792232290077686 0.00038182511717116705 -0.0002817215584956431 -0.00010175025804357677 -0.0002817215584956431 0.001499909665084892" free_energy=-3256.7627812922915 pbc="T T T"
Si       3.73029881       0.10690374       8.24606534       0.03676082       0.02121418       0.04343683
Si      -2.88359192      -0.17620035      10.05586552      -0.03364014       0.08231411       0.04414594
Si       2.99952889      -0.07602079       2.31991250       0.04186770       0.01013417       0.00718874
Si      -1.68530110       2.21101082       3.59008701      -0.00369262      -0.01004919       0.00001345
Si       3.47188338       2.60618290       0.35029367       0.09026256      -0.00828240      -0.02253417
Si       2.32445717       1.97729273       8.20857238      -0.04523825      -0.00597498       0.03897585
Si      -3.18668982       4.01152645       7.79201842       0.01986054       0.02765934      -0.05233501
Si      -0.98171339       0.59871724       7.51891345       0.04910927      -0.05527299      -0.04918536
Si       5.02216251      -0.28277638       4.51076678      -0.04885765      -0.01532228      -0.08029125
Si      -0.51978759      -0.21397012      10.30950889       0.03247765      -0.00725336       0.09222719
Si       2.97484474      -0.39043637       5.80662618       0.01342190      -0.06334385      -0.07265833
Si       2.48331898       4.11129321       2.99388207      -0.05514650      -0.00735278       0.06929715
Si       1.74751399       1.64133232       5.83632218       0.02390045      -0.02002538       0.01127871
Si      -1.07078694       3.05734562       7.32407667      -0.02584053       0.01220692      -0.04603752
Si      -1.55185202       2.66755416       1.21190349       0.00818807       0.02438682       0.06657193
Si      -0.12311513       2.98708590       5.13331452      -0.04799432      -0.03982915      -0.03795436
Si       1.77347679       1.78363345       3.26022032       0.00007532      -0.01085654      -0.03710787
Si       3.40301794       3.08681535       4.91079440       0.06833882       0.03668560       0.00873025
Si      -0.22587677       3.46904552       9.82948402      -0.07256872      -0.07252546      -0.09185156
Si      -2.52654391       3.47797921      10.42995923      -0.05128435       0.10148722       0.10808940
20
Lattice="7.014463462599737 -0.21935550048136335 0.4965050312192494 -2.3619174463265815 5.11314777310314 1.9806982348327098 -2.370335682355155 -0.9875038316129006 9.945831667142416" Properties=species:S:1:pos:R:3:forces:R:3 unique_starting_index=76 config_type=initial n_minim_iter=11 energy=-3256.7760681181885 stress="-0.0012429135080253952 -0.0012220954921807828 -0.0004161035309154633 -0.0012220954921807828 0.0018654453649394197 0.0004065370188458731 -0.0004161035309154633 0.0004065370188458731 0.000900289272058253" free_energy=-3256.7760681181885 pbc="T T T"
Si       3.71941576       0.12913234       8.30706984      -0.07382585      -0.01040915       0.06769969
Si      -2.85754650      -0.12504360      10.11379911      -0.02625273       0.12292664       0.05933911
Si       2.99886936      -0.07330133       2.33815116       0.03105679      -0.04824291       0.11900288
Si      -1.66538148       2.24419744       3.61343837      -0.07401936      -0.10920620      -0.08596341
Si       3.45712293       2.59999715       0.36305564      -0.00531888       0.06840332      -0.02404832
Si       2.29781772       1.99071883       8.25716647       0.05298727      -0.06460039      -0.04720770
Si      -3.17760794       4.03092198       7.81327037      -0.06726294       0.10836457      -0.05504306
Si      -0.97464772       0.58145094       7.54586693       0.10687236      -0.00975022      -0.13147169
Si       5.00100660      -0.26482474       4.52604947      -0.00758214      -0.04125475      -0.09363137
Si      -0.49844071      -0.18798428      10.39561564      -0.02440639       0.02853562       0.05429631
Si       2.96040497      -0.39176598       5.82222726      -0.02610134       0.02998803      -0.04130971
Si       2.46719201       4.11078339       3.03301219      -0.01893796      -0.00408709       0.07135244
Si       1.73911169       1.64986801       5.86888891       0.04988633      -0.02526535       0.01821711
Si      -1.06934754       3.06337106       7.37848223       0.00911686      -0.03647870      -0.12891548
Si      -1.54403704       2.68792352       1.22761086       0.02948430       0.01369834       0.04545458
Si      -0.13293055       3.00364727       5.17574533       0.07031094      -0.00503234       0.07909466
Si       1.75889630       1.78319554       3.27800994      -0.00685516      -0.01595819      -0.03016132
Si       3.39267428       3.10274971       4.94994509       0.03350816       0.04800800       0.03957732
Si      -0.22086546       3.50754365       9.88079431       0.03446730      -0.14025666      -0.09233835
Si      -2.50363780       3.55035488      10.50902876      -0.08712757       0.09061746       0.17605630
20
Lattice="7.020969963643663 -0.21072533632487367 0.5024861429024062 -2.3578914510874 5.08978914614439 1.9966141974839202 -2.367505067469757 -0.9678866883492817 9.985238182650473" Properties=species:S:1:pos:R:3:forces:R:3 unique_starting_index=76 config_type=initial n_minim_iter=12 energy=-3256.786075303464 stress="-2.30320203340701e-05 -3.854972114941959e-05 -0.000977527588973536 -3.854972114941959e-05 -9.439096757995965e-05 0.0005190414318488915 -0.000977527588973536 0.0005190414318488915 -4.3600236507646165e-07" free_energy=-3256.786075303464 pbc="T T T"