6
Lattice="3.39372 1.0222929475207572e-143 0.0 0.0 5.94629 -3.641052507650958e-16 -4.183082861354144e-32 3.7634498319917394e-16 6.14618" Properties=species:S:1:pos:R:3:forces:R:3 unique_starting_index=476 config_type=initial n_minim_iter=1 energy=-956.5418970213832 stress="-0.9308064653389657 -0.04436153190077589 -0.10301119508785951 -1.3282625474878452e-11 1.322763969406671e-13 2.4178694567701665e-12" pbc="T T T"
Si       0.89686110       5.14680834       1.73781580     -11.27152517       0.34400703      -2.40555776
Si       2.49685890       2.17366334       4.40836420      11.27152517       0.34400703       2.40555776
Si       0.89686110       2.17366334       4.40836420     -11.27152517       0.34400703       2.40555777
Si       2.49685890       5.14680834       1.73781580      11.27152517       0.34400703      -2.40555777
Si      -0.00000000       4.65663662       5.79126884       0.00000000      -0.68801406      -0.00922583
Si      -0.00000000       1.68349162       0.35491116      -0.00000000      -0.68801406       0.00922583
6
Lattice="3.433126884696356 1.0228555851208853e-143 1.7134936457259135e-34 -1.838372150800396e-50 5.949562649335379 -3.645707470337247e-16 -4.2006234540482403e-32 3.7655211153619414e-16 6.154037683596459" Properties=species:S:1:pos:R:3:forces:R:3 unique_starting_index=476 config_type=initial n_minim_iter=2 energy=-957.8979385592119 stress="-0.8580876460897631 -0.03648332900578855 -0.09661749396892845 -3.2087123023868544e-12 1.6654575233914565e-12 5.6506664528254395e-12" pbc="T T T"
Si       0.90613495       5.14967540       1.73979668      -9.75459027       0.30783202      -2.37138490
Si       2.52699194       2.17489407       4.41424101       9.75459027       0.30783202       2.37138490
Si       0.90613495       2.17489407       4.41424101      -9.75459027       0.30783202       2.37138490
Si       2.52699194       5.14967540       1.73979668       9.75459027       0.30783202      -2.37138490
Si      -0.00000000       4.65913065       5.79867186       0.00000000      -0.61566404       0.02293930
Si      -0.00000000       1.68434932       0.35536583      -0.00000000      -0.61566404      -0.02293930
6
Lattice="4.004991508828477 -3.392005598401951e-50 2.7345319170498568e-33 -3.6527486943260825e-49 5.9886637620649035 -3.8213681362329244e-16 -4.441343322218889e-32 3.6748411550369874e-16 6.261727532500327" Properties=species:S:1:pos:R:3:forces:R:3 unique_starting_index=476 config_type=initial n_minim_iter=3 energy=-969.7633789698039 stress="-0.2741162419807238 0.048393196389914225 0.030257966142986297 7.576589939758844e-12 -1.9453737447899407e-12 -3.848931821033343e-12" pbc="T T T"
Si       1.04043802       5.18396266       1.76678608      -2.58427134      -0.18094292      -0.54378261
Si       2.96455349       2.18963078       4.49494145       2.58427134      -0.18094292       0.54378261
Si       1.04043802       2.18963078       4.49494145      -2.58427134      -0.18094292       0.54378262
Si       2.96455349       5.18396266       1.76678608       2.58427134      -0.18094292      -0.54378262
Si      -0.00000000       4.68886474       5.90017657       0.00000000       0.36188584       0.17300862
Si      -0.00000000       1.69453286       0.36155097       0.00000000       0.36188584      -0.17300862
6
Lattice="4.3811711161737055 8.243020258694557e-50 5.767835212205916e-33 -6.689261829171187e-49 5.894497366235843 -4.04041353530658e-16 -4.3627694666380625e-32 3.3532847838835233e-16 6.199982423399321" Properties=species:S:1:pos:R:3:forces:R:3 unique_starting_index=476 config_type=initial n_minim_iter=4 energy=-971.5474005758854 stress="-0.009068295678024495 0.043496394986796756 0.052915215013066064 -8.7784974156405e-12 4.049711531025781e-12 2.222630164782189e-12" pbc="T T T"
Si       1.12957835       5.10205554       1.74814562      -1.40673866      -0.45696903       0.21911068
Si       3.25159276       2.15480686       4.45183680       1.40673866      -0.45696903      -0.21911068
Si       1.12957835       2.15480686       4.45183680      -1.40673866      -0.45696903      -0.21911068
Si       3.25159276       5.10205554       1.74814562       1.40673866      -0.45696903       0.21911068
Si      -0.00000000       4.61592438       5.84238434      -0.00000000       0.91393806       0.02056421
Si      -0.00000000       1.66867570       0.35759808       0.00000000       0.91393806      -0.02056421
6
Lattice="4.395354321615545 1.7638148308596447e-48 7.082095395039815e-33 2.1258422031203467e-48 5.8038209216889145 -3.786320592901884e-16 -4.1450390790505807e-32 3.486310038006466e-16 6.0841477479936374" Properties=species:S:1:pos:R:3:forces:R:3 unique_starting_index=476 config_type=initial n_minim_iter=5 energy=-971.7916486705097 stress="-0.013863675856524607 0.031048284221559082 0.027048533118703286 -1.1378083056816524e-11 3.1771609130783506e-12 -5.28993873192999e-12" pbc="T T T"
Si       1.12799945       5.02258521       1.71597195      -1.01073480      -0.34418272       0.14605168
Si       3.26735487       2.12067475       4.36817580       1.01073480      -0.34418272      -0.14605168
Si       1.12799945       2.12067475       4.36817580      -1.01073480      -0.34418272      -0.14605168
Si       3.26735487       5.02258521       1.71597195       1.01073480      -0.34418272       0.14605168
Si      -0.00000000       4.54688494       5.73327641       0.00000000       0.68836543      -0.27171332
Si      -0.00000000       1.64497447       0.35087134       0.00000000       0.68836543       0.27171332
6
Lattice="4.441997950724093 1.400759999018272e-48 9.277677735514927e-33 1.3716982212833913e-48 5.66822270671964 -3.7091374695894053e-16 -3.8064227167521327e-32 3.40485724606788e-16 5.960124038336017" Properties=species:S:1:pos:R:3:forces:R:3 unique_starting_index=476 config_type=initial n_minim_iter=6 energy=-972.0001177009872 stress="-0.019442755281890975 0.02540383638915357 0.009126895362396635 6.187877016060168e-13 -6.06777345508361e-12 1.7366560010645118e-13" pbc="T T T"
Si       1.13156408       4.90366849       1.68168014      -0.49456569      -0.21347635       0.19326384
Si       3.31043387       2.06955713       4.27844390       0.49456569      -0.21347635      -0.19326384
Si       1.13156408       2.06955713       4.27844390      -0.49456569      -0.21347635      -0.19326384
Si       3.31043387       4.90366849       1.68168014       0.49456569      -0.21347635       0.19326384
Si      -0.00000000       4.44379528       5.61512552       0.00000000       0.42695270      -0.67198806
Si      -0.00000000       1.60968393       0.34499852      -0.00000000       0.42695270       0.67198806
6
Lattice="4.544163859707711 9.691010211650177e-49 1.170536206280154e-32 4.941518863950698e-49 5.502289570030086 -3.6697550130617416e-16 -3.485404905643753e-32 3.305182502845384e-16 5.896841313507478" Properties=species:S:1:pos:R:3:forces:R:3 unique_starting_index=476 config_type=initial n_minim_iter=7 energy=-972.2248228675354 stress="-0.014800159746756287 0.03346477863947399 0.014917793031857194 -8.11075645518243e-12 -6.787354013760737e-13 -2.216748636487013e-12" pbc="T T T"
Si       1.15083472       4.75864958       1.66522597      -0.08574416      -0.14779494       0.39057489
Si       3.39332914       2.00750480       4.23161534       0.08574416      -0.14779494      -0.39057489
Si       1.15083472       2.00750480       4.23161534      -0.08574416      -0.14779494      -0.39057489
Si       3.39332914       4.75864958       1.66522597       0.08574416      -0.14779494       0.39057489
Si      -0.00000000       4.31664146       5.55063320       0.00000000       0.29558989      -0.84730350
Si      -0.00000000       1.56549667       0.34620812       0.00000000       0.29558989       0.84730350
6
Lattice="4.644413848706951 1.0541197479497318e-48 1.5025604927590312e-32 2.812740736037564e-49 5.237391902994753 -4.198111155015926e-16 -2.9811984276639613e-32 2.5029366314565554e-16 5.7685570121564345" Properties=species:S:1:pos:R:3:forces:R:3 unique_starting_index=476 config_type=initial n_minim_iter=8 energy=-972.6463713745779 stress="-0.014496080846870976 0.0440650267863407 0.026260130310830784 3.460964385728321e-12 -1.249549553309768e-11 -1.0186115707162556e-11" pbc="T T T"
Si       1.17465236       4.52834855       1.63251646       0.11131579      -0.07078106       0.67257404
Si       3.46976149       1.90965260       4.13604055      -0.11131579      -0.07078106      -0.67257404
Si       1.17465236       1.90965260       4.13604055       0.11131579      -0.07078106      -0.67257404
Si       3.46976149       4.52834855       1.63251646      -0.11131579      -0.07078106       0.67257404
Si      -0.00000000       4.11123376       5.42225073       0.00000000       0.14156212      -1.13641577
Si      -0.00000000       1.49253780       0.34630628       0.00000000       0.14156212       1.13641577
6
Lattice="4.739851354129739 2.144952605843683e-48 1.9301659313760616e-32 1.425368213559793e-48 4.923366340124914 -2.4996967765322036e-16 -2.2552954369476203e-32 3.9513919900161147e-16 5.559867589306174" Properties=species:S:1:pos:R:3:forces:R:3 unique_starting_index=476 config_type=initial n_minim_iter=9 energy=-973.1475225611683 stress="-0.026640049567451387 0.018133561280270986 0.0065311724330607045 -4.944927245127161e-12 -7.377448794980045e-12 6.482779027354864e-12" pbc="T T T"
Si       1.20091780       4.25631990       1.57916715       0.24224733       0.00349024       1.14172666
Si       3.53893355       1.79463673       3.98070044      -0.24224733       0.00349024      -1.14172666
Si       1.20091780       1.79463673       3.98070044       0.24224733       0.00349024      -1.14172666
Si       3.53893355       4.25631990       1.57916715      -0.24224733       0.00349024       1.14172666
Si      -0.00000000       3.86576318       5.21644119      -0.00000000      -0.00698048      -1.69862049
Si      -0.00000000       1.40408001       0.34342640      -0.00000000      -0.00698049       1.69862049
6
Lattice="4.927069253968778 2.590323306497051e-49 2.3031115263271816e-32 -2.2838535221336312e-48 4.795239415790768 -1.852475004033641e-16 -1.702076455595021e-32 4.514461476922565e-16 5.507313875483929" Properties=species:S:1:pos:R:3:forces:R:3 unique_starting_index=476 config_type=initial n_minim_iter=10 energy=-973.3671504804291 stress="-0.007433464384918331 0.0032159028402491004 0.012930081118815207 -3.974663453493937e-12 -1.3264465457705516e-11 5.902115307081659e-13" pbc="T T T"
Si       1.25385773       4.14557848       1.57461259       0.38562453      -0.03717393       0.99608154
Si       3.67321152       1.74795877       3.93270129      -0.38562453      -0.03717393      -0.99608154
Si       1.25385773       1.74795877       3.93270129       0.38562453      -0.03717393      -0.99608154
Si       3.67321152       4.14557848       1.57461259      -0.38562453      -0.03717393       0.99608154
Si      -0.00000000       3.76510735       5.15170218       0.00000000       0.07434786      -1.52925553
Si      -0.00000000       1.36748764       0.35561169      -0.00000000       0.07434786       1.52925553
6
Lattice="4.991902626059603 2.094607182864075e-48 2.5876217953935763e-32 -1.4552955550051414e-48 4.768195936852639 2.264541491834713e-16 -1.155610271825283e-32 8.72236709972906e-16 5.383494241974845" Properties=species:S:1:pos:R:3:forces:R:3 unique_starting_index=476 config_type=initial n_minim_iter=11 energy=-973.5237607195905 stress="-0.017974767823204566 -0.003078452650750634 0.0046260080776187994 2.4376526771620306e-12 -7.701639380538818e-12 1.3194598849977498e-12" pbc="T T T"
Si       1.28148702       4.12187396       1.54977733       0.33721531       0.00215470       0.97143086
Si       3.71041561       1.73777600       3.83371691      -0.33721531       0.00215470      -0.97143086
Si       1.28148702       1.73777600       3.83371691       0.33721531       0.00215470      -0.97143086
Si       3.71041561       4.12187396       1.54977733      -0.33721531       0.00215470       0.97143086
Si      -0.00000000       3.74452325       5.01965541      -0.00000000      -0.00430941      -1.60222105
Si      -0.00000000       1.36042529       0.36383883      -0.00000000      -0.00430941       1.60222105
6
Lattice="5.038413831327992 2.49739686373914e-48 2.795173317053545e-32 -4.1982162996700923e-48 4.775775502168234 7.248128887942375e-16 -7.889654778401927e-33 1.389292759370334e-15 5.370660147570249" Properties=species:S:1:pos:R:3:forces:R:3 unique_starting_index=476 config_type=initial n_minim_iter=12 energy=-973.5750749424948 stress="-0.011250332732945673 -4.573707014358473e-05 0.008846421814527836 8.489801427928017e-13 1.1755854533226546e-11 1.6594343589726804e-12" pbc="T T T"
Si       1.29639219       4.12843172       1.54907650       0.32279847       0.00027453       0.90434345
Si       3.74202165       1.74054397       3.82158365      -0.32279847       0.00027453      -0.90434345
Si       1.29639219       1.74054397       3.82158365       0.32279847       0.00027453      -0.90434345
Si       3.74202165       4.12843172       1.54907650      -0.32279847       0.00027453       0.90434345
Si      -0.00000000       3.75046440       5.00275091      -0.00000000      -0.00054906      -1.48262672
Si      -0.00000000       1.36257665       0.36790923      -0.00000000      -0.00054906       1.48262672
6
Lattice="5.095213270916067 2.836145643869719e-48 2.9330652132072e-32 -4.511855129186783e-49 4.775993158070678 3.7018320193861123e-16 -5.152239476304631e-33 1.0278233966922029e-15 5.323526515817351" Properties=species:S:1:pos:R:3:forces:R:3 unique_starting_index=476 config_type=initial n_minim_iter=13 energy=-973.6457746194512 stress="-0.0022956343922940193 0.0008857620337799355 0.00893857292047526 6.687796901724516e-13 9.564163984260839e-12 9.780152141694916e-13" pbc="T T T"
Si       1.31655455       4.12862124       1.54075915       0.30916813       0.01811381       0.84564989
Si       3.77865872       1.74062466       3.78276736      -0.30916813       0.01811381      -0.84564989
Si       1.31655455       1.74062466       3.78276736       0.30916813       0.01811381      -0.84564989
Si       3.77865872       4.12862124       1.54075915      -0.30916813       0.01811381       0.84564989
Si      -0.00000000       3.75063260       4.95019381      -0.00000000      -0.03622761      -1.40305035
Si      -0.00000000       1.36263602       0.37333271      -0.00000000      -0.03622761       1.40305035
6
Lattice="5.112870328677001 5.78392997768063e-48 3.0090315625277923e-32 -7.517357009093649e-49 4.769622375761199 9.838995846505849e-16 -3.14908286906481e-33 1.6710327661661772e-15 5.25229901135598" Properties=species:S:1:pos:R:3:forces:R:3 unique_starting_index=476 config_type=initial n_minim_iter=14 energy=-973.7251798030933 stress="-0.0024820054181166856 -0.0012617065840645374 0.0033598787459504903 -1.7888829041882707e-12 5.394311171476011e-12 -1.8640124875287692e-12" pbc="T T T"
Si       1.32925175       4.12324975       1.52742541       0.26153395       0.03270817       0.80947588
Si       3.78361858       1.73843856       3.72487361      -0.26153395       0.03270817      -0.80947588
Si       1.32925175       1.73843856       3.72487361       0.26153395       0.03270817      -0.80947588
Si       3.78361858       4.12324975       1.52742541      -0.26153395       0.03270817       0.80947588
Si      -0.00000000       3.74535806       4.87188082      -0.00000000      -0.06541634      -1.40804435
Si      -0.00000000       1.36054688       0.38041819       0.00000000      -0.06541634       1.40804435
6
Lattice="5.147101554308944 6.826291457880236e-48 3.0570396322867636e-32 3.3819337779891514e-49 4.785828692052261 1.0713349219698554e-15 -1.8490776757766743e-33 1.7772782058670515e-15 5.205068982886319" Properties=species:S:1:pos:R:3:forces:R:3 unique_starting_index=476 config_type=initial n_minim_iter=15 energy=-973.8304478949506 stress="0.004988866423717409 0.001952708355259409 0.009713719741359155 -4.125236636765522e-12 -1.336227173719405e-11 -2.0064900907805562e-12" pbc="T T T"
Si       1.35069450       4.13770302       1.52598675       0.09255874       0.01002730       0.62669673
Si       3.79640706       1.74478867       3.67908223      -0.09255874       0.01002730      -0.62669673
Si       1.35069450       1.74478867       3.67908223       0.09255874       0.01002730      -0.62669673
Si       3.79640706       4.13770302       1.52598675      -0.09255874       0.01002730       0.62669673
Si      -0.00000000       3.75719769       4.80668270       0.00000000      -0.02005460      -1.14164628
Si      -0.00000000       1.36428334       0.39838628       0.00000000      -0.02005460       1.14164628
6
Lattice="5.102621949764142 8.023500025019804e-48 3.053100828420351e-32 -3.675047349199732e-49 4.769598013742924 1.3447428959945999e-15 -9.886430372425393e-34 2.07502267706405e-15 5.117846743389749" Properties=species:S:1:pos:R:3:forces:R:3 unique_starting_index=476 config_type=initial n_minim_iter=16 energy=-973.8884595842128 stress="-0.006841247826544694 -0.0009767853255136627 0.0038857357040850897 -2.7175209272051937e-12 5.206990345458286e-12 -4.731090978486762e-12" pbc="T T T"
Si       1.34188611       4.12375823       1.50641198       0.14987525       0.02000389       0.73548033
Si       3.76073584       1.73895922       3.61143477      -0.14987525       0.02000389      -0.73548033
Si       1.34188611       1.73895922       3.61143477       0.14987525       0.02000389      -0.73548033
Si       3.76073584       4.12375823       1.50641198      -0.14987525       0.02000389       0.73548033
Si      -0.00000000       3.74427985       4.71521263      -0.00000000      -0.04000777      -1.59808403
Si      -0.00000000       1.35948084       0.40263411      -0.00000000      -0.04000777       1.59808403
6
Lattice="5.121998826239681 6.02439388638984e-48 3.072367953619237e-32 -1.432163478058869e-49 4.772179858803609 1.0012299322764596e-15 -5.2930203565996975e-34 1.7235034560522464e-15 5.1068408602763995" Properties=species:S:1:pos:R:3:forces:R:3 unique_starting_index=476 config_type=initial n_minim_iter=17 energy=-973.9151054991985 stress="-0.002401853902078235 0.0006356402961579248 0.006812348512150255 1.583137296102057e-13 -8.384024017160746e-12 -7.116796699333303e-13" pbc="T T T"
Si       1.34849463       4.12604775       1.50543589       0.14394706       0.01928593       0.70503598
Si       3.77350420       1.73995782       3.60140497      -0.14394706       0.01928593      -0.70503598
Si       1.34849463       1.73995782       3.60140497       0.14394706       0.01928593      -0.70503598
Si       3.77350420       4.12604775       1.50543589      -0.14394706       0.01928593       0.70503598
Si      -0.00000000       3.74619212       4.70015451       0.00000000      -0.03857185      -1.56613866
Si      -0.00000000       1.36010219       0.40668635       0.00000000      -0.03857185       1.56613866
6
Lattice="5.128609785912094 5.896307508431384e-48 3.075230197040545e-32 6.376336618906077e-50 4.770551116310056 9.626647719220467e-16 -2.7708918525132432e-34 1.6871058132210132e-15 5.088191955515434" Properties=species:S:1:pos:R:3:forces:R:3 unique_starting_index=476 config_type=initial n_minim_iter=18 energy=-973.9403629800994 stress="-0.0008093898607705054 0.0015224108402949752 0.008268977682018418 1.119671382689332e-12 9.055270920686468e-12 2.274038955223445e-12" pbc="T T T"
Si       1.35164760       4.12469296       1.50202486       0.15557091       0.02059416       0.70600852
Si       3.77696218       1.73941740       3.58616710      -0.15557091       0.02059416      -0.70600852
Si       1.35164760       1.73941740       3.58616710       0.15557091       0.02059416      -0.70600852
Si       3.77696218       4.12469296       1.50202486      -0.15557091       0.02059416       0.70600852
Si      -0.00000000       3.74480670       4.67835598       0.00000000      -0.04118833      -1.61125035
Si      -0.00000000       1.35953114       0.40983598       0.00000000      -0.04118833       1.61125035
6
Lattice="5.133779992900392 7.15551108053847e-48 3.051680172470835e-32 1.7284190650543365e-50 4.761518352837042 1.1632773474712503e-15 -1.3605717237486455e-34 1.9021461722733345e-15 5.036082850840465" Properties=species:S:1:pos:R:3:forces:R:3 unique_starting_index=476 config_type=initial n_minim_iter=19 energy=-974.0065974933867 stress="0.0002585402862292703 0.0033712077902460723 0.010456976946523294 -1.336433651152943e-13 -2.448545624427633e-11 2.2410684807971566e-12" pbc="T T T"
Si       1.35656663       4.11701539       1.49143147       0.19891137       0.02397770       0.73756293
Si       3.77721336       1.73625621       3.54465138      -0.19891137       0.02397770      -0.73756293
Si       1.35656663       1.73625621       3.54465138       0.19891137       0.02397770      -0.73756293
Si       3.77721336       4.11701539       1.49143147      -0.19891137       0.02397770       0.73756293
Si      -0.00000000       3.73745152       4.61951437      -0.00000000      -0.04795539      -1.77365912
Si      -0.00000000       1.35669234       0.41656849      -0.00000000      -0.04795539       1.77365912
6
Lattice="5.132146294252841 1.0072540764132133e-47 3.0168371631209933e-32 1.2206457336309242e-50 4.741798408256204 1.6205027639283353e-15 -6.15515969550452e-35 2.383922190140387e-15 4.971668557233486" Properties=species:S:1:pos:R:3:forces:R:3 unique_starting_index=476 config_type=initial n_minim_iter=20 energy=-974.0900626388907 stress="-0.001616874984822356 0.005587242115632639 0.01135966375057814 3.467266796187428e-12 -2.163198903739038e-11 1.1955819306644049e-14" pbc="T T T"
Si       1.36068528       4.10011778       1.47724382       0.26183757       0.02688158       0.80000113
Si       3.77146101       1.72921857       3.49442474      -0.26183757       0.02688158      -0.80000113
Si       1.36068528       1.72921857       3.49442474       0.26183757       0.02688158      -0.80000113
Si       3.77146101       4.10011778       1.47724382      -0.26183757       0.02688158       0.80000113
Si      -0.00000000       3.72166655       4.54867235       0.00000000      -0.05376316      -1.98549663
Si      -0.00000000       1.35076735       0.42299621       0.00000000      -0.05376316       1.98549662
6
Lattice="5.142195797895166 1.0307251040367768e-47 2.9777086717020294e-32 1.1121434878951767e-50 4.709852312552439 1.6494686669871158e-15 -2.534244503045291e-35 2.4188416194451497e-15 4.903805894434177" Properties=species:S:1:pos:R:3:forces:R:3 unique_starting_index=476 config_type=initial n_minim_iter=21 energy=-974.1924425617866 stress="-0.003809110638600488 0.009051132661262748 0.009895464871149987 5.509111280445699e-13 -5.646929814090965e-12 1.6177375597495254e-12" pbc="T T T"
Si       1.36934938       4.07266456       1.46224278       0.33252977       0.03115714       0.85940725
Si       3.77284642       1.71773840       3.44156311      -0.33252977       0.03115714      -0.85940725
Si       1.36934938       1.71773840       3.44156311       0.33252977       0.03115714      -0.85940725
Si       3.77284642       4.07266456       1.46224278      -0.33252977       0.03115714       0.85940725
Si      -0.00000000       3.69625363       4.47376926      -0.00000000      -0.06231429      -2.14711794
Si      -0.00000000       1.34132748       0.43003664      -0.00000000      -0.06231429       2.14711794
6
Lattice="5.165511263259474 1.1902121247479197e-47 2.9438160613717544e-32 7.801434147525604e-51 4.659494456142578 1.9028177364924606e-15 -9.555151959048688e-36 2.6747189091193705e-15 4.846511893948793" Properties=species:S:1:pos:R:3:forces:R:3 unique_starting_index=476 config_type=initial n_minim_iter=22 energy=-974.3125394156201 stress="-0.006069033678528876 0.0146754375198789 0.009360524076482772 -2.44964167115688e-12 -5.4616584073714e-12 -1.870631997051642e-14" pbc="T T T"
Si       1.38322724       4.02931291       1.45056549       0.37634289       0.02762443       0.90423179
Si       3.78228403       1.69956568       3.39594640      -0.37634289       0.02762443      -0.90423179
Si       1.38322724       1.69956568       3.39594640       0.37634289       0.02762443      -0.90423179
Si       3.78228403       4.02931291       1.45056549      -0.37634289       0.02762443       0.90423179
Si      -0.00000000       3.65634644       4.40799110       0.00000000      -0.05524886      -2.17989870
Si      -0.00000000       1.32659921       0.43852080       0.00000000      -0.05524886       2.17989870
6
Lattice="5.202210112844277 1.3647941720078546e-47 2.912205658804847e-32 1.4494451090084222e-51 4.5804085195246325 2.192994641207776e-15 -3.287549595809639e-36 2.950900630247983e-15 4.793880850964021" Properties=species:S:1:pos:R:3:forces:R:3 unique_starting_index=476 config_type=initial n_minim_iter=23 energy=-974.4596249637682 stress="-0.010138813258796215 0.021359701610153034 0.00817750846440725 -9.514690715313137e-13 6.660843179764864e-12 6.618518566435904e-13" pbc="T T T"
Si       1.40183528       3.96108983       1.44037439       0.42407249       0.01537010       0.96604720
Si       3.80037484       1.67088557       3.35350646      -0.42407249       0.01537010      -0.96604720
Si       1.40183528       1.67088557       3.35350646       0.42407249       0.01537010      -0.96604720
Si       3.80037484       3.96108983       1.44037439      -0.42407249       0.01537010       0.96604720
Si      -0.00000000       3.59395352       4.34671487       0.00000000      -0.03074019      -2.11239640
Si      -0.00000000       1.30374926       0.44716598       0.00000000      -0.03074019       2.11239640
6
Lattice="5.262809980974763 1.2879310361823198e-47 2.885258754510424e-32 3.9481478613531195e-52 4.470002869175961 2.103791909617097e-15 -1.0373692796910554e-36 2.8076029415443332e-15 4.749308991700299" Properties=species:S:1:pos:R:3:forces:R:3 unique_starting_index=476 config_type=initial n_minim_iter=24 energy=-974.6386582549803 stress="-0.014518910463998442 0.02110964598256734 0.005125824710886953 1.3025013043868683e-12 -2.304325413777685e-12 9.934050987938345e-13" pbc="T T T"
Si       1.42824584       3.86570117       1.43280473       0.48066886      -0.00361822       1.03726093
Si       3.83456414       1.63069973       3.31650426      -0.48066886      -0.00361822      -1.03726093
Si       1.42824584       1.63069973       3.31650426       0.48066886      -0.00361822      -1.03726093
Si       3.83456414       3.86570117       1.43280473      -0.48066886      -0.00361822       1.03726093
Si      -0.00000000       3.50714727       4.29356902       0.00000000       0.00723644      -1.92606882
Si      -0.00000000       1.27214584       0.45573997       0.00000000       0.00723644       1.92606882
6
Lattice="5.28806455351742 1.1040817645194087e-47 2.8804266277798924e-32 -1.9867224259275172e-53 4.438998237572746 1.820170918405218e-15 -3.21828494663554e-37 2.500267191772807e-15 4.741288969155589" Properties=species:S:1:pos:R:3:forces:R:3 unique_starting_index=476 config_type=initial n_minim_iter=25 energy=-974.6900036164732 stress="-0.014284328225156902 0.019003212545045736 0.00497041480341156 2.048708256616288e-13 -1.0887285825439983e-11 -2.2877482508526904e-12" pbc="T T T"
Si       1.43852723       3.83888208       1.43220991       0.49009104      -0.00713711       1.04741169
Si       3.84953732       1.61938296       3.30907905      -0.49009104      -0.00713711      -1.04741169
Si       1.43852723       1.61938296       3.30907905       0.49009104      -0.00713711      -1.04741169
Si       3.84953732       3.83888208       1.43220991      -0.49009104      -0.00713711       1.04741169
Si      -0.00000000       3.48283314       4.28293031      -0.00000000       0.01427422      -1.84799517
Si      -0.00000000       1.26333402       0.45835866      -0.00000000       0.01427422       1.84799517
6
Lattice="5.55973644352318 1.0324870349517969e-47 2.8306643463461657e-32 -3.8290480060122514e-53 4.152788893540231 1.7912194292630422e-15 -8.231217244270992e-38 2.338400244006878e-15 4.659353271435943" Properties=species:S:1:pos:R:3:forces:R:3 unique_starting_index=476 config_type=initial n_minim_iter=26 energy=-975.0172929996862 stress="-0.010234954640023613 -0.02714774010351005 -0.006132808634053746 -1.0369871307975545e-11 1.5012298604778184e-11 8.796792000022992e-13" pbc="T T T"
Si       1.55185499       3.59124863       1.42676200       0.70870495      -0.00511614       0.99451730
Si       4.00788146       1.51485418       3.23259127      -0.70870495      -0.00511614      -0.99451730
Si       1.55185499       1.51485418       3.23259127       0.70870495      -0.00511614      -0.99451730
Si       4.00788146       3.59124863       1.42676200      -0.70870495      -0.00511614       0.99451730
Si      -0.00000000       3.25850812       4.17485929       0.00000000       0.01023229      -1.44379648
Si      -0.00000000       1.18211367       0.48449398       0.00000000       0.01023229       1.44379648
6
Lattice="5.643262393246793 9.665290258089783e-48 2.856073270477468e-32 2.080715809070513e-53 4.320333246295222 1.6469453849105036e-15 -2.3061612788648167e-38 2.2556037108665013e-15 4.701171533414329" Properties=species:S:1:pos:R:3:forces:R:3 unique_starting_index=476 config_type=initial n_minim_iter=27 energy=-975.0562407824395 stress="0.022725615512264343 0.03791654191206676 0.04491130053856425 1.6197530132148314e-12 -2.8610551474443212e-11 -2.6921052145921898e-12" pbc="T T T"
Si       1.60131580       3.73610247       1.44737740       0.07497030       0.05101110       0.82099557
Si       4.04194659       1.57593585       3.25379413      -0.07497030       0.05101110      -0.82099557
Si       1.60131580       1.57593585       3.25379413       0.07497030       0.05101110      -0.82099557
Si       4.04194659       3.73610247       1.44737740      -0.07497030       0.05101110       0.82099557
Si      -0.00000000       3.39004301       4.20099089      -0.00000000      -0.10202220      -0.76586017