22
Lattice="10.626445390579912 0.4091686080876249 -0.16327072852187374 -4.102772948578954 9.811014968963718 0.16327072852188795 -3.3994590536644163 -5.022245393784224 8.737055983950524" Properties=species:S:1:pos:R:3:forces:R:3 unique_starting_index=6 config_type=initial n_minim_iter=1 energy=-3571.079374711007 stress="0.0002866410274113339 -0.00037704907734705505 -0.0005552096919211108 -0.00037704907734705505 -6.338032872215527e-05 0.0003543973677938674 -0.0005552096919211108 0.0003543973677938674 0.0005273163606940186" free_energy=-3571.079374711007 pbc="T T T"
Si      -3.25333312       5.84859861       7.49253390       0.31683935      -0.28776356       0.43004837
Si       2.60018366       1.76047807       5.72582357      -0.32370889       0.29214848      -0.42189863
Si       7.48170961       3.76766183      -0.19778402       0.35078824       0.43933334       0.05348393
Si      -0.58369849      -0.97858646       4.45776800      -0.34588207      -0.44246502      -0.05930441
Si       7.72911244      -1.51338205       2.84796168       0.40128096      -0.17062172       0.42189863
Si      -0.82753621       4.30018176       1.40779280      -0.39441141       0.16623680      -0.43004836
Si       2.48233048       4.25649157       4.27928798      -0.25571707      -0.50001848       0.05930441
Si      -3.13191482       3.35030945       8.93483999       0.25081089       0.50315015      -0.05348393
Si      -0.49989501       6.67597963       2.12771654       0.18719446       0.27561735       0.00234040
Si       1.84716737       6.84836560       4.01334280      -0.18116376      -0.27946683      -0.00949496
Si       1.81114917       4.43847876       1.87955519      -0.23867420       0.26297669      -0.28976405
Si       2.40208419       7.25648731       0.86145077       0.19407425      -0.23450798       0.34267551
Si       2.03468263      -0.46349087       4.72371318      -0.17721824      -0.28198530       0.00949496
Si       2.86647179      -2.66497798       6.60933944       0.17118754       0.28583478      -0.00234040
Si       2.17124138       0.21167409       7.87560521      -0.29441964       0.07730385      -0.34267551
Si      -0.13604797      -1.51076378       6.85750079       0.33901958      -0.10577256       0.28976405
Si      -1.58362837       2.07014430       1.19004732       0.10239451      -0.08459879      -0.11771093
Si       3.64690579       3.80500274       6.28835994      -0.09049505       0.07700322       0.13182794
Si      -1.48352835      -0.11233935       2.44869604       0.10794591      -0.04966416      -0.13182794
Si      -4.95776768       4.22390010       7.71027939      -0.11984538       0.05725974       0.11771093
Si       3.26183622       5.11009179      -0.00000000       0.00000000      -0.00000000       0.00000000
Si       3.61349317      -2.30653839       4.28689263       0.00000000      -0.00000000       0.00000000
22
Lattice="10.60571459378867 0.4377195447547844 -0.12255028290701958 -4.068147727733549 9.804231459431106 0.12255028290703385 -3.3720823305958945 -5.055038509251775 8.704219978968107" Properties=species:S:1:pos:R:3:forces:R:3 unique_starting_index=6 config_type=initial n_minim_iter=2 energy=-3571.099391456922 stress="-0.0007483516770451429 0.0011761714623645164 0.0016968671648890656 0.0011761714623645164 0.00034350916925208894 -0.001083131771740452 0.0016968671648890656 -0.001083131771740452 -0.0014991172170454438" free_energy=-3571.099391456922 pbc="T T T"
Si      -3.20005999       5.82197924       7.44123022       0.29454378      -0.25622731       0.43709769
Si       2.61934804       1.75617787       5.70731681      -0.33749903       0.28364619      -0.38613743
Si       7.47860759       3.79286454      -0.17700198       0.35383747       0.42444681       0.04411961
Si      -0.57047695      -0.99493038       4.44110691      -0.33212001      -0.43830934      -0.06988427
Si       7.72378934      -1.50205157       2.87435288       0.39937481      -0.18670970       0.38613743
Si      -0.81210832       4.29771948       1.38554004      -0.35641957       0.15929083      -0.43709769
Si       2.50321034       4.25057746       4.26311306      -0.25774170      -0.48578596       0.06988427
Si      -3.08037191       3.32531339       8.88122195       0.23602424       0.49964848      -0.04411961
Si      -0.47167691       6.67450132       2.10149120       0.08407354       0.28897733      -0.02642771
Si       1.87566910       6.84427533       3.98876189      -0.13312109      -0.25766966       0.08461562
Si       1.82469036       4.44258923       1.86650157      -0.22431356       0.15334230      -0.28406570
Si       2.42119746       7.26216950       0.85224829       0.23483582      -0.16005880       0.27158254
Si       2.04634955      -0.47215347       4.71545808      -0.17767382      -0.22923109      -0.08461562
Si       2.88062732      -2.67279817       6.60272877       0.22672136       0.19792341       0.02642771
Si       2.19572515       0.19861002       7.85197168      -0.24405159       0.14562109      -0.27158254
Si      -0.11064390      -1.52954374       6.83771841       0.23352933      -0.13890460       0.28406570
Si      -1.56965105       2.06333272       1.17355008       0.10194391      -0.12762714      -0.07906024
Si       3.67331406       3.80135389       6.27097058      -0.03827080       0.08698379       0.15459927
Si      -1.47057965      -0.12271500       2.43324940       0.09501154       0.00190798      -0.15459927
Si      -4.90782888       4.19413385       7.65322017      -0.15868465       0.03873536       0.07906024
Si       3.26878343       5.12097551      -0.00000000      -0.00000000       0.00000000       0.00000000
Si       3.61681613      -2.30865948       4.29083485       0.00000000      -0.00000000      -0.00000000
22
Lattice="10.573388613485553 0.3834464599102784 -0.17903928105317302 -4.103766510854655 9.752060212272655 0.17903928105318714 -3.3857254607681124 -4.971422759774058 8.706173204770897" Properties=species:S:1:pos:R:3:forces:R:3 unique_starting_index=6 config_type=initial n_minim_iter=3 energy=-3571.5811111388302 stress="-0.013941511360955842 -0.0027199967697525895 -0.0030599077728800128 -0.0027199967697525895 -0.016466532645019308 0.001953177829517354 -0.0030599077728800128 0.001953177829517354 -0.012205302260001459" free_energy=-3571.5811111388302 pbc="T T T"
Si      -3.20115027       5.76831827       7.56065465       0.52234386       0.09231788       0.31742418
Si       2.51100953       1.80478145       5.62287486      -0.46064493      -0.13170109      -0.39062115
Si       7.50515668       3.80973799      -0.19515698      -0.05940317       0.59731022      -0.31349531
Si      -0.65209999      -1.05155660       4.42976014       0.01055116      -0.56612736       0.37145125
Si       7.76751857      -1.55051475       2.90425906       0.07447933      -0.47327768       0.39062115
Si      -0.90958454       4.30558288       1.32455783      -0.13617826       0.51266089      -0.31742418
Si       2.40462413       4.12987188       4.27641306      -0.51794968      -0.22877859      -0.37145125
Si      -3.08988754       3.44011458       8.90133018       0.56680170       0.19759573       0.31349531
Si      -0.48383005       6.68702210       2.12667161      -0.10586229       0.14785841      -0.06852294
Si       1.78433909       6.74799483       4.00574271       0.02134769      -0.09391167       0.16878745
Si       1.74407596       4.45146647       1.81848714      -0.13081340      -0.21223615       0.02591442
Si       2.41303600       7.16014469       0.92497584       0.11228040       0.22406600      -0.00392767
Si       1.98382637      -0.51191457       4.70043048      -0.09417058      -0.02017489      -0.16878745
Si       2.88345787      -2.59493451       6.57950159       0.17868519      -0.03377185       0.06852294
Si       2.09297623       0.23186874       7.78119735       0.15596780       0.19617978       0.00392767
Si      -0.08229490      -1.51531206       6.88768606      -0.13743480      -0.20800963      -0.02591442
Si      -1.56222029       2.04186388       1.16937632       0.15955066      -0.15497169      -0.19734601
Si       3.59579358       3.79265472       6.29073850      -0.14225103       0.14392911       0.21786955
Si      -1.45947597      -0.11307692       2.41543470       0.19044137      -0.06843266      -0.21786955
Si      -4.97969265       4.22327970       7.71583616      -0.20774100       0.07947523       0.19734601
Si       3.23481105       5.06775334      -0.00000000      -0.00000000       0.00000000       0.00000000
Si       3.59383158      -2.29398814       4.26356696       0.00000000      -0.00000000      -0.00000000
22
Lattice="10.609465506519273 0.3768637150500733 -0.1880040057671497 -4.124926381639484 9.782012417687794 0.18800400576716386 -3.4007404838337303 -4.978284072904792 8.740124824680992" Properties=species:S:1:pos:R:3:forces:R:3 unique_starting_index=6 config_type=initial n_minim_iter=4 energy=-3571.7552584258783 stress="-0.002518931188362539 -0.0017083161513766617 -0.0010825942456577746 -0.0017083161513766617 -0.004104791407070457 0.0006910336022622771 -0.0010825942456577746 0.0006910336022622771 -0.0014284911160171428" free_energy=-3571.7552584258783 pbc="T T T"
Si      -3.20153355       5.77196349       7.62416212       0.64358673       0.55341302       0.18191121
Si       2.49201267       1.82995240       5.61619450      -0.59063643      -0.58721186      -0.24472917
Si       7.55144857       3.84369516      -0.19671311      -0.44645178       0.59131057      -0.65021580
Si      -0.67968789      -1.08100717       4.44296202       0.40914682      -0.56749834       0.69447282
Si       7.81940981      -1.57059258       2.93592631      -0.28396445      -0.78296447       0.24472917
Si      -0.94229166       4.32986082       1.30396671       0.23101416       0.81676331      -0.18191121
Si       2.38942787       4.10895716       4.29716280      -0.68700864       0.13219156      -0.69447282
Si      -3.09359126       3.48953898       8.93683793       0.72431361      -0.15600379       0.65021580
Si      -0.48143991       6.72536282       2.13836069       0.07164407      -0.00129867      -0.13472715
Si       1.77132274       6.74932814       4.02435704       0.09341236      -0.10405893      -0.06108873
Si       1.72982347       4.47885284       1.80738337      -0.17785100      -0.09808068       0.24047244
Si       2.42901811       7.16454547       0.95172458      -0.10672962       0.27973209       0.09714183
Si       1.97550083      -0.53002105       4.71576778      -0.13371512       0.04091941       0.06108873
Si       2.90221362      -2.58348577       6.60176413      -0.03134131       0.06443820       0.13472715
Si       2.07522421       0.24135685       7.78840024       0.29866676       0.02096246      -0.09714183
Si      -0.06646851      -1.52357101       6.93274145      -0.01408613      -0.20261387      -0.24047244
Si      -1.56312104       2.04281647       1.16899568       0.12774992      -0.32959984      -0.03691806
Si       3.59520347       3.80909937       6.32341833       0.08138089       0.19610900       0.28502184
Si      -1.45932639      -0.11355003       2.41670649       0.14361853       0.15638193      -0.28502184
Si      -5.01462426       4.24595462       7.75913315      -0.35274934      -0.02289109       0.03691806
Si       3.24226956       5.07943807      -0.00000000      -0.00000000       0.00000000       0.00000000
Si       3.60436251      -2.30071017       4.27606041       0.00000000      -0.00000000      -0.00000000
22
Lattice="10.609456305810655 0.44727753126470077 -0.23584199811277667 -4.061053451387069 9.811649461729509 0.23584199811279083 -3.472995787934879 -5.002570541698687 8.702231321636347" Properties=species:S:1:pos:R:3:forces:R:3 unique_starting_index=6 config_type=initial n_minim_iter=5 energy=-3571.839464772905 stress="-0.001036763744074079 0.002616854271072439 -0.003200914201489976 0.002616854271072439 0.0013925085332517153 0.0020431840207661848 -0.003200914201489976 0.0020431840207661848 -0.002707134129675139" free_energy=-3571.839464772905 pbc="T T T"
Si      -3.17294354       5.79686902       7.65056200       0.62493870       0.89985322       0.06332895
Si       2.45017869       1.88390862       5.55765780      -0.64240282      -0.88870565      -0.04261027
Si       7.59126729       3.94724308      -0.22420695      -0.43790056       0.59373824      -0.56988229
Si      -0.72339337      -1.11166618       4.42721802       0.33785585      -0.52987843       0.68857105
Si       7.81369925      -1.53969440       2.90873152      -0.53564076      -0.95685323       0.04261027
Si      -0.94012027       4.37162969       1.28751132       0.55310488       0.94570566      -0.06332895
Si       2.37162768       4.13217042       4.27501329      -0.62287071       0.08336549      -0.68857105
Si      -3.08868747       3.54496561       8.92643827       0.72291542      -0.14722529       0.56988229
Si      -0.43688779       6.78408177       2.14922978       0.02386420       0.03322171      -0.25581368
Si       1.78649667       6.79330118       4.01839671       0.19365418      -0.17206644      -0.00224080
Si       1.73351822       4.53435071       1.79004999      -0.10173818      -0.11538118       0.37380325
Si       2.48125308       7.21416283       0.97847053      -0.23330418       0.32924295       0.02367665
Si       1.93674292      -0.52203059       4.68383461      -0.23760500       0.10321174       0.00224080
Si       2.86446232      -2.54263944       6.55300154       0.02008662       0.03563299       0.25581368
Si       2.02598268       0.28534000       7.72376078       0.39686572      -0.07300246      -0.02367665
Si      -0.08993985      -1.52114062       6.91218133      -0.06182336      -0.14085931      -0.37380325
Si      -1.54727935       2.03782373       1.17069725       0.14361278      -0.28699024      -0.01579431
Si       3.58592448       3.88031098       6.30156436       0.07526970       0.14727478       0.27546706
Si      -1.46308238      -0.11627176       2.40066695       0.10189622       0.13027874      -0.27546706
Si      -5.03420493       4.26357243       7.76737606      -0.32077871       0.00943672       0.01579431
Si       3.27420143       5.12946350      -0.00000000      -0.00000000       0.00000000       0.00000000
Si       3.56823026      -2.27764650       4.23319466       0.00000000      -0.00000000      -0.00000000
22
Lattice="10.617989726313882 0.4034065824046203 -0.18623400035727694 -4.104439435208165 9.800919325325703 0.1862340003572911 -3.413754100697551 -5.001961301328222 8.733028791989021" Properties=species:S:1:pos:R:3:forces:R:3 unique_starting_index=6 config_type=initial n_minim_iter=6 energy=-3572.021981194959 stress="0.004655713855039332 0.0012510680714894731 0.0021122369850462767 0.0012510680714894731 0.005817102556400957 -0.001348267581059521 0.0021122369850462767 -0.001348267581059521 0.003857140759176625" free_energy=-3572.021981194959 pbc="T T T"
Si      -3.10775516       5.75548909       7.70113535       0.58810351       1.09695569      -0.10264312
Si       2.41597839       1.86708450       5.53005320      -0.58122990      -1.10134320       0.09448856
Si       7.61150481       3.97450105      -0.21234001      -0.83255979       0.38328506      -0.88141683
Si      -0.72722789      -1.18781835       4.45562295       0.81015013      -0.36898069       0.90800269
Si       7.88061290      -1.62106082       3.01674159      -0.75426908      -0.99089011      -0.09448856
Si      -0.98924375       4.40321647       1.21812744       0.74739548       0.99527762       0.10264312
Si       2.32855715       4.04263913       4.27740584      -0.67577171       0.57950202      -0.90800269
Si      -3.01324170       3.57540740       8.94536879       0.69818136      -0.59380639       0.88141683
Si      -0.43339630       6.79424755       2.12834694       0.01117156      -0.12115414      -0.30818257
Si       1.76362539       6.71865785       4.02092332       0.31148472      -0.08480145      -0.07460302
Si       1.69264657       4.53493358       1.76423519      -0.12559685      -0.26788756       0.51204880
Si       2.47972790       7.16379448       1.01323553      -0.27376107       0.52280278      -0.03826766
Si       1.93790835      -0.57359289       4.71210547      -0.20805965       0.24683030       0.07460302
Si       2.93145494      -2.53458327       6.60468185      -0.11459663      -0.04087472       0.30818257
Si       2.04017974       0.26335991       7.71979326       0.58946775      -0.02820710       0.03826765
Si      -0.01296183      -1.55735873       6.96879360      -0.19010982      -0.22670812      -0.51204880
Si      -1.53583084       2.01358715       1.14832584       0.05309418      -0.33127059       0.04287822
Si       3.59913405       3.85038404       6.35505233       0.17101243       0.18822050       0.22299221
Si      -1.43654746      -0.11628048       2.37797646       0.09872687       0.23436129      -0.22299221
Si      -5.04515310       4.25363194       7.77093695      -0.32283348      -0.09131120      -0.04287822
Si       3.25677514       5.10216296      -0.00000000       0.00000000      -0.00000000      -0.00000000
Si       3.60211781      -2.29927735       4.27339739       0.00000000      -0.00000000      -0.00000000
22
Lattice="10.639921917027653 0.3851332066335428 -0.1822588740339032 -4.130248171433046 9.813119587046295 0.18225887403391738 -3.4084651256412526 -5.0010635399611845 8.761347684062066" Properties=species:S:1:pos:R:3:forces:R:3 unique_starting_index=6 config_type=initial n_minim_iter=7 energy=-3572.3695532545357 stress="0.001989682304276337 9.464582740811919e-05 0.0027282418541956298 9.464582740811919e-05 0.0020775437105284536 -0.0017414712847728447 0.0027282418541956298 -0.0017414712847728447 0.0019292680049424393" free_energy=-3572.3695532545357 pbc="T T T"
Si      -3.05747640       5.79306847       7.75935391       0.10416801      -0.04243202       0.11251202
Si       2.35723866       1.83063208       5.51186691      -0.10574998       0.04344182      -0.11063523
Si       7.60839811       4.02920421      -0.25441554       0.08087039       0.20137797      -0.14018467
Si      -0.71425926      -1.25309028       4.51599325       0.00342244      -0.25518315       0.04018326
Si       7.89950019      -1.70706355       3.06722190       0.08392653      -0.07763110       0.11063523
Si      -0.99684521       4.47774152       1.18425265      -0.08234455       0.07662131      -0.11251202
Si       2.26530448       4.02174644       4.24535443      -0.23290552      -0.10433202      -0.04018326
Si      -2.95702609       3.59651817       9.01576322       0.14861269       0.15813720       0.14018467
Si      -0.43134618       6.81605787       2.11844265      -0.14635068       0.02798726      -0.29075419
Si       1.75761228       6.69082959       4.03093015       0.27475587      -0.10994992       0.13841977
Si       1.66195898       4.53960837       1.77158332      -0.12152878      -0.47840787       0.22431492
Si       2.47642115       7.17227114       1.04161785       0.06307342       0.51572067      -0.15496599
Si       1.92048724      -0.58986549       4.73041753      -0.21540719       0.20292736      -0.13841977
Si       2.95566389      -2.52264344       6.64290503       0.08700200      -0.12096470       0.29075419
Si       2.05454968       0.26482709       7.71972983       0.44123097       0.27433792       0.15496599
Si       0.00948742      -1.58232807       6.98976436      -0.38277561      -0.31165071      -0.22431492
Si      -1.52771128       1.98868648       1.14220582      -0.04065318      -0.05311471       0.03651327
Si       3.60433038       3.86251123       6.40361300       0.06663532       0.03652998      -0.00568917
Si      -1.42244623      -0.10556362       2.35773468       0.00508004       0.07582149       0.00568917
Si      -5.09167756       4.26361123       7.80140074      -0.03106219      -0.05923676      -0.03651327
Si       3.25483687       5.09912640      -0.00000000       0.00000000      -0.00000000      -0.00000000
Si       3.61572840      -2.30796516       4.28954440      -0.00000000      -0.00000000       0.00000000
22
Lattice="10.64374588744677 0.3843170242858027 -0.24134770139633732 -4.132598447248852 9.8162445041621 0.24134770139635173 -3.4590089237793036 -4.970425500668583 8.76501012048383" Properties=species:S:1:pos:R:3:forces:R:3 unique_starting_index=6 config_type=initial n_minim_iter=8 energy=-3572.450929705511 stress="0.0010275733841136247 0.00029558620929262693 -0.0014407757136342188 0.00029558620929262693 0.0013019713117891855 0.0009196653599300521 -0.0014407757136342188 0.0009196653599300521 0.0008388973272931687" free_energy=-3572.450929705511 pbc="T T T"
Si      -3.04321238       5.82304961       7.85028962       0.01154285      -0.03106719      -0.02663805
Si       2.26668486       1.85097238       5.45688590       0.03320189       0.00250606      -0.02644519
Si       7.62930467       4.10028534      -0.30728187       0.14113737       0.04901270       0.05999020
Si      -0.75705690      -1.30857336       4.54027799      -0.11365339      -0.06655607      -0.09259602
Si       7.90935475      -1.75081518       3.06677652      -0.01170542       0.03117096       0.02644519
Si      -1.02855020       4.53706526       1.15606820      -0.03303932      -0.00260983       0.02663805
Si       2.18392681       3.99251419       4.22473212      -0.01251991      -0.13111086       0.09259602
Si      -2.95189755       3.67604591       9.07229199      -0.01496407       0.14865423      -0.05999020
Si      -0.42827080       6.85428983       2.13118010      -0.16670030      -0.04016565      -0.33478206
Si       1.73011987       6.67143274       4.04890836       0.34866789      -0.07598657       0.11890351
Si       1.61948603       4.55552939       1.76758693      -0.07046464      -0.45232718       0.17459382
Si       2.48633843       7.18038023       1.08598522       0.07837323       0.44727903      -0.18397623
Si       1.86392424      -0.59233093       4.71610176      -0.21571882       0.28426861      -0.11890351
Si       2.93850372      -2.47311957       6.63383002       0.03375123      -0.16811640       0.33478206
Si       2.00718592       0.30787469       7.67902490       0.37270931       0.25940059       0.18397623
Si      -0.00873335      -1.58351223       6.99742318      -0.38061790      -0.25435244      -0.17459382
Si      -1.52006385       1.97017483       1.14649702       0.03076538      -0.10888613       0.08445330
Si       3.56505906       3.90283352       6.42368167       0.11166351       0.01797197       0.08451820
Si      -1.41988169      -0.09357039       2.34132845      -0.03071067       0.10885121      -0.08451820
Si      -5.16458237       4.29651709       7.85986080      -0.11171822      -0.01793705      -0.08445330
Si       3.25557372       5.10028077      -0.00000000       0.00000000      -0.00000000      -0.00000000
Si       3.59236848      -2.29305423       4.26183121       0.00000000      -0.00000000      -0.00000000
22
Lattice="10.619239619151479 0.38642497153261857 -0.1965115601053169 -4.120368880398737 9.794903503201162 0.19651156010533236 -3.4150774489439977 -4.984932802939689 8.743219207404428" Properties=species:S:1:pos:R:3:forces:R:3 unique_starting_index=6 config_type=initial n_minim_iter=9 energy=-3572.505710982072 stress="-0.00409149413274803 -6.515616671414626e-05 0.0006452732349128305 -6.515616671414626e-05 -0.0041519797648195125 -0.00041188606491082143 0.0006452732349128305 -0.00041188606491082143 -0.004049904289984882" free_energy=-3572.505710982072 pbc="T T T"
Si      -2.99023236       5.79496898       7.80755869      -0.14805654      -0.31004799       0.06066095
Si       2.27559523       1.82601288       5.44195567       0.13234398       0.32007752      -0.04202024
Si       7.61253626       4.10822551      -0.29428549       0.30108834      -0.00967793       0.17221120
Si      -0.73510375      -1.33335772       4.53689361      -0.22793307      -0.03701800      -0.25899949
Si       7.90238896      -1.76564072       3.10475197       0.23460822       0.25480095       0.04202024
Si      -1.02016524       4.53745022       1.13217207      -0.21889566      -0.26483048      -0.06066095
Si       2.18385822       3.96825187       4.20632559       0.06238633      -0.22233255       0.25899949
Si      -2.89370415       3.64967171       9.03750469      -0.13554161       0.26902849      -0.17221120
Si      -0.42417634       6.83476903       2.08792691      -0.16113630       0.10502981      -0.13653696
Si       1.76196988       6.64094031       4.03495400       0.11410310      -0.07500793       0.19233514
Si       1.61723783       4.51782040       1.76951084      -0.05938611      -0.35963840      -0.06710362
Si       2.49019290       7.18999449       1.06759116       0.23686006       0.24635454      -0.14344386
Si       1.86678808      -0.59078640       4.70826520      -0.11607546       0.07191796      -0.19233514
Si       2.96300496      -2.49213157       6.65529229       0.16310867      -0.10193985       0.13653696
Si       2.05821525       0.30091135       7.67562805       0.12373457       0.31856397       0.14344386
Si       0.00194061      -1.61593488       6.97370837      -0.30120852      -0.20528010       0.06710362
Si      -1.50889612       1.95367544       1.13417104       0.02823773      -0.07831749       0.05648988
Si       3.59057401       3.88238318       6.42018162       0.07496073       0.01244460       0.06594032
Si      -1.40524198      -0.09354422       2.32303758      -0.02027180       0.07323273      -0.06594032
Si      -5.12808895       4.26385199       7.80555972      -0.08292666      -0.00735985      -0.05648988
Si       3.24943537       5.09066424      -0.00000000      -0.00000000       0.00000000       0.00000000
Si       3.60208108      -2.29925391       4.27335382      -0.00000000       0.00000000      -0.00000000
22
Lattice="10.62445317396071 0.38175145373608255 -0.19935225934170817 -4.126803001717504 9.797664844396804 0.19935225934172357 -3.4168616375130267 -4.982448292988859 8.750128359012937" Properties=species:S:1:pos:R:3:forces:R:3 unique_starting_index=6 config_type=initial n_minim_iter=10 energy=-3572.534574274679 stress="-0.0012034872748833746 -0.00030134039509724316 0.0005091254984444906 -0.00030134039509724316 -0.001483226913870136 -0.00032498124389521523 0.0005091254984444906 -0.00032498124389521523 -0.001011138014923339" free_energy=-3572.534574274679 pbc="T T T"
Si      -2.99760524       5.79540366       7.81517147      -0.10314750      -0.12912920       0.01811420
Si       2.27632910       1.82847032       5.44556357       0.07315509       0.14827373       0.01746751
Si       7.61881990       4.10592199      -0.29465861       0.12790644      -0.01013428       0.04190202
Si      -0.73856836      -1.33419927       4.53726679      -0.06775160      -0.02826332      -0.11326715
Si       7.90773838      -1.76612945       3.10521252       0.10369261       0.12878125      -0.01746751
Si      -1.02488517       4.53619149       1.13430915      -0.07370020      -0.14792578      -0.01811420
Si       2.18154878       3.96532732       4.21286157       0.00288823      -0.07335361       0.11326715
Si      -2.90022326       3.65688599       9.04478696      -0.06304307       0.11175121      -0.04190202
Si      -0.43226610       6.83602858       2.08321850      -0.03402407       0.06833698      -0.04942184
Si       1.76648880       6.63926880       4.04245069       0.02051555      -0.05971432       0.06544776
Si       1.61351389       4.50534295       1.77456085      -0.04715787      -0.16481162      -0.06537586
Si       2.49145249       7.20135368       1.06401670       0.14350463       0.10331226      -0.04892581
Si       1.86158520      -0.58490673       4.70767766      -0.06280144      -0.00653204      -0.06544777
Si       2.96576917      -2.49645461       6.66690985       0.07630995      -0.00209062       0.04942184
Si       2.06620414       0.30932079       7.68611165       0.03329185       0.17366248       0.04892581
Si      -0.00959345      -1.62208140       6.97556750      -0.12963861      -0.11216312       0.06537586
Si      -1.51036309       1.95162411       1.13824943       0.02709757      -0.03395499       0.02202684
Si       3.59236200       3.88288395       6.42695795       0.02612176      -0.00001558       0.04111028
Si      -1.40732471      -0.08922707       2.32317041      -0.01101183       0.02368726      -0.04111028
Si      -5.13755031       4.26690359       7.81123119      -0.04220750       0.01028331      -0.02202684
Si       3.24882509       5.08970815      -0.00000000       0.00000000      -0.00000000       0.00000000
Si       3.60379577      -2.30034841       4.27538805      -0.00000000       0.00000000       0.00000000
22
Lattice="10.624073213774675 0.3879981756045439 -0.20528472987074026 -4.120976924927794 9.799950174369759 0.2052847298707557 -3.4245852737956275 -4.9835223867371905 8.746447071790154" Properties=species:S:1:pos:R:3:forces:R:3 unique_starting_index=6 config_type=initial n_minim_iter=11 energy=-3572.5419580796643 stress="0.00011017220973181232 0.0001620420019110596 1.69938052633467e-05 0.0001620420019110596 0.00026059866881193895 -1.0847357442988492e-05 1.69938052633467e-05 -1.0847357442988492e-05 6.738745627446629e-06" free_energy=-3572.5419580796643 pbc="T T T"
Si      -3.00064143       5.79663825       7.81572391      -0.04557459       0.04583088      -0.01674529
Si       2.27580251       1.83551409       5.44285461       0.00652284      -0.02090365       0.06307462
Si       7.62503139       4.11269782      -0.29637307       0.01343087      -0.01129628      -0.03272716
Si      -0.74427191      -1.33529512       4.53199543       0.02882130      -0.01567382      -0.01739900
Si       7.90624556      -1.75846892       3.09830772      -0.02170694      -0.00288423      -0.06307462
Si      -1.02438461       4.53516853       1.13600789       0.06075869      -0.02204300       0.01674529