24
Lattice="3.791025791568974 0.7376463716661562 7.10366895562362e-14 -0.020832789157618548 10.217601945183352 -5.1583770837471236e-14 -2.496967054958822e-13 6.378778316233125e-14 12.665059112903954" Properties=species:S:1:pos:R:3:forces:R:3 unique_starting_index=172 config_type=initial n_minim_iter=1 energy=-3916.36958760539 stress="-0.0001182403349771202 3.5722657287590655e-06 4.320989100481347e-15 3.5722657287590655e-06 -0.00013590439224984608 -2.224059698345893e-14 4.320989100481347e-15 -2.224059698345893e-14 -0.0001519190264411027" free_energy=-3916.36958760539 pbc="T T T"
Si       1.87343851      10.58964579       7.51965070       0.00162985      -0.00837637       0.00070336
Si       1.89578603       0.36425910       1.18712114      -0.00162985       0.00837637       0.00070337
Si       1.89578603       0.36425910       5.14439678      -0.00162985       0.00837637      -0.00070336
Si       1.87343851      10.58964579      11.47692634       0.00162985      -0.00837637      -0.00070337
Si       2.72513481       6.21247704      10.68545475       0.00031586      -0.00162331       0.00077214
Si       1.04408973       4.74142786       4.35292520      -0.00031586       0.00162331       0.00077214
Si       1.04408973       4.74142786       1.97859273      -0.00031586       0.00162331      -0.00077214
Si       2.72513481       6.21247704       8.31112229       0.00031586      -0.00162331      -0.00077214
Si       1.46840381       2.56072760       8.31112229       0.00031586      -0.00162331      -0.00077214
Si       2.30082073       8.39317729       1.97859273      -0.00031586       0.00162331      -0.00077214
Si       2.30082073       8.39317729       4.35292520      -0.00031586       0.00162331       0.00077214
Si       1.46840381       2.56072760      10.68545475       0.00031586      -0.00162331       0.00077214
Si       3.15100230       4.02379328       7.51965070       0.00162985      -0.00837637       0.00070337
Si       0.61822224       6.93011161       1.18712114      -0.00162985       0.00837637       0.00070337
Si       0.61822224       6.93011161       5.14439678      -0.00162985       0.00837637      -0.00070337
Si       3.15100230       4.02379328      11.47692634       0.00162985      -0.00837637      -0.00070337
Si       4.40773330       7.67554272       7.51965070       0.00162985      -0.00837637       0.00070336
Si      -0.63850876       3.27836217       1.18712114      -0.00162985       0.00837637       0.00070337
Si      -0.63850876       3.27836217       5.14439678      -0.00162985       0.00837637      -0.00070336
Si       4.40773330       7.67554272      11.47692634       0.00162985      -0.00837637      -0.00070337
Si       0.19084002       9.12658010      10.68545475       0.00031586      -0.00162331       0.00077214
Si       3.57838452       1.82732479       4.35292520      -0.00031586       0.00162331       0.00077214
Si       3.57838452       1.82732479       1.97859273      -0.00031586       0.00162331      -0.00077214
Si       0.19084002       9.12658010       8.31112229       0.00031586      -0.00162331      -0.00077214
