10
Lattice="7.293893940347451 0.8719955646054849 1.2289980020272302 -2.5370330985773446 5.249723541623859 -0.3702283880784097 -1.3304151485237525 -2.88076190527962 4.905548862641582" Properties=species:S:1:pos:R:3:forces:R:3 unique_starting_index=21 config_type=initial n_minim_iter=1 energy=-1624.6376025138397 stress="-0.0009771064644403154 0.00047466433541332214 -0.0011640996079797551 0.00047466433541332214 0.0029005794984066015 -0.0010595035185671606 -0.0011640996079797551 -0.0010595035185671606 -0.0003419850502056252" free_energy=-1624.6376025138397 pbc="T T T"
Si       3.34055463      -0.52796114       5.76566361       0.20697955       0.20724796       0.06266663
Si       0.37061122      -0.10117642       3.01014961      -0.20222129      -0.21016259      -0.06824661
Si       0.38680402       2.27570622       1.63610292       0.16441287      -0.79597259      -0.26722031
Si       2.24251958       5.14921172       1.71760975       0.53755132       0.36599237      -0.55596656
Si       2.34245743       1.29681972       2.80716358      -0.24270108       0.66827417       0.18031854
Si      -0.18406358       2.72086827       4.44418744      -0.38520796      -0.28365559       0.55602453
Si       4.10370335       4.12116180       2.80120971       0.13830011      -0.62325902       0.05481908
Si      -1.91752510      -0.12049283       4.41755881       0.19313050       0.42024495      -0.44348466
Si       1.08322570       0.15852989       5.29364272       0.08367472      -0.05125400      -0.09812456
Si       0.39636247       4.27495283       2.75373739      -0.49391875       0.30254434       0.57921392
10
Lattice="7.482798694187414 0.7713990071263663 1.4525530037766903 -2.6576207973452726 4.936738125709757 -0.3194979208484496 -1.201365554212981 -2.5729597276743377 4.844895209461341" Properties=species:S:1:pos:R:3:forces:R:3 unique_starting_index=21 config_type=initial n_minim_iter=2 energy=-1624.9693879471806 stress="-0.0020245786191986958 -0.0012380399977868367 0.004166499955779813 -0.0012380399977868367 -0.005975462042721752 -0.0011480670805406538 0.004166499955779813 -0.0011480670805406538 -0.0019996296599272003" free_energy=-1624.9693879471806 pbc="T T T"
Si       3.59705682      -0.37490254       5.89806602       0.09060709       0.17462280       0.37409895
Si       0.43750316      -0.05036148       3.03426937      -0.42150973       0.02806786       0.01394749
Si       0.43401810       2.08510294       1.68192721      -0.39547568      -0.25523994      -0.24520314
Si       2.34377669       4.87713552       1.85207492       0.43068216       0.23367460       0.20391682
Si       2.42972395       1.32438509       2.94312396       0.00818161       1.11773165       0.26929862
Si      -0.13872318       2.62719094       4.59780200      -0.72973026      -0.67575519       0.57685474
Si       4.24507466       3.82185975       3.03311403      -0.33297589      -0.44045103      -0.39861350
Si      -1.82316936       0.04953220       4.35430142       0.62694527       0.26038341       0.05387834
Si       1.25535634       0.25407569       5.35966844       0.22279987      -0.13647354      -0.26127533
Si       0.38173473       4.09804532       2.94809133       0.50047555      -0.30656063      -0.58690300
10
Lattice="7.575223821913172 0.7727978378359125 1.4677843570916902 -2.693594262914808 4.8935314384765425 -0.2647529424280502 -1.2189889729303813 -2.496922875797419 4.853002797164236" Properties=species:S:1:pos:R:3:forces:R:3 unique_starting_index=21 config_type=initial n_minim_iter=3 energy=-1625.0586869594677 stress="0.008806831044772217 0.001522822805064072 0.0026629301289395604 0.001522822805064072 0.002998980763425598 0.0022138450207709296 0.0026629301289395604 0.0022138450207709296 0.005865665160118445" free_energy=-1625.0586869594677 pbc="T T T"
Si       3.64700427      -0.30203982       5.94358039       0.13462397       0.31205915       0.39091796
Si       0.42741127      -0.02438265       3.05307495      -0.50907777      -0.08269172       0.04820051
Si       0.43836231       2.05400758       1.70332891      -0.35091265       0.10746880      -0.14497822
Si       2.39464341       4.86718302       1.90210454       0.17150150       0.00242747       0.35537200
Si       2.44751592       1.37781107       2.99021367       0.11006420       0.96913415       0.29115509
Si      -0.16870130       2.63924224       4.68862032      -0.70997745      -0.60166408       0.41235758
Si       4.29516795       3.79101909       3.09260408      -0.38468145      -0.38614975      -0.46641766
Si      -1.83500090       0.11494885       4.37355960       0.67468496       0.20851139       0.12633326
Si       1.27240381       0.30526077       5.39520614       0.14780470      -0.09053610      -0.17332919
Si       0.36884336       4.10232726       3.03129725       0.71596999      -0.43855931      -0.83961132
10
Lattice="7.537302348175673 0.695163247209498 1.4252868626840525 -2.731358830406967 4.706984482095333 -0.14880438667296345 -1.2244682817866472 -2.2838873725680306 4.787765931720585" Properties=species:S:1:pos:R:3:forces:R:3 unique_starting_index=21 config_type=initial n_minim_iter=4 energy=-1625.2948132206502 stress="-0.005152748611861119 0.0012123048068831592 -0.0050557479922858535 0.0012123048068831592 -0.009280256173400345 0.0058986897598385666 -0.0050557479922858535 0.0058986897598385666 -0.0073588398567552065" free_energy=-1625.2948132206502 pbc="T T T"
Si       3.62733125      -0.17920271       5.91038808       0.14052718       0.91765099       0.09938246
Si       0.36296867       0.01312057       3.02627881      -0.53182522      -0.67796581       0.35948909
Si       0.40657417       1.91712243       1.69037539      -0.46313469       0.68198717      -0.29274793
Si       2.39964720       4.70993245       1.93116257       0.07222860      -0.44254206       0.75115987
Si       2.38225255       1.45726931       3.02468928       0.43008707       1.07042905       0.51466367
Si      -0.29685128       2.57739420       4.79399108      -1.03300395      -0.70111915       0.19237132
Si       4.22529997       3.57532772       3.10452682      -0.47500891      -0.70114685      -0.33983362
Si      -1.81119827       0.25799407       4.32868962       0.73169118       0.54391903       0.03882471
Si       1.24719262       0.37511173       5.34545604       0.09057161      -0.05547862      -0.10621249
Si       0.28306151       3.99960088       3.12424020       1.03786712      -0.63573375      -1.21709709
10
Lattice="7.56648593384527 0.5733356783654608 1.4696147826801125 -2.8216423629398135 4.5714099423625205 -0.11078424768772166 -1.1718698952839275 -2.1252292233073287 4.793938811867647" Properties=species:S:1:pos:R:3:forces:R:3 unique_starting_index=21 config_type=initial n_minim_iter=5 energy=-1625.554538563678 stress="-0.009405177040877519 -0.0005826818905058065 -0.0035242037901055652 -0.0005826818905058065 -0.02233291728810335 0.008600890299467574 -0.0035242037901055652 0.008600890299467574 -0.012413245274307975" free_energy=-1625.554538563678 pbc="T T T"
Si       3.70760277      -0.11560440       5.99957416       0.06653014       1.55387342      -0.37089047
Si       0.31846951       0.01453551       3.04154858      -0.39399995      -1.35328549       0.75491126
Si       0.38084160       1.77029058       1.66737752      -0.20116899       1.38025276      -0.62540507
Si       2.43058056       4.55875042       1.95875824      -0.02659402      -1.24073910       0.89250063
Si       2.35371647       1.53620099       3.12659974       0.31589758       0.65783729       0.62066341
Si      -0.41962779       2.48719584       4.94807473      -0.90846397      -0.29486745       0.07423368
Si       4.19440140       3.32073352       3.14939715      -0.51106598      -0.54978630      -0.32763253
Si      -1.73613181       0.38158223       4.31057526       0.66370594       0.45628842       0.14863308
Si       1.29277481       0.39065347       5.36520511       0.03206743      -0.01964254      -0.03760518
Si       0.21273803       3.89526263       3.21205624       0.96309184      -0.58993100      -1.12940881
10
Lattice="7.504915304960628 0.5204665946533991 1.4213549883353631 -2.839650075759518 4.6497465135844 -0.1436866603096103 -1.1737919891567907 -2.191358017085814 4.85021272284498" Properties=species:S:1:pos:R:3:forces:R:3 unique_starting_index=21 config_type=initial n_minim_iter=6 energy=-1625.7553882875857 stress="-0.0074940248197742695 -0.0020142431259482793 -0.0019475923843557882 -0.0020142431259482793 -0.0036890161518862985 -0.0018676837807735122 -0.0019475923843557882 -0.0018676837807735122 -0.004661530441135417" free_energy=-1625.7553882875857 pbc="T T T"
Si       3.66598437      -0.16899189       6.02544552       0.26008883       0.97460217      -0.41186235
Si       0.26804988      -0.03358978       3.05716616      -0.15385405      -1.03967508       0.28728182
Si       0.34714109       1.74733393       1.62554121      -0.01890354       1.06641422      -0.22123840
Si       2.40609765       4.59406934       1.89434271      -0.28118244      -0.88259995       0.57314643
Si       2.29907359       1.57913183       3.14200400       0.22542598       0.01864981       0.63633440
Si      -0.51847768       2.44770178       4.99220691      -0.61243863       0.21841041      -0.18248827
Si       4.11267945       3.26451677       3.08026052      -0.39744773      -0.31575378      -0.04236078
Si      -1.71134022       0.38208755       4.32601049       0.28520236       0.38450842       0.17398988
Si       1.26308907       0.32989233       5.36679570       0.06394557      -0.03916914      -0.07498838
Si       0.16996715       3.90982279       3.17497176       0.62916366      -0.38538708      -0.73781435
10
Lattice="7.5981793234346435 0.5842116338194325 1.395670787879039 -2.8373031611198187 4.647896285549176 -0.06880110707828313 -1.237466072834049 -2.1519425260055085 4.847244968537409" Properties=species:S:1:pos:R:3:forces:R:3 unique_starting_index=21 config_type=initial n_minim_iter=7 energy=-1625.978902240826 stress="0.0010863862432210205 0.0017263915489141302 -0.0020695774536702545 0.0017263915489141302 0.010096059618485339 -0.002518579514272263 -0.0020695774536702545 -0.002518579514272263 0.0020066127849027384" free_energy=-1625.978902240826 pbc="T T T"
Si       3.69428058      -0.03681130       6.03517026       0.45719853       0.71042156      -0.39360051
Si       0.22275150      -0.03407037       3.07342758      -0.10553458      -0.92582932      -0.01879252
Si       0.34218589       1.78627313       1.63174102       0.29571014       0.74126180       0.27103416
Si       2.48042954       4.63309444       1.96810892      -0.64197206      -0.52916298       0.13502396
Si       2.32675847       1.68712789       3.21335659      -0.05768463      -0.38847394       0.50111527
Si      -0.60304268       2.49541985       5.07124274      -0.23854972       0.56992894      -0.15372402
Si       4.14646061       3.29860122       3.09097863      -0.01401198      -0.07061671       0.19996687
Si      -1.71294159       0.44916460       4.36124108      -0.13524288       0.16204108      -0.02493710
Si       1.26130533       0.39162769       5.37191142       0.06416233      -0.03930191      -0.07524257
Si       0.22498871       3.93635006       3.19111020       0.37592485      -0.23026851      -0.44084356
10
Lattice="7.785386326205862 0.6485426633418689 1.4491782657320638 -2.864875858744009 4.5776091823098115 0.016929011904125435 -1.2717417036722298 -2.04377092941599 4.834043807273611" Properties=species:S:1:pos:R:3:forces:R:3 unique_starting_index=21 config_type=initial n_minim_iter=8 energy=-1626.237742468372 stress="0.005060157472167016 0.0039282736689396055 -0.00650501626469934 0.0039282736689396055 0.01719957346711721 -0.0002633412919535114 -0.00650501626469934 -0.0002633412919535114 0.00487277621918684" free_energy=-1626.237742468372 pbc="T T T"
Si       3.81787781       0.14543436       6.07710731       0.46349784       0.57512412       0.17181913
Si       0.22502458      -0.02723746       3.10353111      -0.52914530      -0.53491251      -0.09483496
Si       0.36089242       1.87667334       1.69749705       0.45477660       0.11364119       0.62884764
Si       2.53862151       4.58741703       2.13861399      -0.71093998       0.04326879      -0.32844724
Si       2.42387754       1.73794553       3.33174271      -0.17406341      -0.55041822       0.40107550
Si      -0.62776904       2.57926144       5.14100577      -0.04935695       0.68727183      -0.13907253
Si       4.24653709       3.34288559       3.19079000       0.40354687      -0.21135765       0.02126882
Si      -1.71972539       0.52673741       4.42506965      -0.03409620      -0.01494517      -0.45452017
Si       1.31570858       0.49139310       5.41793699       0.06998005      -0.04286549      -0.08206495
Si       0.34948301       3.90600554       3.20833652       0.10580048      -0.06480689      -0.12407124
10
Lattice="8.110401675044601 0.6269315452233284 1.7012306709694651 -2.987691431266177 4.353522482961729 0.06563724350420347 -1.179956804128878 -1.8006767426653658 4.8217249563474125" Properties=species:S:1:pos:R:3:forces:R:3 unique_starting_index=21 config_type=initial n_minim_iter=9 energy=-1626.4888589874029 stress="0.0045729764961237864 -0.0014406375978991439 -0.0033816023917463897 -0.0014406375978991439 0.0056902020237257 0.0007202395439598331 -0.0033816023917463897 0.0007202395439598331 0.006161162278504722" free_energy=-1626.4888589874029 pbc="T T T"
Si       4.17026873       0.36966195       6.28204814       0.62500946       0.75067788       0.32564640
Si       0.27104438      -0.01871768       3.15988907      -0.78258052      -0.65415951      -0.14086430
Si       0.41387054       1.87858772       1.78859063       0.53926827      -0.12930243       0.13868427
Si       2.64783519       4.36431127       2.39519803      -0.20779932      -0.07373512      -0.52739481
Si       2.60555957       1.77343949       3.58925211      -0.44767743      -0.96467725       0.41514741
Si      -0.61875167       2.60443008       5.29305982       0.19781274       1.11772904      -0.12213343
Si       4.44496994       3.20218283       3.42323366       0.73480201       0.41055864      -0.03253142
Si      -1.61542270       0.65947629       4.47080572      -0.35560849      -0.64282933      -0.41214528
Si       1.52849694       0.59944667       5.53265772      -0.09024616       0.05527926       0.10583083
Si       0.51272294       3.74509346       3.28584580      -0.21298056       0.13045883       0.24976031
10
Lattice="8.216423596054923 0.6777058484610368 1.834978676817377 -2.9817173887948143 4.2843000259574895 0.037028789284086594 -1.126358324456124 -1.7679447596178117 4.780473269684173" Properties=species:S:1:pos:R:3:forces:R:3 unique_starting_index=21 config_type=initial n_minim_iter=10 energy=-1626.566808890288 stress="0.004806599646950454 0.0021356557728941777 0.003058499272431903 0.0021356557728941777 0.004568718506913887 -0.0006113418839632855 0.003058499272431903 -0.0006113418839632855 0.0028391843050790248" free_energy=-1626.566808890288 pbc="T T T"
Si       4.32358722       0.43241740       6.33290387       0.67487859       0.68013476       0.33274859
Si       0.31751511      -0.02257180       3.15442405      -0.77082179      -0.62136584      -0.22023689
Si       0.47038853       1.89778630       1.81708161       0.33810782      -0.39376334      -0.31149995
Si       2.71156431       4.32161039       2.46217055       0.34876955      -0.02697562      -0.49399474
Si       2.70368736       1.75816378       3.64197143      -0.10944502      -0.73715842       0.38244932
Si      -0.51808171       2.61365131       5.26529116       0.03207340       0.78455153      -0.29171634
Si       4.56851298       3.21947640       3.50826737       0.36534484       0.31359796      -0.03120659
Si      -1.56374958       0.65057288       4.43837657      -0.21274951      -0.40706850      -0.14774053
Si       1.63406922       0.62541954       5.54869492      -0.20434418       0.12516871       0.23963251
Si       0.61759109       3.70593451       3.28110598      -0.46181370       0.28287875       0.54156462
10
Lattice="8.239320077847832 0.6519880446710392 1.890263987134388 -3.002043593010799 4.21227426137959 0.03499025183060428 -1.0869928028725822 -1.7075813133294306 4.760184577305036" Properties=species:S:1:pos:R:3:forces:R:3 unique_starting_index=21 config_type=initial n_minim_iter=11 energy=-1626.677890061401 stress="-0.0004243433183461743 0.0011033348862588047 0.00540185394016986 0.0011033348862588047 -0.00874437293462788 0.0016248517627359372 0.00540185394016986 0.0016248517627359372 -0.0036772252577680926" free_energy=-1626.677890061401 pbc="T T T"
Si       4.40267766       0.46830456       6.37116212       0.54040308       0.62967172       0.10802820
Si       0.30958941      -0.02926660       3.14072226      -0.52002709      -0.64215280      -0.13192293
Si       0.49430912       1.85820957       1.81541363       0.25823002      -0.04968754      -0.49009663
Si       2.72665871       4.24111975       2.47434693       0.36960236      -0.33488408      -0.24615655
Si       2.71762696       1.73612283       3.68127813      -0.00627065      -0.61222966       0.29294228
Si      -0.50365010       2.60662097       5.27484961       0.02460467       0.60099936      -0.31444242
Si       4.60568191       3.15852706       3.54993732       0.09898001       0.38575983      -0.03579317
Si      -1.54034053       0.66272304       4.40780319      -0.16830683      -0.34329447       0.11709208
Si       1.67216757       0.63847459       5.55802270      -0.35466686       0.21724717       0.41591451
Si       0.61449803       3.65974454       3.31286363      -0.24254872       0.14857047       0.28443462
10
Lattice="8.173547145945703 0.6018734798379362 1.8432457048010593 -3.014564915059953 4.232332737298277 0.030943288626354926 -1.0890599239876313 -1.7187038035588764 4.781339271692037" Properties=species:S:1:pos:R:3:forces:R:3 unique_starting_index=21 config_type=initial n_minim_iter=12 energy=-1626.7770468865313 stress="-0.005037114595039831 -0.0014341491279401203 0.003610867217889513 -0.0014341491279401203 -0.008861821959846923 -0.000978111556640806 0.003610867217889513 -0.000978111556640806 -0.00480303993154563" free_energy=-1626.7770468865313 pbc="T T T"
Si       4.36650772       0.43530945       6.36579527       0.10007493       0.35461618       0.20531871
Si       0.27089087      -0.05320336       3.12846768      -0.36033934      -0.19519417       0.09989093
Si       0.49007250       1.84759306       1.80382703       0.14696040      -0.01071794      -0.42346029
Si       2.66412948       4.21461859       2.42134903       0.32577943      -0.27885349      -0.13091730
Si       2.66697058       1.67999120       3.66124668       0.08908667      -0.41687493       0.32627793
Si      -0.52810706       2.61835940       5.25881619      -0.11685303       0.43388289      -0.29371658
Si       4.55950459       3.14153288       3.52427299      -0.26390324       0.00699640      -0.39897496
Si      -1.57864864       0.64106478       4.40839320       0.40910749      -0.09593962       0.22869528
Si       1.61847990       0.61996451       5.56827223      -0.26409354       0.16176751       0.30970002
Si       0.54887367       3.66093483       3.31838062      -0.06581978       0.04031716       0.07718625
10
Lattice="8.237187796526637 0.5928041862630835 1.8200487266548513 -3.050045719182834 4.208288159912545 0.0954498588532271 -1.123676979679944 -1.6517215757943708 4.799035807629857" Properties=species:S:1:pos:R:3:forces:R:3 unique_starting_index=21 config_type=initial n_minim_iter=13 energy=-1626.866099083643 stress="-0.004728694506997127 -0.0016563687663124725 0.0008869126319352293 -0.0016563687663124725 -0.006097164365719211 -0.0007109616919354725 0.0008869126319352293 -0.0007109616919354725 -0.003626512082690041" free_energy=-1626.866099083643 pbc="T T T"
Si       4.41985723       0.53692440       6.41667952      -0.31361946       0.00436723       0.15409925
Si       0.19670684      -0.06636534       3.13055114      -0.04778546       0.21700726       0.26971692
Si       0.50421995       1.86015458       1.82083407       0.11134236      -0.03166769      -0.27303241
Si       2.66833171       4.17495230       2.45715586       0.21655282      -0.16918079      -0.11148721
Si       2.66824949       1.68886302       3.73853873       0.22673493      -0.40057794       0.16798350
Si      -0.60477486       2.68557925       5.32136580      -0.02668329       0.27803857      -0.40258220
Si       4.57792757       3.13342791       3.54638910      -0.39504411      -0.12374346      -0.47707125
Si      -1.60538147       0.68417292       4.44745580       0.56971683       0.01674966       0.27223417
Si       1.59104459       0.67461520       5.61471299      -0.27415222       0.16792884       0.32149575
Si       0.54016868       3.65833453       3.36575507      -0.06706241       0.04107832       0.07864347
10
Lattice="8.274454852737668 0.608279646336826 1.7874534858888707 -3.058878993919399 4.222488509455642 0.1367909697367834 -1.1628452350083498 -1.6365191315715881 4.813985643180347" Properties=species:S:1:pos:R:3:forces:R:3 unique_starting_index=21 config_type=initial n_minim_iter=14 energy=-1626.9155912822698 stress="0.00025009744844242486 0.000730244810299861 -0.0013312154729505832 0.000730244810299861 0.0019565742712910382 0.00031313269106656333 -0.0013312154729505832 0.00031313269106656333 6.515729199971885e-05" free_energy=-1626.9155912822698 pbc="T T T"
Si       4.42043163       0.58970087       6.43550456      -0.33171966      -0.14017260       0.11910019
Si       0.15508854      -0.06448750       3.13998297       0.05137846       0.31189242       0.20965332
Si       0.51349647       1.88248334       1.83057471       0.06834634      -0.10491007      -0.04767830
Si       2.67598270       4.18934738       2.46965440       0.06873861       0.02094023      -0.11307995
Si       2.67313265       1.69488266       3.76533032       0.27230886      -0.35221346       0.16844696
Si      -0.64236914       2.73789941       5.34404172      -0.06105500       0.22281230      -0.41618239
Si       4.58268567       3.16529108       3.54042654      -0.35884448      -0.17558034      -0.35287077
Si      -1.62652200       0.70064760       4.48373737       0.47701864       0.10319410       0.21428902
Si       1.55513720       0.71136654       5.64688379      -0.16991407       0.10407894       0.19925664
Si       0.53395765       3.68568533       3.39408364      -0.01625772       0.00995848       0.01906528
10
Lattice="8.357884545045646 0.5953336459532587 1.7939686808622275 -3.1031719010331384 4.221225114050508 0.1710713493724081 -1.179430087977115 -1.5979657534885683 4.85109604478004" Properties=species:S:1:pos:R:3:forces:R:3 unique_starting_index=21 config_type=initial n_minim_iter=15 energy=-1626.9679401558583 stress="0.006344125255931767 0.0031468094653651145 -0.001446256299672008 0.0031468094653651145 0.010258712237766606 0.0005177423751604451 -0.001446256299672008 0.0005177423751604451 0.0046088782144042845" free_energy=-1626.9679401558583 pbc="T T T"
Si       4.46273550       0.64580996       6.51217588      -0.13941714      -0.32694911      -0.02435118
Si       0.12001880      -0.05847534       3.17684218       0.20443169       0.28712518      -0.05189078
Si       0.53552162       1.90959047       1.85551528      -0.14189427      -0.31403881       0.16572403
Si       2.67576847       4.15864362       2.50582728       0.03727239       0.37812375      -0.04303493
Si       2.72195111       1.65660833       3.83589478       0.21616293      -0.25200355       0.18064440
Si      -0.67626168       2.80518895       5.36032619      -0.10077285       0.18132266      -0.31596127
Si       4.58965355       3.17397749       3.55295238      -0.21805500      -0.11556458      -0.00063103
Si      -1.62042150       0.72211421       4.56023878       0.11150553       0.18083026       0.12558061
Si       1.53129102       0.75924946       5.73585494       0.08256068      -0.05057161      -0.09681814
Si       0.53532915       3.68972693       3.43582075      -0.05179396       0.03172580       0.06073829
10
Lattice="8.284899975096153 0.5303776517402208 1.806529000416717 -3.1163243622529 4.218863743259126 0.12022084591035281 -1.131427599102872 -1.6169513725634075 4.86107824597614" Properties=species:S:1:pos:R:3:forces:R:3 unique_starting_index=21 config_type=initial n_minim_iter=16 energy=-1627.013788922707 stress="-0.00213750594197997 0.0014678097541156554 7.81089054997451e-05 0.0014678097541156554 -0.00011870943240579668 -0.00032030254255539006 7.81089054997451e-05 -0.00032030254255539006 -0.0028942816481985502" free_energy=-1627.013788922707 pbc="T T T"
Si       4.41116722       0.54279470       6.50011670       0.08135479      -0.19278496       0.00597864
Si       0.16527441      -0.05083743       3.18955044       0.05857500       0.10707255      -0.17007300
Si       0.51291998       1.87626819       1.83908992      -0.14735399      -0.19167189       0.16274033
Si       2.62464682       4.11704464       2.46940499      -0.01319796       0.29001617       0.02553744
Si       2.71706410       1.58256369       3.80496021      -0.09844302      -0.18965561       0.31219973
Si      -0.65370301       2.75874715       5.29750937      -0.15489064       0.34483227      -0.01511772
Si       4.51523446       3.11607746       3.52317140       0.01694872       0.03899127       0.04887339
Si      -1.58706685       0.69550594       4.56514764      -0.06366785      -0.01037400       0.00591369
Si       1.52926940       0.71086573       5.73484881       0.19035643      -0.11660067      -0.22322921
Si       0.49487024       3.65446976       3.41361539       0.13031851      -0.07982513      -0.15282330
10
Lattice="8.32030631811726 0.49331081399622373 1.8282982865843886 -3.155152717416392 4.207032412526759 0.12107475272801888 -1.1162921559913244 -1.5906072168058034 4.888008796057602" Properties=species:S:1:pos:R:3:forces:R:3 unique_starting_index=21 config_type=initial n_minim_iter=17 energy=-1627.0236483811736 stress="0.0005945371094907437 -0.0009613496961033908 0.00029879707753653856 -0.0009613496961033908 -0.001319996450571077 0.0003048089489908945 0.00029879707753653856 0.0003048089489908945 0.0009285878859718483" free_energy=-1627.0236483811736 pbc="T T T"
Si       4.44224997       0.53690765       6.54458856       0.05114567      -0.13286278       0.05841421
Si       0.17203501      -0.04789477       3.20866975      -0.00458713       0.10434388      -0.11301297
Si       0.50562315       1.87192509       1.85576011      -0.13217982      -0.16859952      -0.01482437
Si       2.61093479       4.08326220       2.49598192       0.12380164       0.17373148       0.02464937
Si       2.73116770       1.56343746       3.84482411      -0.14204062      -0.25074234       0.26296119
Si      -0.67131192       2.76464143       5.32504609      -0.07379898       0.38295245      -0.00984810
Si       4.51636479       3.08462747       3.55026379       0.05409783       0.09776871      -0.03966046
Si      -1.58475622       0.70946912       4.59731004      -0.02448755      -0.11590615       0.00493676
Si       1.54519927       0.71122613       5.77015286       0.14661327      -0.08980630      -0.17193201
Si       0.49030481       3.63176913       3.42827435       0.00143570      -0.00087942      -0.00168363
10
Lattice="8.288461857057946 0.45974405354363695 1.8087340630088549 -3.167772862826423 4.228221672261368 0.10918745247120543 -1.1121502178380402 -1.6066032466759008 4.9098384108593915" Properties=species:S:1:pos:R:3:forces:R:3 unique_starting_index=21 config_type=initial n_minim_iter=18 energy=-1627.0504060482026 stress="-0.00033379527315899695 -0.0005401724659038144 9.824848926857884e-05 -0.0005401724659038144 -0.0018786769730583285 0.00045896867700216367 9.824848926857884e-05 0.00045896867700216367 -0.00027408934968415656" free_energy=-1627.0504060482026 pbc="T T T"
Si       4.42451077       0.49639364       6.55309443      -0.09803486      -0.19003102       0.07722289
Si       0.15996468      -0.05565294       3.20490013       0.04553930       0.22218658      -0.01566184
Si       0.48417521       1.86104224       1.84835179      -0.03301160      -0.09956862       0.00564884
Si       2.58348671       4.08448196       2.47713540       0.04853926       0.09005732      -0.02385798
Si       2.70894877       1.51735215       3.86948849      -0.07314902      -0.06994804       0.05849524
Si      -0.70607762       2.79255931       5.31029913       0.00123242       0.11399974       0.02584068
Si       4.47819793       3.07407232       3.52522298      -0.05262471      -0.07269898      -0.09811270
Si      -1.58861090       0.69269137       4.61472119       0.13040380       0.02505628       0.00690190
Si       1.53626709       0.68343161       5.76551700      -0.04434421       0.02716255       0.05200205
Si       0.46444545       3.62780209       3.41680200       0.07544963      -0.04621582      -0.08847908
10
Lattice="8.178185726419832 0.3881876904250283 1.7448461976974272 -3.179908062494937 4.315701456634944 0.06037292734324595 -1.1061781880995571 -1.6903078510885017 4.965880427859495" Properties=species:S:1:pos:R:3:forces:R:3 unique_starting_index=21 config_type=initial n_minim_iter=19 energy=-1627.0780851573659 stress="-0.0014394601509310455 0.0015409355946561427 -0.0027579572941660436 0.0015409355946561427 -0.0036497909078542527 0.0036648842101558907 -0.0027579572941660436 0.0036648842101558907 -0.0034152332967444044" free_energy=-1627.0780851573659 pbc="T T T"
Si       4.31272220       0.34586260       6.54099518      -0.00909927      -0.16764213       0.16573203
Si       0.16352696      -0.05798037       3.21375305      -0.06417308       0.21252428      -0.07980623
Si       0.42488713       1.83981337       1.82269104       0.20540324      -0.02840845       0.16182284