16
Lattice="3.779508864652015 6.28837683167197e-22 1.0891788169602877e-21 -2.027835687695686e-21 12.18791933572177 -3.628836150091749e-13 -2.027835687698137e-21 -6.09395966786057 10.555047764010792" Properties=species:S:1:pos:R:3:forces:R:3 unique_starting_index=88 config_type=initial n_minim_iter=1 energy=-2603.138428500727 stress="0.00012244047970313648 -3.5952858513391986e-13 1.4137590486389706e-13 -3.5952858513391986e-13 -0.0002881044720062272 1.9115685469711312e-12 1.4137590486389706e-13 1.9115685469711312e-12 -0.0002881044743199662" free_energy=-2603.138428500727 pbc="T T T"
Si       0.80080025       3.34696169       3.54159477       0.00024205      -0.00891458      -0.07132605
Si       0.80080025       7.48758986       5.88569653       0.00024205      -0.05731288       0.04338328
Si       0.80080025       7.44732744       1.12775647       0.00024205       0.06622746       0.02794278
Si      -1.03407449      10.80401582       0.24859608      -0.04107062       0.07759309       0.01444987
Si      -1.03407449       0.90724227       1.07419756      -0.04107062      -0.02628259      -0.07442252
Si      -1.03407449       6.57062090       9.23225413      -0.04107062      -0.05131050       0.05997265
Si       0.84666159       2.10804353       1.59563360      -0.03820688       0.06424529       0.00206888
Si       0.84666159       6.42179713       7.93161172      -0.03820688      -0.03033094      -0.05667249
Si       0.84666159       9.75203834       1.02780245      -0.03820688      -0.03391435       0.05460361
Si       2.69245413       6.89409401       2.40842104      -0.01831207      -0.00633466      -0.10551776
Si       2.69245413       4.73266646       3.38037670      -0.01831207      -0.08821373       0.05824486
Si       2.69245413       6.65511853       4.76625003      -0.01831207       0.09454839       0.04727290
Si       4.53187919      -1.34180122       4.41231391      -0.00940660       0.02752035       0.02415441
Si       4.53187919      -1.60188313       9.51092475      -0.00940660       0.00715815      -0.03591053
Si       4.53187919       2.94368433       7.18685687      -0.00940660      -0.03467851       0.01175612
Si       2.58943613      -0.00000000       7.03669851       0.32026235       0.00000000      -0.00000000
16
Lattice="3.778442139985077 6.271118219865267e-22 1.08618953770855e-21 -2.034175011797851e-21 12.196017322304476 -3.633936607604723e-13 -2.034175011800321e-21 -6.098008661151921 10.56206082611092" Properties=species:S:1:pos:R:3:forces:R:3 unique_starting_index=88 config_type=initial n_minim_iter=2 energy=-2603.13899779698 stress="9.689838488193361e-05 -3.4296171709146866e-13 3.2931009659576095e-13 -3.4296171709146866e-13 0.0013712142525253734 3.0328480758504556e-12 3.2931009659576095e-13 3.0328480758504556e-12 0.0013712142655874075" free_energy=-2603.13899779698 pbc="T T T"
Si       0.80057538       3.34914320       3.54360948      -0.00088539      -0.01756532      -0.09933883
Si       0.80057538       7.49229288       5.88981299      -0.00088539      -0.07724729       0.06488143
Si       0.80057538       7.45258989       1.12863836      -0.00088539       0.09481261       0.03445740
Si      -1.03397732      10.81156247       0.24882981      -0.04167378       0.06437965       0.01477672
Si      -1.03397732       0.90772036       1.07455817      -0.04167378      -0.01939281      -0.06314277
Si      -1.03397732       6.57474315       9.23867285      -0.04167378      -0.04498684       0.04836606
Si       0.84624152       2.10974900       1.59670360      -0.03830103       0.04608736       0.02132667
Si       0.84624152       6.42592003       7.93661280      -0.03830103      -0.00457425      -0.05057616
Si       0.84624152       9.75835694       1.02874443      -0.03830103      -0.04151312       0.02924949
Si       2.69160741       6.89864458       2.40952060      -0.01672543      -0.01920884      -0.09400213
Si       2.69160741       4.73539242       3.38289907      -0.01672543      -0.07180381       0.06363641
Si       2.69160741       6.65998898       4.76964116      -0.01672543       0.09101266       0.03036572
Si       4.53055553      -1.34256217       4.41536018      -0.00632210       0.01800523      -0.05867261
Si       4.53055553      -1.60291350       9.51707368      -0.00632210      -0.05981458       0.01374331
Si       4.53055553       2.94547566       7.19168780      -0.00632210       0.04180935       0.04492929
Si       2.59022343      -0.00000000       7.04137388       0.31172320       0.00000000      -0.00000000
16
Lattice="3.761334480894019 6.254621853287459e-22 1.083332283203283e-21 -2.0294201393098785e-21 12.190616954299301 -4.0392804372567876e-13 -2.02942013931245e-21 -6.095308477149295 10.557383970228674" Properties=species:S:1:pos:R:3:forces:R:3 unique_starting_index=88 config_type=initial n_minim_iter=3 energy=-2603.143925862659 stress="-0.003802702228044329 4.4434295391583075e-13 3.507661002308195e-13 4.4434295391583075e-13 -0.0005825341564284224 -3.772111125040051e-12 3.507661002308195e-13 -3.772111125040051e-12 -0.0005825341449749599" free_energy=-2603.143925862659 pbc="T T T"
Si       0.79695366       3.34683026       3.53598911      -0.02116206      -0.05207264      -0.02610232
Si       0.79695366       7.48414973       5.89094939      -0.02116206       0.00343105       0.05814739
Si       0.79695366       7.45494542       1.13044548      -0.02116206       0.04864159      -0.03204507
Si      -1.03254118      10.81273336       0.24986907      -0.03611985       0.01114833       0.01435720
Si      -1.03254118       0.90533475       1.06834766      -0.03611985       0.00685953      -0.01683333
Si      -1.03254118       6.56785731       9.23916725      -0.03611985      -0.01800786       0.00247614
Si       0.83939751       2.11364487       1.59643587      -0.03454925      -0.01024500      -0.05990660
Si       0.83939751       6.42104005       7.92869588      -0.03454925      -0.04675814       0.03882573
Si       0.83939751       9.75124049       1.03225222      -0.03454925       0.05700314       0.02108087
Si       2.67799997       6.89490392       2.40025888       0.00041574      -0.09912377       0.10872596
Si       2.67799997       4.72654168       3.38609258       0.00041574       0.14372133       0.03148072
Si       2.67799997       6.66447983       4.77103252       0.00041574      -0.04459756      -0.14020668
Si       4.50934502      -1.33992350       4.41413424       0.03990626       0.04071777       0.02947979
Si       4.50934502      -1.60259435       9.51072464       0.03990626       0.00517136      -0.05000252
Si       4.50934502       2.94251784       7.18990907       0.03990626      -0.04588913       0.02052273
Si       2.60361463      -0.00000000       7.03825598       0.15452747      -0.00000000      -0.00000000
16
Lattice="3.773320887228947 6.278029064817435e-22 1.0873865311666422e-21 -2.0280629264727638e-21 12.189184198453555 -4.1870566042345255e-13 -2.028062926475384e-21 -6.09459209922641 10.556143167268848" Properties=species:S:1:pos:R:3:forces:R:3 unique_starting_index=88 config_type=initial n_minim_iter=4 energy=-2603.1475998264873 stress="-0.0005661235351878256 -1.119389327001107e-13 1.2498404012667773e-13 -1.119389327001107e-13 -0.00045209771082835564 -6.09872538071089e-12 1.2498404012667773e-13 -6.09872538071089e-12 -0.0004520977107749642" free_energy=-2603.1475998264873 pbc="T T T"
Si       0.79943732       3.34596956       3.53314244      -0.02719382      -0.01659424       0.02401542
Si       0.79943732       7.48139842       5.89187730      -0.02719382       0.02909508       0.00236333
Si       0.79943732       7.45640830       1.13112342      -0.02719382      -0.01250084      -0.02637874
Si      -1.03718558      10.81378189       0.25032230      -0.03480864      -0.09267337       0.06096502
Si      -1.03718558       0.90448662       1.06597219      -0.03480864       0.09913394       0.04977498
Si      -1.03718558       6.56550778       9.23984868      -0.03480864      -0.00646057      -0.11074000
Si       0.84081337       2.11521859       1.59627433      -0.03637229      -0.07393716      -0.12823624
Si       0.84081337       6.41939692       7.92617297      -0.03637229      -0.07408726       0.12814958
Si       0.84081337       9.74916078       1.03369587      -0.03637229       0.14802442       0.00008666
Si       2.68598611       6.89355227       2.39711295       0.00675014      -0.08751834       0.12815197
Si       2.68598611       4.72377667       3.38759530       0.00675014       0.15474203       0.01171712
Si       2.68598611       6.66644734       4.77143491       0.00675014      -0.06722369      -0.13986909
Si       4.52355362      -1.33887590       4.41390399       0.05858852       0.01641309       0.02156145
Si       4.52355362      -1.60260117       9.50869171       0.05858852       0.01046622      -0.02499488
Si       4.52355362       2.94147706       7.18969063       0.05858852      -0.02687931       0.00343343
Si       2.62204733      -0.00000000       7.03742878       0.09910828       0.00000000       0.00000000
16
Lattice="3.781358546532303 6.284993993693377e-22 1.088592892235058e-21 -2.030625716924587e-21 12.192177139879298 -4.1186315791736234e-13 -2.0306257169271887e-21 -6.0960885699392895 10.558735130575581" Properties=species:S:1:pos:R:3:forces:R:3 unique_starting_index=88 config_type=initial n_minim_iter=5 energy=-2603.15109458643 stress="0.001111403671451992 -5.217010689028309e-13 1.6353230838145004e-13 -5.217010689028309e-13 0.0006675468869272918 9.322960371870162e-12 1.6353230838145004e-13 9.322960371870162e-12 0.0006675468884702677" free_energy=-2603.15109458643 pbc="T T T"
Si       0.80038208       3.34652948       3.53543639      -0.01026618       0.00537617      -0.02376853
Si       0.80038208       7.48460155       5.89283739      -0.01026618      -0.02327224       0.00722836
Si       0.80038208       7.45713467       1.13046135      -0.01026618       0.01789607       0.01654017
Si      -1.03990260      10.81270274       0.25204571      -0.04069714      -0.02241770       0.03525468
Si      -1.03990260       0.90801518       1.06863702      -0.04069714       0.04174030       0.00178696
Si      -1.03990260       6.56754778       9.23805240      -0.04069714      -0.01932260      -0.03704164
Si       0.84201623       2.11276938       1.59304736      -0.03242612      -0.01619404      -0.05241481
Si       0.84201623       6.41932335       7.93249950      -0.03242612      -0.03729554       0.04023185
Si       0.84201623       9.75617297       1.03318828      -0.03242612       0.05348958       0.01218296
Si       2.69210770       6.89294650       2.40234602      -0.00555627      -0.01240583      -0.00793796
Si       2.69210770       4.73010800       3.38809534      -0.00555627      -0.00067156       0.01471274
Si       2.69210770       6.66521121       4.76829377      -0.00555627       0.01307739      -0.00677479
Si       4.53493853      -1.33918571       4.41488119       0.04998820       0.00510969      -0.02635834
Si       4.53493853      -1.60309646       9.51106338       0.04998820      -0.02538183       0.00875405
Si       4.53493853       2.94228216       7.19152569       0.04998820       0.02027215       0.01760429
Si       2.62674688      -0.00000000       7.03915675       0.11687254      -0.00000000      -0.00000000
16
Lattice="3.7771735281596417 6.28699787573447e-22 1.088939974785852e-21 -2.027048669107124e-21 12.188053248377225 -4.519133221500516e-13 -2.0270486691098297e-21 -6.094026624188219 10.555163735772354" Properties=species:S:1:pos:R:3:forces:R:3 unique_starting_index=88 config_type=initial n_minim_iter=6 energy=-2603.155882866327 stress="-0.00010987415249084673 -1.8104298104175843e-13 1.0425244383926077e-13 -1.8104298104175843e-13 -0.00013715587101711257 1.616417232889746e-12 1.0425244383926077e-13 1.616417232889746e-12 -0.00013715588453292032" free_energy=-2603.155882866327 pbc="T T T"
Si       0.79769306       3.34370187       3.52809487      -0.00176043       0.01130719      -0.00501673
Si       0.79769306       7.47759547       5.89538554      -0.00176043      -0.00999821      -0.00728395
Si       0.79769306       7.46078253       1.13168333      -0.00176043      -0.00130898       0.01230068
Si      -1.04564115      10.81012235       0.25740693      -0.04240324       0.02957252      -0.00879307
Si      -1.04564115       0.91188638       1.06461970      -0.04240324      -0.02240129      -0.02121402
Si      -1.04564115       6.56007113       9.23313711      -0.04240324      -0.00717124       0.03000709
Si       0.83476829       2.11291836       1.58447769      -0.02089727       0.01952375      -0.01887561
Si       0.83476829       6.40976537       7.93308391      -0.02089727      -0.02610863      -0.00747026
Si       0.83476829       9.75939613       1.03760213      -0.02089727       0.00658488       0.02634587
Si       2.68774980       6.88485666       2.39946920      -0.00756547       0.04014231      -0.01478659
Si       2.68774980       4.72959958       3.39296837      -0.00756547      -0.03287671      -0.02737097
Si       2.68774980       6.66762363       4.76272617      -0.00756547      -0.00726560       0.04215755
Si       4.53441251      -1.33538580       4.41440576       0.09621228       0.00957201       0.01279881
Si       4.53441251      -1.60334620       9.50443888       0.09621228       0.00629809      -0.01468901
Si       4.53441251       2.93873199       7.19148284       0.09621228      -0.01587010       0.00189020
Si       2.65952199      -0.00000000       7.03677582      -0.07075761       0.00000000      -0.00000000
16
Lattice="3.7790435720814055 6.298547964194804e-22 1.0909405087904128e-21 -2.023680522339843e-21 12.184169645713913 -4.9264830147953e-13 -2.023680522342664e-21 -6.092084822856529 10.551800437207735" Properties=species:S:1:pos:R:3:forces:R:3 unique_starting_index=88 config_type=initial n_minim_iter=7 energy=-2603.1619997620983 stress="0.00017456344998601248 -2.4869348729286644e-14 -7.197054034557496e-14 -2.4869348729286644e-14 0.0013149405256635972 -1.973902809645548e-12 -7.197054034557496e-14 -1.973902809645548e-12 0.0013149405415749389" free_energy=-2603.1619997620983 pbc="T T T"
Si       0.79547629       3.34363817       3.51970201       0.02235757      -0.05752882      -0.03644026
Si       0.79547629       7.46841709       5.89627383       0.02235757      -0.00279378       0.06804155
Si       0.79547629       7.46419920       1.13582459       0.02235757       0.06032260      -0.03160129
Si      -1.06369444      10.81268406       0.26173933      -0.00349203      -0.06367777       0.00859248
Si      -1.06369444       0.91241570       1.05687169      -0.00349203       0.03928019       0.05085032
Si      -1.06369444       6.55115470       9.23318942      -0.00349203       0.02439757      -0.05944281
Si       0.82339916       2.11605086       1.56976709      -0.03560694      -0.00685015       0.05637240
Si       0.82339916       6.39351756       7.93436309      -0.03560694       0.05224500      -0.02225380
Si       0.82339916       9.76668604       1.04767027      -0.03560694      -0.04539485      -0.03411860
Si       2.68603895       6.88548804       2.39487276      -0.00829909      -0.01337015       0.05987651
Si       2.68603895       4.72336144       3.39135649      -0.00829909       0.05853966      -0.01835936
Si       2.68603895       6.66740497       4.76557119      -0.00829909      -0.04516950      -0.04151715
Si       4.56528526      -1.32954878       4.41545537       0.03270244       0.00790727      -0.07133887
Si       4.56528526      -1.60341392       9.49549577       0.03270244      -0.06573491       0.02882154
Si       4.56528526       2.93296269       7.19264974       0.03270244       0.05782764       0.04251734
Si       2.67986904      -0.00000000       7.03453363      -0.02298587      -0.00000000      -0.00000000
16
Lattice="3.779288307785973 6.312476510420467e-22 1.093353003764259e-21 -2.0183018401049557e-21 12.178051854759312 -4.918026076942121e-13 -2.0183018401077705e-21 -6.08902592737923 10.546502274826013" Properties=species:S:1:pos:R:3:forces:R:3 unique_starting_index=88 config_type=initial n_minim_iter=8 energy=-2603.1630702739085 stress="1.8697204690572442e-05 2.6405319377982285e-15 2.875500644864066e-14 2.6405319377982285e-15 0.00013164287257425115 -4.0208805558429585e-13 2.875500644864066e-14 -4.0208805558429585e-13 0.00013164287328835166" free_energy=-2603.1630702739085 pbc="T T T"
Si       0.79548475       3.34142081       3.51747256       0.02261796      -0.04461809      -0.01885935
Si       0.79548475       7.46453611       5.89401068       0.02261796       0.00597637       0.04807008
Si       0.79548475       7.46112085       1.13501903       0.02261796       0.03864172      -0.02921073
Si      -1.06575046      10.80648707       0.26223365      -0.00520115      -0.03418680      -0.00112526
Si      -1.06575046       0.91288339       1.05669312      -0.00520115       0.01611890       0.03016927
Si      -1.06575046       6.54770731       9.22757551      -0.00520115       0.01806790      -0.02904401
Si       0.82172013       2.11493685       1.56754363      -0.02949252       0.01255330       0.05422429
Si       0.82172013       6.38909010       7.93114142      -0.02949252       0.04068296      -0.03798362
Si       0.82172013       9.76305083       1.04781723      -0.02949252      -0.05323626      -0.01624067
Si       2.68585545       6.88229573       2.39501367      -0.00612898       0.00265484       0.03342405
Si       2.68585545       4.72202074       3.38875250      -0.00612898       0.02761866      -0.01901119
Si       2.68585545       6.66276130       4.76273611      -0.00612898      -0.03027350      -0.01441287
Si       4.56987262      -1.32817524       4.41333951       0.01680213       0.01440190      -0.01390628
Si       4.56987262      -1.60287418       9.49006602       0.01680213      -0.01924414      -0.00551927
Si       4.56987262       2.93104941       7.18959902       0.01680213       0.00484225       0.01942555
Si       2.67952745      -0.00000000       7.03100152       0.00420771      -0.00000000      -0.00000000
16
Lattice="3.7790446416686176 6.316971656590784e-22 1.0941315859197065e-21 -2.016383093984036e-21 12.176018337397812 -4.965499732105927e-13 -2.0163830939868803e-21 -6.088009168698474 10.544741197131918" Properties=species:S:1:pos:R:3:forces:R:3 unique_starting_index=88 config_type=initial n_minim_iter=9 energy=-2603.1636732658485 stress="-2.859902916991185e-05 1.8292132315536035e-13 1.1336015149023257e-13 1.8292132315536035e-13 -0.00037883784219103987 5.19620759866408e-12 1.1336015149023257e-13 5.19620759866408e-12 -0.0003788378376233592" free_energy=-2603.1636732658485 pbc="T T T"
Si       0.79572030       3.33978475       3.51592688       0.01693079      -0.02325457      -0.00205583
Si       0.79572030       7.46299879       5.89443932       0.01693079       0.00984688       0.02116697
Si       0.79572030       7.46124397       1.13437500       0.01693079       0.01340769      -0.01911114
Si      -1.06770734      10.80399376       0.26271075      -0.01054857      -0.01285896      -0.00876745
Si      -1.06770734       0.91352647       1.05685276      -0.01054857      -0.00116336       0.01551991
Si      -1.06770734       6.54650727       9.22517769      -0.01054857       0.01402232      -0.00675246
Si       0.81960012       2.11504616       1.56687072      -0.01909684       0.01311475       0.04306789
Si       0.81960012       6.38743594       7.92962213      -0.01909684       0.03074051      -0.03289166
Si       0.81960012       9.76154540       1.04824834      -0.01909684      -0.04385526      -0.01017623
Si       2.68522649       6.88148679       2.39568146       0.00087828       0.01222847       0.01358231
Si       2.68522649       4.72198677       3.38735809       0.00087828       0.00564839      -0.01738132
Si       2.68522649       6.66055393       4.76170165       0.00087828      -0.01787686       0.00379901
Si       4.57349654      -1.32701004       4.41264333       0.00504955       0.01494309       0.00904388
Si       4.57349654      -1.60304293       9.48764393       0.00504955       0.00036068      -0.01746304
Si       4.57349654       2.93005296       7.18919513       0.00504955      -0.01530378       0.00841916
Si       2.68038377      -0.00000000       7.02982747       0.02036039       0.00000000       0.00000000
16
Lattice="3.778280818122315 6.313987582390973e-22 1.0936147291069462e-21 -2.0171036545554714e-21 12.177026534409643 -5.039730171690046e-13 -2.0171036545583633e-21 -6.088513267204381 10.545614321356185" Properties=species:S:1:pos:R:3:forces:R:3 unique_starting_index=88 config_type=initial n_minim_iter=10 energy=-2603.1641330169796 stress="-3.739180389679722e-05 -1.5115900072756612e-13 -2.4810839728330433e-13 -1.5115900072756612e-13 -0.0004322063686837843 -4.986881174842575e-12 -2.4810839728330433e-13 -4.986881174842575e-12 -0.0004322063689001359" free_energy=-2603.1641330169796 pbc="T T T"
Si       0.79612663       3.33865227       3.51500943       0.00764223       0.00333103       0.01409935
Si       0.79612663       7.46327458       5.89675192       0.00764223       0.01054488      -0.00993443
Si       0.79612663       7.46361293       1.13385297       0.00764223      -0.01387591      -0.00416492
Si      -1.06969441      10.80425046       0.26304332      -0.01684581       0.00255318      -0.01437471
Si      -1.06969441       0.91419023       1.05733729      -0.01684581      -0.01372546       0.00497624
Si      -1.06969441       6.54709910       9.22523371      -0.01684581       0.01117228       0.00939847
Si       0.81710743       2.11598996       1.56753880      -0.00730592       0.00061962       0.02422521
Si       0.81710743       6.38804671       7.92934385      -0.00730592       0.02066984      -0.01264921
Si       0.81710743       9.76150312       1.04873166      -0.00730592      -0.02128946      -0.01157600
Si       2.68426528       6.88258668       2.39677191       0.01060261       0.01530469       0.00068485
Si       2.68426528       4.72288528       3.38673345       0.01060261      -0.00705925      -0.01359667
Si       2.68426528       6.66006783       4.76210896       0.01060261      -0.00824544       0.01291182
Si       4.57622449      -1.32594545       4.41289844      -0.00349954       0.01051631       0.00990391
Si       4.57622449      -1.60385840       9.48746754      -0.00349954       0.00331888      -0.01405935
Si       4.57622449       2.92980384       7.19086267      -0.00349954      -0.01383519       0.00415544
Si       2.68202858      -0.00000000       7.03040955       0.02821925       0.00000000       0.00000000
16
Lattice="3.777634588509003 6.307798489902087e-22 1.0925427468426002e-21 -2.019168632345494e-21 12.179523047021593 -5.139866630919993e-13 -2.0191686323484407e-21 -6.089761523510346 10.547776364699008" Properties=species:S:1:pos:R:3:forces:R:3 unique_starting_index=88 config_type=initial n_minim_iter=11 energy=-2603.164350049111 stress="-1.6930495491397758e-05 1.2397153426451952e-13 3.289728146577289e-14 1.2397153426451952e-13 -0.00017453954343212802 7.928031469416941e-13 3.289728146577289e-14 7.928031469416941e-13 -0.00017453952878868347" free_energy=-2603.164350049111 pbc="T T T"
Si       0.79645407       3.33860751       3.51518216       0.00234315       0.01715708       0.01953817
Si       0.79645407       7.46469481       5.89886636       0.00234315       0.00834201      -0.02462756
Si       0.79645407       7.46598223       1.13372784       0.00234315      -0.02549909       0.00508938
Si      -1.07083574      10.80618968       0.26297573      -0.01842320       0.00555947      -0.01502304
Si      -1.07083574       0.91441034       1.05785372      -0.01842320      -0.01579007       0.00269687
Si      -1.07083574       6.54868454       9.22694692      -0.01842320       0.01023060       0.01232617
Si       0.81568565       2.11682371       1.56883651      -0.00295900      -0.01164099       0.01142424
Si       0.81568565       6.39000194       7.93013500      -0.00295900       0.01571417       0.00436927
Si       0.81568565       9.76245892       1.04880486      -0.00295900      -0.00407319      -0.01579351
Si       2.68378734       6.88445822       2.39762854       0.01548432       0.01189334      -0.00039572
Si       2.68378734       4.72393963       3.38684638       0.01548432      -0.00628937      -0.01010207
Si       2.68378734       6.66088671       4.76330145       0.01548432      -0.00560396       0.01049779
Si       4.57695588      -1.32547796       4.41354388      -0.00489244       0.00445501      -0.00154349
Si       4.57695588      -1.60478143       9.48890201      -0.00489244      -0.00356420      -0.00308641
Si       4.57695588       2.93025938       7.19310684      -0.00489244      -0.00089081       0.00462990
Si       2.68351215      -0.00000000       7.03185091       0.02534153      -0.00000000       0.00000000
16
Lattice="3.776691381725841 6.295047434072003e-22 1.090334199187819e-21 -2.0236450422961445e-21 12.184749708691193 -5.287400295537372e-13 -2.0236450422991696e-21 -6.092374854345132 10.552302786481883" Properties=species:S:1:pos:R:3:forces:R:3 unique_starting_index=88 config_type=initial n_minim_iter=12 energy=-2603.1645819265177 stress="3.1980608721956876e-05 1.8572224380206555e-13 6.86442886020004e-14 1.8572224380206555e-13 0.00039087699326681587 -5.132454962172262e-12 6.86442886020004e-14 -5.132454962172262e-12 0.000390876993697263" free_energy=-2603.1645819265177 pbc="T T T"
Si       0.79710782       3.33956890       3.51661432      -0.00136949       0.02875221       0.01853715
Si       0.79710782       7.46806774       5.90184412      -0.00136949       0.00167754      -0.03416872
Si       0.79710782       7.46948792       1.13384435      -0.00136949      -0.03042975       0.01563157
Si      -1.07293782      10.81052075       0.26223868      -0.01425051       0.00267631      -0.01130745
Si      -1.07293782       0.91421984       1.05899785      -0.01425051      -0.01113069       0.00333598
Si      -1.07293782       6.55238397       9.23106626      -0.01425051       0.00845439       0.00797147
Si       0.81362920       2.11777806       1.57180274      -0.00376124      -0.02726903      -0.00508248
Si       0.81362920       6.39470692       7.93235182      -0.00376124       0.00923296       0.02615691
Si       0.81362920       9.76463957       1.04814823      -0.00376124       0.01803607      -0.02107443
Si       2.68374975       6.88844958       2.39921331       0.01778186       0.00069120       0.00489623
Si       2.68374975       4.72592973       3.38712380       0.01778186       0.00389466      -0.00304671
Si       2.68374975       6.66274524       4.76596568       0.01778186      -0.00458586      -0.00184952
Si       4.57729120      -1.32490349       4.41463024      -0.00221732      -0.00930401      -0.02117681
Si       4.57729120      -1.60674118       9.49238774      -0.00221732      -0.01368765       0.01864592
Si       4.57729120       2.93164466       7.19758759      -0.00221732       0.02299166       0.00253089
Si       2.68661920      -0.00000000       7.03486853       0.01145012       0.00000000       0.00000000
16
Lattice="3.777195213844114 6.295204157373216e-22 1.0903613444598638e-21 -2.023917544005285e-21 12.185067494002402 -5.351076624179782e-13 -2.0239175440083396e-21 -6.092533747000731 10.552577996634344" Properties=species:S:1:pos:R:3:forces:R:3 unique_starting_index=88 config_type=initial n_minim_iter=13 energy=-2603.1650599450204 stress="1.5492186153350283e-05 -2.9610743849122846e-14 -1.5721463520843156e-14 -2.9610743849122846e-14 0.00017310300944915595 -1.0539486828897466e-12 -1.5721463520843156e-14 -1.0539486828897466e-12 0.00017310302102318195" free_energy=-2603.1650599450204 pbc="T T T"
Si       0.79792702       3.34181693       3.51924453       0.01292046       0.00182784      -0.00417625
Si       0.79792702       7.46938044       5.89885737       0.01292046      -0.00453066       0.00050517
Si       0.79792702       7.46640386       1.13447610       0.01292046       0.00270282       0.00367108
Si      -1.07585264      10.81068966       0.26018178       0.00322098      -0.00499631      -0.00008538
Si      -1.07585264       0.91251294       1.06015523       0.00322098       0.00242421       0.00436963
Si      -1.07585264       6.55439863       9.23224099       0.00322098       0.00257210      -0.00428424
Si       0.81241435       2.11562850       1.57376929      -0.02014135      -0.00148231       0.00651899
Si       0.81241435       6.39764368       7.93350532      -0.02014135       0.00638676      -0.00197578
Si       0.81241435       9.76432905       1.04530338      -0.02014135      -0.00490446      -0.00454321
Si       2.68637445       6.88997597       2.40036932       0.00175575      -0.00814434       0.00730265
Si       2.68637445       4.72632657       3.38549911       0.00175575       0.01039645       0.00340188
Si       2.68637445       6.66129869       4.76670957       0.00175575      -0.00225211      -0.01070453
Si       4.57806091      -1.32464569       4.41356487       0.00365062      -0.02014137       0.00801835
Si       4.57806091      -1.60795161       9.49297238       0.00365062       0.01701478       0.01343376
Si       4.57806091       2.93259729       7.19861875       0.00365062       0.00312659      -0.02145211
Si       2.68984701      -0.00000000       7.03505200      -0.00421939       0.00000000      -0.00000000
16