8
Lattice="5.762090000000001 -2.3622720917754297e-15 9.566399834393315e-16 -1.0600401234553345 5.663744000638165 -9.566399834393309e-16 -2.607413986730456 -2.6190173773851932 4.677065331477749" Properties=species:S:1:pos:R:3:forces:R:3 unique_starting_index=38 config_type=initial n_minim_iter=1 energy=-1256.3203585892145 stress="-0.863856203365199 -0.7702883767317212 -0.04628921516279372 0.1407714968066732 -0.16956300788200954 0.24996422554046238" pbc="T T T"
Si       2.94962687       3.37467305       1.40455218      32.99251888      -1.75702096       5.97032030
Si       0.16702332       0.90109835       3.27251315      -7.79659996      32.10617469      -5.97032030
Si      -0.85499120      -0.32994529       3.27251315     -32.99251888       1.75702096      -5.97032030
Si       1.92761235       2.14362941       1.40455218       7.79659996     -32.10617469       5.97032030
Si       1.54133176       0.13554386       3.56438307      24.55704675     -12.48230793       5.30210607
Si       1.94430992       4.58468759       1.11268226     -16.78697340      21.84156772      -5.30210607
Si       0.55330392       2.90918390       1.11268226     -24.55704675      12.48230793      -5.30210607
Si       0.15032575      -1.53995983       3.56438307      16.78697340     -21.84156772       5.30210607
8
Lattice="5.838631472344388 -0.022276570576935 0.015041042393717128 -1.0960176636800258 5.734880905158227 -0.015041042393717105 -2.6197158845101254 -2.6500726105792785 4.6792671088144635" Properties=species:S:1:pos:R:3:forces:R:3 unique_starting_index=38 config_type=initial n_minim_iter=2 energy=-1260.5055434788933 stress="-0.761826938413334 -0.6865338925922067 -0.030465601503000508 0.12378074413737412 -0.14909719493420184 0.20114358269125746" pbc="T T T"
Si       2.98277363       3.39997819       1.40654559      30.00891143      -0.40828058       5.27197424
Si       0.17349670       0.90727947       3.27272151      -5.92199130      29.42161581      -5.27197424
Si      -0.85987592      -0.33744531       3.27272151     -30.00891142       0.40828058      -5.27197424
Si       1.94940100       2.15525340       1.40654559       5.92199130     -29.42161581       5.27197424
Si       1.57308102       0.12219127       3.57119200      21.72129502     -10.67608793       4.68917372
Si       1.95360641       4.63124363       1.10807511     -14.48989398      19.38650261      -4.68917372
Si       0.54981668       2.94034160       1.10807511     -21.72129502      10.67608793      -4.68917372
Si       0.16929129      -1.56871075       3.57119200      14.48989398     -19.38650261       4.68917372
8
Lattice="6.555895294220337 -0.22414716418539082 0.1569513244543882 -1.4263963619902886 6.40276490888847 -0.15695132445438814 -2.7373429032282077 -2.946021508095845 4.692777734090823" Properties=species:S:1:pos:R:3:forces:R:3 unique_starting_index=38 config_type=initial n_minim_iter=3 energy=-1285.0386536938238 stress="-0.2704493519489748 -0.2685540369539846 0.033713182635889724 0.04183770501883612 -0.05039462723763122 0.005063288977798529" pbc="T T T"
Si       3.30025992       3.64175466       1.42354044      15.19005508       4.31683308       1.64743076
Si       0.23511215       0.96787731       3.26923726       1.44867046      15.72495389      -1.64743076
Si      -0.90810418      -0.40915714       3.26923726     -15.19005508      -4.31683308      -1.64743076
Si       2.15704359       2.26472021       1.42354044      -1.44867046     -15.72495389       1.64743076
Si       1.87307308      -0.00255580       3.63033864       8.59046498      -2.73267980       1.64555504
Si       2.04505756       5.07323063       1.06243906      -4.26640965       7.94111932      -1.64555504
Si       0.51908266       3.23515332       1.06243906      -8.59046498       2.73267980      -1.64555504
Si       0.34709818      -1.84063311       3.63033864       4.26640965      -7.94111932       1.64555504
8
Lattice="7.157222292716504 -0.2590777694549017 0.2693519404820925 -1.5713556999660498 6.987402486057892 -0.2693519404820921 -2.902338510692549 -3.273333963794942 4.638178946699369" Properties=species:S:1:pos:R:3:forces:R:3 unique_starting_index=38 config_type=initial n_minim_iter=4 energy=-1292.8529606507154 stress="-0.0479689391956985 -0.050542185416493746 0.04626291405026053 0.020506910024712728 -0.02470111796047393 -0.006874366149815861" pbc="T T T"
Si       3.65348564       3.95240572       1.41744668       6.31723990       2.12370327       0.60737381
Si       0.31048318       1.04491171       3.22073221       0.92528647       6.60011216      -0.60737381
Si      -0.96995788      -0.49741356       3.22073221      -6.31723990      -2.12370327      -0.60737381
Si       2.37304458       2.41008044       1.41744668      -0.92528647      -6.60011216       0.60737381
Si       2.12598944      -0.06501556       3.62782600       2.66188831      -1.14752213       0.41967186
Si       2.22850731       5.53273425       1.01035289      -1.61763874       2.40534848      -0.41967186
Si       0.55753832       3.52000771       1.01035289      -2.66188831       1.14752213      -0.41967186
Si       0.45502045      -2.07774210       3.62782600       1.61763874      -2.40534848       0.41967186
8
Lattice="7.33695075956657 -0.24350615673215092 0.3512547706625553 -1.58911414491388 7.1669280679455385 -0.3512547706625545 -2.924265269040009 -3.419912822590188 4.528974945633685" Properties=species:S:1:pos:R:3:forces:R:3 unique_starting_index=38 config_type=initial n_minim_iter=5 energy=-1294.3371398805841 stress="-0.014799750422320377 -0.018419118066599415 0.04719550363207998 0.020358672089269385 -0.024522561420262802 -0.00966905467225075" pbc="T T T"
Si       3.79836145       4.05828445       1.39174381       4.49078112       1.26600641       0.22482399
Si       0.36597552       1.06021427       3.13723107       0.41823853       4.64703818      -0.22482399
Si      -0.97479042      -0.55477393       3.13723107      -4.49078112      -1.26600641      -0.22482399
Si       2.45759551       2.44329626       1.39174381      -0.41823853      -4.64703818       0.22482399
Si       2.23612611      -0.10375513       3.57208090       1.59630322      -1.13251348       0.34597216
Si       2.31021055       5.68238265       0.95689397      -1.40685270       1.36071166      -0.34597216
Si       0.58744491       3.60726566       0.95689397      -1.59630322       1.13251348      -0.34597216
Si       0.51336047      -2.17887212       3.57208090       1.40685270      -1.36071166       0.34597216
8
Lattice="7.447804195390656 -0.18840712308225055 0.49308169858821643 -1.5553490125610059 7.286025941899483 -0.4930816985882147 -2.884351334682853 -3.6001791827060767 4.333408634137323" Properties=species:S:1:pos:R:3:forces:R:3 unique_starting_index=38 config_type=initial n_minim_iter=6 energy=-1295.910541097325 stress="-0.0004988337181867164 -0.0027259840624130477 0.04302581226974159 0.021521091213890124 -0.02592272612807992 -0.005949779227616776" pbc="T T T"
Si       3.95293678       4.14178812       1.34424766       2.83620711       0.69394117       0.17594649
Si       0.45953097       1.04724699       2.98916088       0.16032582       2.91546235      -0.17594649
Si      -0.94483324      -0.64434702       2.98916088      -2.83620711      -0.69394117      -0.17594649
Si       2.54857256       2.45019411       1.34424766      -0.16032582      -2.91546235       0.17594649
Si       2.36691062      -0.16706177       3.47051077       0.86339327      -1.24456204       0.43744337
Si       2.40845675       5.79321912       0.86289777      -1.38215687       0.61969750      -0.43744338
Si       0.64119291       3.66450287       0.86289777      -0.86339327       1.24456204      -0.43744337
Si       0.59964678      -2.29577802       3.47051077       1.38215687      -0.61969750       0.43744337
8
Lattice="7.48305328911141 -0.13485983438325425 0.7611990125638041 -1.509200361384099 7.330524399509837 -0.7611990125638008 -2.7070108324757474 -3.8302187145528297 4.0264565840672" Properties=species:S:1:pos:R:3:forces:R:3 unique_starting_index=38 config_type=initial n_minim_iter=7 energy=-1297.5408952254381 stress="0.003978372648595675 0.004529071822166368 0.005472430894251564 0.004503112607436544 -0.005424118767411974 0.0014711797804300264" pbc="T T T"
Si       4.10568625       4.15472340       1.27370812       1.17379705       1.36776914       1.16580412
Si       0.62148496       0.96972952       2.75274831       1.12848329       1.40538869      -1.16580412
Si      -0.83884446      -0.78927608       2.75274831      -1.17379704      -1.36776914      -1.16580412
Si       2.64535683       2.39571780       1.27370812      -1.12848329      -1.40538869       1.16580412
Si       2.55684653      -0.30635035       3.32776979       0.30862572      -1.10905991      -0.17283457
Si       2.49534164       5.82229481       0.69868664      -1.14690799       0.09932664       0.17283457
Si       0.70999527       3.67179767       0.69868664      -0.30862572       1.10905991       0.17283457
Si       0.77150015      -2.45684749       3.32776979       1.14690799      -0.09932664      -0.17283457
8
Lattice="7.434155404425198 -0.16248086161159478 0.8210432776105154 -1.5273543137757661 7.277379707540691 -0.8210432776105125 -2.6237541467796963 -3.8311224222045164 3.989141917739715" Properties=species:S:1:pos:R:3:forces:R:3 unique_starting_index=38 config_type=initial n_minim_iter=8 energy=-1297.8960866747382 stress="0.003463170924601856 0.005797883091858609 -0.0007654756954012742 -0.00010497954281861895 0.0001264506553628019 0.006237128110117905" pbc="T T T"
Si       4.09810313       4.10987056       1.27481876       0.93034351       1.57835161       1.37986363
Si       0.66204941       0.95312063       2.71432300       1.38025925       1.20483080      -1.37986363
Si      -0.81505650      -0.82609268       2.71432300      -0.93034351      -1.57835161      -1.37986363
Si       2.62099723       2.33065726       1.27481876      -1.38025925      -1.20483080       1.37986363
Si       2.58501942      -0.36241294       3.32062781       0.23888955      -0.97708367      -0.39672362
Si       2.45125785       5.75800371       0.66851394      -1.00435507       0.05506012       0.39672362
Si       0.69802721       3.64619082       0.66851394      -0.23888955       0.97708367       0.39672362
Si       0.83178878      -2.47422582       3.32062781       1.00435507      -0.05506012      -0.39672362
8
Lattice="7.400289768178503 -0.22445504455368184 0.8214043002669494 -1.5820405428358573 7.232690816069545 -0.8214043002669467 -2.5799676522535746 -3.7773845526344223 3.9932347012834706" Properties=species:S:1:pos:R:3:forces:R:3 unique_starting_index=38 config_type=initial n_minim_iter=9 energy=-1298.14772592011 stress="0.0055957646936712685 0.008400192766774426 0.0015985683859430406 -0.0006866925403281867 0.0008271394123839751 0.007491962954137661" pbc="T T T"
Si       4.05520735       4.05663238       1.28237333       0.96510962       1.71742808       1.31859668
Si       0.66139783       0.95490073       2.71086121       1.51056615       1.26458915      -1.31859668
Si      -0.81692610      -0.82577971       2.71086121      -0.96510962      -1.71742808      -1.31859668
Si       2.57688343       2.27595194       1.28237333      -1.51056615      -1.26458915       1.31859668
Si       2.57734525      -0.39065567       3.32397481       0.07612810      -0.86267216      -0.32301709
Si       2.38014359       5.69233955       0.66925972      -0.86195341      -0.08387530       0.32301709
Si       0.66093600       3.62150834       0.66925972      -0.07612810       0.86267216       0.32301709
Si       0.85813766      -2.46148689       3.32397481       0.86195341       0.08387530      -0.32301709
8
Lattice="7.31696593452965 -0.3335094159204883 0.809988435541993 -1.6739046814841974 7.130726620399938 -0.8099884355419913 -2.50196083912855 -3.6639159818096534 3.978879273720258" Properties=species:S:1:pos:R:3:forces:R:3 unique_starting_index=38 config_type=initial n_minim_iter=10 energy=-1298.5682725402767 stress="0.0031846868333600975 0.005552918304426123 -0.0001105930294126063 -0.003002647882000708 0.003616769151850799 0.006326674077483684" pbc="T T T"
Si       3.96034513       3.94927449       1.28608776       1.13022159       1.89762395       1.23737677
Si       0.65133072       0.95537575       2.69279135       1.65731116       1.46003330      -1.23737677
Si      -0.81924506      -0.81597184       2.69279135      -1.13022159      -1.89762395      -1.23737677
Si       2.48976936       2.17792690       1.28608776      -1.65731115      -1.46003330       1.23737677
Si       2.54698172      -0.42998448       3.30917690      -0.01588077      -0.61770065      -0.26008884
Si       2.24989079       5.55770902       0.66970221      -0.60423633      -0.12924687       0.26008884
Si       0.59411836       3.56328714       0.66970221       0.01588077       0.61770065       0.26008884
Si       0.89120928      -2.42440637       3.30917690       0.60423633       0.12924687      -0.26008884
8
Lattice="7.280746978467709 -0.3961291634723568 0.7776251984065209 -1.7287925212893809 7.083605811799093 -0.7776251984065186 -2.483378164230066 -3.58665456372006 3.9765444184056578" Properties=species:S:1:pos:R:3:forces:R:3 unique_starting_index=38 config_type=initial n_minim_iter=11 energy=-1298.8558117554276 stress="0.0032409669804772116 0.005222897294166511 0.0029295214375967254 -0.0029678779863591136 0.0035748878850642477 0.005294679716182109" pbc="T T T"
Si       3.90921273       3.90478929       1.28933827       1.10974467       1.69206872       1.05354742
Si       0.63559418       0.97419363       2.68720599       1.45903139       1.40209029      -1.05354742
Si      -0.84063678      -0.80396578       2.68720599      -1.10974467      -1.69206872      -1.05354742
Si       2.43298177       2.12662987       1.28933827      -1.45903139      -1.40209029       1.05354742
Si       2.51607322      -0.43817407       3.29637661      -0.03236596      -0.43674000      -0.19224689
Si       2.17500304       5.49334231       0.68016766      -0.42333153      -0.11215972       0.19224689
Si       0.55250272       3.53899757       0.68016766       0.03236596       0.43674000       0.19224689
Si       0.89357291      -2.39251880       3.29637661       0.42333153       0.11215972      -0.19224689
8
Lattice="7.1269544283163135 -0.6142019232167931 0.6294386120310861 -1.9148503598264683 6.892319749202962 -0.6294386120310842 -2.4349480203242724 -3.281109755587887 3.890515552649345" Properties=species:S:1:pos:R:3:forces:R:3 unique_starting_index=38 config_type=initial n_minim_iter=12 energy=-1299.4558614600599 stress="-0.020554324535957225 -0.024044798622464288 -0.00393897174039102 -0.008763636608013261 0.01055603312742004 -0.009324718582299118" pbc="T T T"
Si       3.71192824       3.74332094       1.27609192       0.80127951       0.14785325       0.13729909
Si       0.56160591       1.05611615       2.61442350      -0.00208006       0.81480373      -0.13729909
Si      -0.93477257      -0.74631149       2.61442350      -0.80127951      -0.14785325      -0.13729909
Si       2.21554975       1.94089330       1.27609192       0.00208006      -0.81480373       0.13729909
Si       2.37869452      -0.44510938       3.17992456       0.63771403       0.48381303      -0.18535886
Si       1.90203913       5.25321846       0.71059087       0.35823645       0.71583579       0.18535886
Si       0.39846115       3.44211884       0.71059087      -0.63771403      -0.48381303       0.18535885
Si       0.87511653      -2.25620901       3.17992456      -0.35823645      -0.71583579      -0.18535886
8
Lattice="7.420632434615418 -0.4864381594046568 0.5008345887404962 -1.843294590871711 7.204489771236717 -0.5008345887404942 -2.7303000675266778 -3.407483727802485 3.9174329226576834" Properties=species:S:1:pos:R:3:forces:R:3 unique_starting_index=38 config_type=initial n_minim_iter=13 energy=-1299.314193166741 stress="0.034699963388656455 0.0404517552074192 0.04726570707226009 0.0038630593195323536 -0.004653157595593444 0.015365775207791157" pbc="T T T"
Si       3.93344564       4.04995771       1.27876484       0.07282716       0.01899846       0.10872357
Si       0.52690489       1.20389014       2.63866798       0.00527634       0.07507927      -0.10872357
Si      -1.08640824      -0.73938838       2.63866798      -0.07282716      -0.01899846      -0.10872357
Si       2.32013252       2.10667918       1.27876484      -0.00527634      -0.07507927       0.10872357
Si       2.39199320      -0.33364671       3.15693435      -0.09080401      -0.33107840       0.11571256
Si       2.07903455       5.60035556       0.76049847      -0.30872260      -0.15016202      -0.11571256
Si       0.45504421       3.64421604       0.76049847       0.09080401       0.33107840      -0.11571256
Si       0.76800285      -2.28978623       3.15693435       0.30872260       0.15016202       0.11571256
8
Lattice="7.239239789275757 -0.5559526073452163 0.5095175781556797 -1.8782521419202498 7.013404659622837 -0.509517578155678 -2.6095737032297497 -3.2876040304341156 3.782535900262551" Properties=species:S:1:pos:R:3:forces:R:3 unique_starting_index=38 config_type=initial n_minim_iter=14 energy=-1299.772960230205 stress="-0.002121731834603861 0.000712301540342246 0.006957742238629066 -0.010485086511640582 0.012629565263051342 0.007571052775361843" pbc="T T T"
Si       3.79340369       3.88283385       1.23683567       0.55554086      -0.20249049       0.12868028
Si       0.50912308       1.15537264       2.54570013      -0.30123617       0.50880725      -0.12868028
Si      -1.04199012      -0.71298442       2.54570013      -0.55554086       0.20249049      -0.12868028
Si       2.24229048       2.01447679       1.23683567       0.30123617      -0.50880725       0.12868028
Si       2.34563036      -0.36123429       3.05724208       0.39058385       0.07403965      -0.13103425
Si       1.96482329       5.40898893       0.72529372       0.00092103       0.39753838       0.13103425
Si       0.40578321       3.53108372       0.72529372      -0.39058384      -0.07403965       0.13103425
Si       0.78659027      -2.23913950       3.05724208      -0.00092103      -0.39753838      -0.13103425
8
Lattice="7.247450496653189 -0.5869004372450938 0.4612734249280668 -1.9101822688690189 7.015781818470096 -0.4612734249280657 -2.638382150418893 -3.239555922003316 3.764564991088846" Properties=species:S:1:pos:R:3:forces:R:3 unique_starting_index=38 config_type=initial n_minim_iter=15 energy=-1299.8701324802373 stress="-0.0006289446478860279 0.0010061360483536819 0.011014761878881972 -0.009672082821499521 0.011650280733034831 0.004368079217081713" pbc="T T T"
Si       3.76982627       3.87242493       1.22852523       0.65793888      -0.16115268       0.03221646
Si       0.47442086       1.17833084       2.53603967      -0.27944186       0.61706240      -0.03221646
Si      -1.07094058      -0.68309807       2.53603967      -0.65793888       0.16115268      -0.03221646
Si       2.22446484       2.01099603       1.22852523       0.27944186      -0.61706240       0.03221646
Si       2.31974637      -0.34502285       3.02741906       0.47040143       0.12823015      -0.14401003
Si       1.93299200       5.40600655       0.73714584       0.03950275       0.48596297       0.14401002
Si       0.37913932       3.53434972       0.73714584      -0.47040143      -0.12823016       0.14401002
Si       0.76589370      -2.21667968       3.02741906      -0.03950275      -0.48596297      -0.14401002
8
Lattice="7.248641647927413 -0.6066177648622996 0.407639532621056 -1.9297821994748143 7.013325282296882 -0.40763953262105457 -2.67349354561213 -3.1916779503467967 3.732874889249065" Properties=species:S:1:pos:R:3:forces:R:3 unique_starting_index=38 config_type=initial n_minim_iter=16 energy=-1299.9766023942839 stress="0.0008698586756870642 0.0015400283603968976 0.013161448505257247 -0.008821063020558843 0.010625204757048414 0.0017903423395929036" pbc="T T T"
Si       3.74898022       3.86755177       1.21530691       0.75124461      -0.14005315      -0.02421519
Si       0.43835448       1.20482205       2.51756790      -0.27586772       0.71265725       0.02421519
Si      -1.10361471      -0.65252080       2.51756790      -0.75124461       0.14005315       0.02421519
Si       2.20701104       2.01020892       1.21530691       0.27586772      -0.71265725      -0.02421519
Si       2.28945119      -0.32266822       2.98527225       0.53992176       0.16359047      -0.14549097
Si       1.90701825       5.40604508       0.74760256       0.06147002       0.56080192       0.14549097
Si       0.35591433       3.53769919       0.74760256      -0.53992176      -0.16359047       0.14549097
Si       0.73834726      -2.19101411       2.98527225      -0.06147002      -0.56080192      -0.14549097
8
Lattice="7.240997162114152 -0.6132060045704288 0.35513621107869237 -1.9348516519541135 7.004599245546957 -0.35513621107869053 -2.7096565370718917 -3.1487206686974814 3.6939209576353202" Properties=species:S:1:pos:R:3:forces:R:3 unique_starting_index=38 config_type=initial n_minim_iter=17 energy=-1300.0867360084615 stress="0.002208714651986525 0.002619057821577825 0.013226239406067692 -0.008211458624790882 0.009890920070044199 0.0010962220395765434" pbc="T T T"
Si       3.73243077       3.86723895       1.19967648       0.83021432      -0.14823741      -0.03914485
Si       0.40492858       1.23145480       2.49424441      -0.29844018       0.78877348       0.03914485
Si      -1.13594219      -0.62456498       2.49424441      -0.83021432       0.14823741       0.03914485
Si       2.19156001       2.01121918       1.19967648       0.29844018      -0.78877348      -0.03914485
Si       2.25810814      -0.29708908       2.93792849       0.60666825       0.16371178      -0.11891848
Si       1.88905000       5.40758574       0.75599240       0.04931005       0.62643151       0.11891848
Si       0.33838044       3.53976305       0.75599240      -0.60666826      -0.16371178       0.11891848
Si       0.70743858      -2.16491176       2.93792849      -0.04931005      -0.62643151      -0.11891848
8
Lattice="7.216325857822766 -0.6177868292244312 0.2741094222269891 -1.934815561873125 6.9795063001747035 -0.27410942222698836 -2.7621794969367053 -3.080053034999019 3.6306639689258984" Properties=species:S:1:pos:R:3:forces:R:3 unique_starting_index=38 config_type=initial n_minim_iter=18 energy=-1300.2955789369382 stress="0.003933249720526495 0.0027717644386924087 0.01651580555841063 -0.0102998232785506 0.012406410791814993 -0.0031028803783440966" pbc="T T T"
Si       3.70478260       3.86278746       1.17438509       1.02181842      -0.21868258       0.06565111
Si       0.35311648       1.27212721       2.45627882      -0.40293205       0.96414767      -0.06565111
Si      -1.18545219      -0.58111962       2.45627882      -1.02181842       0.21868259      -0.06565111
Si       2.16621393       2.00954062       1.17438509       0.40293205      -0.96414767       0.06565111
Si       2.20742093      -0.25624393       2.86253444       0.75586288       0.10215334       0.01232076
Si       1.86136467       5.40427170       0.76812947      -0.03864476       0.76175494      -0.01232076
Si       0.31190948       3.53791176       0.76812947      -0.75586288      -0.10215334      -0.01232076
Si       0.65796574      -2.12260387       2.86253444       0.03864476      -0.76175494       0.01232076
8
Lattice="7.157452501545135 -0.5707912072276321 0.13896945044950185 -1.8777912370192265 6.9302834707028405 -0.13896945044950015 -2.8665918915650344 -2.9914885496176655 3.528950500927885" Properties=species:S:1:pos:R:3:forces:R:3 unique_starting_index=38 config_type=initial n_minim_iter=19 energy=-1300.5371161490775 stress="-0.01059842824444479 -0.00897600244843789 -0.010909145858416654 -0.00031959200660747227 0.0003849570624554109 0.004334271925956047" pbc="T T T"
Si       3.68249965       3.88679870       1.13341010       1.16857373      -0.37257967       0.42949280
Si       0.27640487       1.34320636       2.39554037      -0.58120073       1.08008605      -0.42949280
Si      -1.26943065      -0.51879359       2.39554037      -1.16857373       0.37257967      -0.42949280
Si       2.13666413       2.02479874       1.13341010       0.58120073      -1.08008605       0.42949280
Si       2.11902928      -0.17421016       2.74037993       0.85640969      -0.07352018       0.13535006
Si       1.85199812       5.41881756       0.78857054      -0.22981732       0.82826733      -0.13535006
Si       0.29403972       3.54221527       0.78857054      -0.85640969       0.07352018      -0.13535007
Si       0.56107088      -2.05081245       2.74037993       0.22981732      -0.82826733       0.13535006
8
Lattice="7.239858475530348 -0.6089085131178066 0.1384441153434791 -1.9304180271930536 7.004270594668953 -0.13844411534347664 -2.8869826923448767 -3.004856345716803 3.569538001526728" Properties=species:S:1:pos:R:3:forces:R:3 unique_starting_index=38 config_type=initial n_minim_iter=20 energy=-1300.6012724857828 stress="0.018271290623615974 0.01798492667755822 0.01427776823796683 4.6249581211614377e-05 -5.5708837963896164e-05 -0.000765014374479716" pbc="T T T"
Si       3.71700819       3.90193418       1.14825681       0.86056054      -0.20206489       0.24860577
Si       0.26454274       1.36654258       2.42128116      -0.35693169       0.80869923      -0.24860577
Si      -1.29455083      -0.51142704       2.42128116      -0.86056054       0.20206489      -0.24860577
Si       2.15791462       2.02396456       1.14825681       0.35693169      -0.80869923       0.24860577
Si       2.15019684      -0.18621936       2.77194635       0.60471111       0.04517296       0.12642297
Si       1.84384843       5.46974588       0.79759162      -0.06684553       0.60270042      -0.12642297
Si       0.27226053       3.57672650       0.79759162      -0.60471111      -0.04517296      -0.12642297
Si       0.57860894      -2.07923874       2.77194635       0.06684553      -0.60270042       0.12642297
8
Lattice="7.177696619737528 -0.6012008924295705 0.13750793744944087 -1.9114061666145088 6.944587658333489 -0.13750793744943926 -2.86311691889423 -2.980770493884236 3.545651235241306" Properties=species:S:1:pos:R:3:forces:R:3 unique_starting_index=38 config_type=initial n_minim_iter=21 energy=-1300.6603559262423 stress="0.00035679335869790184 0.00010809701954411949 0.00020608295377780677 -0.0006349812589583753 0.0007648517984426968 -0.0006643863767974758" pbc="T T T"
Si       3.69044431       3.86891777       1.14109428       0.99194900      -0.25397915       0.26281223
Si       0.26084253       1.35844397       2.40455692      -0.43213116       0.92829461      -0.26281223
Si      -1.28727116      -0.50630011       2.40455692      -0.99194900       0.25397915      -0.26281223
Si       2.14233061       2.00417370       1.14109428       0.43213116      -0.92829461       0.26281223
Si       2.13442962      -0.18428628       2.75366512       0.73625604       0.05161063       0.13284999
Si       1.82936497       5.42671393       0.79198608      -0.08471779       0.73318450      -0.13284999
Si       0.26874353       3.54690395       0.79198608      -0.73625604      -0.05161063      -0.13284999
Si       0.57380818      -2.06409626       2.75366512       0.08471779      -0.73318450       0.13284999
8
Lattice="7.176350750049999 -0.5990428842124912 0.13550485847306554 -1.909037393831971 6.9436617640708995 -0.13550485847306426 -2.8651146580496594 -2.980152632368243 3.5454237903466845" Properties=species:S:1:pos:R:3:forces:R:3 unique_starting_index=38 config_type=initial n_minim_iter=22 energy=-1300.6872909880908 stress="0.001382987147011209 0.0013427770665080806 0.0006702066483436646 -0.0006439011026106217 0.0007755959840182782 -0.00010742032630334913" pbc="T T T"
Si       3.69460845       3.86861616       1.14140043       0.95110209      -0.25709727       0.25129077
Si       0.25778226       1.36309941       2.40402334      -0.42768153       0.88757124      -0.25129077
Si      -1.29241014      -0.50414852       2.40402334      -0.95110209       0.25709727      -0.25129077
Si       2.14441606       2.00136823       1.14140043       0.42768153      -0.88757124       0.25129077
Si       2.13571714      -0.18294155       2.75309875       0.71280359       0.05654942       0.13704254
Si       1.82947505       5.43007684       0.79232502      -0.07554880       0.71104091      -0.13704253
Si       0.26648117       3.54740919       0.79232502      -0.71280359      -0.05654942      -0.13704254
Si       0.57272327      -2.06560920       2.75309875       0.07554880      -0.71104091       0.13704254
8
Lattice="7.161864361476023 -0.5966517902649319 0.12875944145273865 -1.9040220787062387 6.929862510526893 -0.12875944145273938 -2.8651214369279385 -2.970511474112679 3.5423276680871765" Properties=species:S:1:pos:R:3:forces:R:3 unique_starting_index=38 config_type=initial n_minim_iter=23 energy=-1300.7684853005383 stress="0.0010926243893511001 0.0013471651348620464 -5.770729640346079e-06 -0.0006660600782536033 0.000802287064497003 0.000679999619310263" pbc="T T T"
Si       3.69914922       3.85791205       1.14154545       0.86547790      -0.25995524       0.21369374
Si       0.24641871       1.37523462       2.40078219      -0.41473861       0.80288268      -0.21369374
Si      -1.30642875      -0.49521141       2.40078219      -0.86547790       0.25995524      -0.21369374
Si       2.14630175       1.98746602       1.14154545       0.41473861      -0.80288268       0.21369374
Si       2.13656574      -0.17976412       2.74938207       0.67208345       0.08437290       0.14804511
Si       1.82296428       5.42972849       0.79294557      -0.04070900       0.67613440      -0.14804511
Si       0.25615473       3.54246476       0.79294557      -0.67208345      -0.08437290      -0.14804511