16
Lattice="7.637048086547948 0.6619497216599417 -1.576888684968945 1.429239103685839 7.437041551319349 -1.1604589919459771 -1.2412281094495021 0.2938285496848522 5.818634079054639" Properties=species:S:1:pos:R:3:forces:R:3 unique_starting_index=30 config_type=initial n_minim_iter=1 energy=-2603.448023093155 stress="0.0033122374802182363 -0.0024961671921459204 0.0037971483786858736 -0.0024961671921459204 0.0028403135646284305 0.002062708823395672 0.0037971483786858736 0.002062708823395672 -0.0015776447860962465" free_energy=-2603.448023093155 pbc="T T T"
Si       3.42541683       5.98674555       2.00803153       0.03493199      -0.13980664      -0.23619411
Si       4.39964225       2.40607427       1.07325487      -0.03493199       0.13980664       0.23619411
Si       2.23118850       3.23721132       0.29990702      -0.13671751       0.13564197       0.25247603
Si       5.59387059       5.15560850       2.78137938       0.13671751      -0.13564197      -0.25247603
Si       4.14205610       1.97586496       3.42832774       0.09118578      -0.11450357      -0.00066148
Si       3.68300298       6.41695486      -0.34704134      -0.09118578       0.11450357       0.00066148
Si       5.44509572       4.76281724      -1.13277958       0.29618542      -0.08750042       0.55365060
Si       2.37996336       3.63000258       4.21406598      -0.29618542       0.08750042      -0.55365060
Si       1.44026522       4.55690032       2.13407194       0.16423894       0.26546774       0.00102132
Si       6.38479386       3.83591950       0.94721446      -0.16423894      -0.26546774      -0.00102132
Si       7.84030877       7.25999263       0.20694378       0.39585943      -0.70981137       0.03640957
Si      -0.01524969       1.13282719       2.87434262      -0.39585943       0.70981137      -0.03640957
Si       1.71811001       1.26758199       1.34705575      -0.19433656      -0.81054691      -0.36625235
Si       6.10694907       7.12523784       1.73423065       0.19433656       0.81054691       0.36625235
Si       5.71085866       7.52536516      -0.87282973       0.13841467       0.15235928       0.63798016
Si       2.11420042       0.86745466       3.95411613      -0.13841467      -0.15235928      -0.63798016
16
Lattice="7.59743559303953 0.7084138541284094 -1.651795793412504 1.4707500101940196 7.402853090734598 -1.212128358513689 -1.2806082759070245 0.25746351573193305 5.8492109842816715" Properties=species:S:1:pos:R:3:forces:R:3 unique_starting_index=30 config_type=initial n_minim_iter=2 energy=-2603.4948065241397 stress="-0.001931403547747228 0.0020700627875250765 -0.001542028793740659 0.0020700627875250765 -0.0038756520103637943 -0.0006247906016343168 -0.001542028793740659 -0.0006247906016343168 -0.00012319008526643746" free_energy=-2603.4948065241397 pbc="T T T"
Si       3.41667695       5.95723797       1.95578357      -0.00779625      -0.21217865      -0.36891300
Si       4.37090038       2.41149249       1.02950326       0.00779625       0.21217865       0.36891300
Si       2.22929116       3.22861648       0.26828766      -0.19330457       0.13335447       0.15255242
Si       5.55828617       5.14011398       2.71699917       0.19330457      -0.13335447      -0.15255242
Si       4.09335090       1.96965458       3.39569800       0.10271360      -0.00191833      -0.05220717
Si       3.69422642       6.39907588      -0.41041116      -0.10271360       0.00191833       0.05220717
Si       5.44334033       4.76779045      -1.20243209       0.42638271      -0.08603892       0.46109079
Si       2.34423699       3.60094001       4.18771892      -0.42638271       0.08603892      -0.46109079
Si       1.43808362       4.52765616       2.10790080       0.21802523       0.16162186      -0.01274014
Si       6.34949371       3.84107430       0.87738603      -0.21802523      -0.16162186       0.01274014
Si       7.82397083       7.25170948       0.10593276       0.36294270      -0.55260168       0.11043747
Si      -0.03639350       1.11702098       2.87935407      -0.36294270       0.55260168      -0.11043747
Si       1.69941073       1.25697349       1.32850456      -0.34205948      -0.59887525      -0.40729200
Si       6.08816659       7.11175697       1.65678227       0.34205948       0.59887525       0.40729200
Si       5.71939312       7.51460037      -0.95624439      -0.04089622       0.10032510       0.49434797
Si       2.06818421       0.85413009       3.94153123       0.04089622      -0.10032510      -0.49434797
16
Lattice="7.5990825326212095 0.700211579679296 -1.6878737279861453 1.45556769475122 7.476112196059926 -1.2442640490989905 -1.3010358225352983 0.24674935198673226 5.881730842284624" Properties=species:S:1:pos:R:3:forces:R:3 unique_starting_index=30 config_type=initial n_minim_iter=3 energy=-2603.564911573159 stress="0.003975963660839435 0.002367156505673298 -0.003629405994740478 0.002367156505673298 0.008483525020614889 -0.0031437853273559194 -0.003629405994740478 -0.0031437853273559194 0.008459495556454075" free_energy=-2603.564911573159 pbc="T T T"
Si       3.39400670       5.99771415       1.92922574       0.05845631      -0.11153063      -0.35000413
Si       4.35960771       2.42535898       1.02036733      -0.05845631       0.11153063       0.35000413
Si       2.21540182       3.25721718       0.25735832      -0.16246000      -0.10654370       0.16014565
Si       5.53821259       5.16585595       2.69223474       0.16246000       0.10654370      -0.16014566
Si       4.07772071       1.96783277       3.39207434       0.02306838       0.01144126      -0.11752873
Si       3.67589370       6.45524035      -0.44248127      -0.02306838      -0.01144126       0.11752873
Si       5.44226661       4.80226908      -1.22887133       0.35029493      -0.10668896       0.30683729
Si       2.31134780       3.62080405       4.17846440      -0.35029493       0.10668896      -0.30683729
Si       1.42346296       4.56770191       2.10017043       0.21611692       0.11673230      -0.06981631
Si       6.33015144       3.85537122       0.84942263      -0.21611692      -0.11673230       0.06981631
Si       7.81137526       7.28866327       0.06105116       0.32422228      -0.31013699       0.13566657
Si      -0.05776085       1.13440986       2.88854190      -0.32422228       0.31013699      -0.13566657
Si       1.68451611       1.24531509       1.31663521      -0.37378081      -0.44993411      -0.45969982
Si       6.06909830       7.17775804       1.63295786       0.37378081       0.44993411       0.45969982
Si       5.70220951       7.57977452      -0.98889510      -0.13001633       0.15080826       0.38210208
Si       2.05140490       0.84329861       3.93848817       0.13001633      -0.15080826      -0.38210208
16
Lattice="7.527345093018963 0.6350624143184769 -1.6766866089356278 1.3797404266277282 7.471886147841496 -1.232763381742783 -1.2927392663957147 0.2604505714533908 5.842055957233985" Properties=species:S:1:pos:R:3:forces:R:3 unique_starting_index=30 config_type=initial n_minim_iter=4 energy=-2603.708299704465 stress="-0.0041096863789429365 -0.0008443981553184374 -0.002353898461507518 -0.0008443981553184374 0.005351974165372867 -0.0021870147970761357 -0.002353898461507518 -0.0021870147970761357 0.0018621617919528225" free_energy=-2603.708299704465 pbc="T T T"
Si       3.31437838       5.96785801       1.90266716       0.23449870      -0.01515292      -0.24703551
Si       4.29996788       2.39954113       1.02993881      -0.23449870       0.01515292       0.24703551
Si       2.16015336       3.24713660       0.26615381      -0.08374201      -0.25252694       0.09341199
Si       5.45419290       5.12026253       2.66645215       0.08374201       0.25252694      -0.09341199
Si       4.02938504       1.93450510       3.36743679       0.12696484       0.22367362      -0.01017549
Si       3.58496122       6.43289404      -0.43483082      -0.12696484      -0.22367362       0.01017549
Si       5.37193377       4.75600682      -1.19589310       0.23887962      -0.08111954       0.10742340
Si       2.24241249       3.61139232       4.12849906      -0.23887962       0.08111954      -0.10742340
Si       1.38160753       4.57098885       2.08674470       0.04150380      -0.09148982      -0.10050518
Si       6.23273872       3.79641028       0.84586127      -0.04150380       0.09148982       0.10050518
Si       7.69936597       7.20172115       0.06748870       0.27058319       0.02348010       0.05042846
Si      -0.08501972       1.16567799       2.86511727      -0.27058319      -0.02348010      -0.05042846
Si       1.64534966       1.20101765       1.28902125      -0.50241304      -0.24815335      -0.54279833
Si       5.96899659       7.16638148       1.64358472       0.50241304       0.24815335       0.54279833
Si       5.58850312       7.54507511      -0.95339977      -0.04554916       0.23636296       0.18205511
Si       2.02584313       0.82232403       3.88600573       0.04554916      -0.23636296      -0.18205511
16
Lattice="7.611277981572982 0.6215511059348643 -1.654265927631378 1.3913269409610978 7.402919644904055 -1.201450653807839 -1.2931518528037875 0.2790703437594519 5.833727239516969" Properties=species:S:1:pos:R:3:forces:R:3 unique_starting_index=30 config_type=initial n_minim_iter=5 energy=-2603.779568171803 stress="0.004583873157859582 0.001722705581747734 -0.0008525884149416116 0.001722705581747734 -0.0015717514550244273 -0.0012631427467659042 -0.0008525884149416116 -0.0012631427467659042 0.0013916631137358422" free_energy=-2603.779568171803 pbc="T T T"
Si       3.36031673       5.91516219       1.91475196       0.29471992      -0.11787604      -0.10154134
Si       4.34913634       2.38837890       1.06325870      -0.29471992       0.11787604       0.10154134
Si       2.17787953       3.22144635       0.29147356       0.15571924      -0.32980842      -0.04875037
Si       5.53157354       5.08209475       2.68653709      -0.15571924       0.32980842       0.04875037
Si       4.09000214       1.92939144       3.37912664       0.00863009       0.39986700       0.19864363
Si       3.61945093       6.37414966      -0.40111598      -0.00863009      -0.39986700      -0.19864363
Si       5.44787251       4.70484865      -1.14424658       0.05127272      -0.10927271      -0.19086518
Si       2.26158056       3.59869244       4.12225724      -0.05127271       0.10927271       0.19086518
Si       1.41029798       4.54529500       2.10254462       0.13832910      -0.21088868      -0.10708976
Si       6.29915509       3.75824610       0.87546604      -0.13832910       0.21088868       0.10708976
Si       7.80604371       7.11448352       0.11559989      -0.09148610       0.48970465       0.04470317
Si      -0.09659064       1.18905758       2.86241077       0.09148610      -0.48970465      -0.04470317
Si       1.65133104       1.16582011       1.27468127      -0.68130929      -0.01709781      -0.33642678
Si       6.05812203       7.13772098       1.70332939       0.68130929       0.01709781       0.33642678
Si       5.65029025       7.48261310      -0.88830850       0.05848280       0.08987449       0.16935372
Si       2.05916282       0.82092800       3.86631916      -0.05848280      -0.08987449      -0.16935372
16
Lattice="7.5389100748889675 0.5884934905149198 -1.6421168961204897 1.350454854923085 7.421046848845478 -1.1613479083527634 -1.2758894549146282 0.31515279839163374 5.83684474301354" Properties=species:S:1:pos:R:3:forces:R:3 unique_starting_index=30 config_type=initial n_minim_iter=6 energy=-2603.831677090053 stress="-0.0015568587543844964 -0.0011501963615438682 -0.0002973495175957106 -0.0011501963615438682 -8.695075456412013e-05 0.002389170956073735 -0.0002973495175957106 0.002389170956073735 -0.0005591135266023328" free_energy=-2603.831677090053 pbc="T T T"
Si       3.31762527       5.93028548       1.93993004       0.35681365       0.03554388      -0.04517224
Si       4.29585021       2.39440766       1.09344990      -0.35681365      -0.03554388       0.04517224
Si       2.14440261       3.22454910       0.31652176       0.10184262      -0.31640297      -0.08625932
Si       5.46907287       5.10014404       2.71685818      -0.10184262       0.31640297       0.08625932
Si       4.05384096       1.94672175       3.39869133       0.06711219       0.40300212       0.23366731
Si       3.55963451       6.37797139      -0.36531139      -0.06711219      -0.40300212      -0.23366731
Si       5.39223123       4.69374665      -1.10239132      -0.05828041      -0.07670208      -0.28617910
Si       2.22124424       3.63094648       4.13577126       0.05828041       0.07670208       0.28617910
Si       1.39045749       4.57047373       2.12684675       0.00177002      -0.32927045      -0.18756544
Si       6.22301799       3.75421941       0.90653319      -0.00177002       0.32927045       0.18756544
Si       7.72052892       7.10722073       0.16593120      -0.10861389       0.59139473      -0.01912452
Si      -0.10705345       1.21747241       2.86744873       0.10861389      -0.59139473       0.01912452
Si       1.61342220       1.15163333       1.26460860      -0.66827775      -0.00842944      -0.36479771
Si       6.00005327       7.17305980       1.76877134       0.66827775       0.00842944       0.36479771
Si       5.57273122       7.49412662      -0.82398436       0.07495766       0.20031012       0.06899808
Si       2.04074426       0.83056652       3.85736430      -0.07495766      -0.20031012      -0.06899808
16
Lattice="7.4412822499744085 0.585828542519064 -1.5754798737770874 1.3092455509510883 7.457574897374621 -1.1955008192563974 -1.2130742728605037 0.27953719774042807 5.80387793730392" Properties=species:S:1:pos:R:3:forces:R:3 unique_starting_index=30 config_type=initial n_minim_iter=7 energy=-2603.9460078323123 stress="-0.008125758538529024 -0.002372196775499387 0.005449612470205942 -0.002372196775499387 0.00021011859017326632 0.0003520347751081546 0.005449612470205942 0.0003520347751081546 -0.005344749743617761" free_energy=-2603.9460078323123 pbc="T T T"
Si       3.30537077       5.92389237       1.89981653       0.37215587       0.10594711       0.05359200
Si       4.23208276       2.39904827       1.13308071      -0.37215587      -0.10594711      -0.05359200
Si       2.11446875       3.21676131       0.31948019       0.09621652      -0.63295550      -0.18741439
Si       5.42298477       5.10617933       2.71341706      -0.09621652       0.63295550       0.18741439
Si       4.04180238       1.94523400       3.41869898      -0.01692794       0.44551224       0.35297865
Si       3.49565115       6.37770663      -0.38580173       0.01692793      -0.44551224      -0.35297865
Si       5.33384538       4.69895379      -1.07100042      -0.17291570      -0.13913048      -0.31986410
Si       2.20360815       3.62398684       4.10389766       0.17291570       0.13913048       0.31986410
Si       1.39654711       4.56640913       2.09133723      -0.22413797      -0.17503747      -0.02084128
Si       6.14090642       3.75653151       0.94156002       0.22413797       0.17503747       0.02084129
Si       7.63742978       7.11909393       0.18938466      -0.03559873       0.47447748      -0.16121363
Si      -0.09997625       1.20384671       2.84351258       0.03559873      -0.47447748       0.16121363
Si       1.55018128       1.10864011       1.22225844      -0.45327388       0.13440110      -0.52393008
Si       5.98727225       7.21430053       1.81063881       0.45327388      -0.13440110       0.52393008
Si       5.49214017       7.53618276      -0.78820952       0.07993070       0.18632613      -0.06200652
Si       2.04531336       0.78675788       3.82110677      -0.07993070      -0.18632612       0.06200652
16
Lattice="7.413394909511281 0.5397718309919284 -1.6086166210727928 1.2641045984031847 7.456177768602597 -1.196603583091359 -1.2363608113619897 0.2907585853093419 5.804712754015894" Properties=species:S:1:pos:R:3:forces:R:3 unique_starting_index=30 config_type=initial n_minim_iter=8 energy=-2604.09308214278 stress="-0.011075408437910397 -0.005093138451863078 0.0009981209367036852 -0.005093138451863078 0.0026959964810744485 0.0026926335329899038 0.0009981209367036852 0.0026926335329899038 -0.00829566026044942" free_energy=-2604.09308214278 pbc="T T T"
Si       3.28171179       5.89542448       1.85545115       0.23230972       0.24724535       0.08958571
Si       4.15942690       2.39128370       1.14404140      -0.23230972      -0.24724535      -0.08958571
Si       2.08504145       3.17454286       0.31725795      -0.03186103      -0.57254587      -0.32453940
Si       5.35609725       5.11216533       2.68223459       0.03186103       0.57254587       0.32453940
Si       4.00581405       1.96376177       3.41710279      -0.24946300       0.19502916       0.36991031
Si       3.43532465       6.32294642      -0.41761024       0.24946300      -0.19502916      -0.36991031
Si       5.31309659       4.65280686      -1.08256457      -0.26763964      -0.06621122      -0.48079873
Si       2.12804211       3.63390132       4.08205712       0.26763964       0.06621122       0.48079873
Si       1.37016828       4.55154577       2.07147435      -0.42760961       0.04937736      -0.15690196
Si       6.07097042       3.73516241       0.92801820       0.42760961      -0.04937736       0.15690196
Si       7.57992591       7.09039746       0.16243455      -0.26794036       0.03849519      -0.08964883
Si      -0.13878721       1.19631073       2.83705800       0.26794036      -0.03849519       0.08964883
Si       1.44846830       1.05680938       1.14571455      -0.27000610       0.20498875      -0.28689483
Si       5.99267039       7.22989880       1.85377800       0.27000610      -0.20498875       0.28689483
Si       5.43244141       7.53452341      -0.76207109      -0.11074366       0.07629305      -0.11376327
Si       2.00869729       0.75218478       3.76156364       0.11074366      -0.07629305       0.11376327
16
Lattice="7.435962062376342 0.5678123531847676 -1.5904983419628032 1.2945638653477973 7.384238798341764 -1.2186520392859062 -1.203544204010805 0.274537505597166 5.902520996844155" Properties=species:S:1:pos:R:3:forces:R:3 unique_starting_index=30 config_type=initial n_minim_iter=9 energy=-2604.2088853648233 stress="-0.005515374921882485 -0.004845750112637258 0.002507654219639563 -0.004845750112637258 -0.002479667091397027 0.0005926473998048482 0.002507654219639563 0.0005926473998048482 0.008172888614265336" free_energy=-2604.2088853648233 pbc="T T T"
Si       3.36136929       5.84024871       1.89163189      -0.03005400       0.11791817      -0.22294029
Si       4.16561244       2.38633994       1.20173873       0.03005400      -0.11791817       0.22294029
Si       2.11618942       3.11166184       0.32574309      -0.17779267      -0.29306452      -0.30429090
Si       5.41079230       5.11492681       2.76762752       0.17779267       0.29306452       0.30429090
Si       4.04983228       1.98956591       3.52618937      -0.29202613       0.03934255       0.06982353
Si       3.47714944       6.23702274      -0.43281875       0.29202613      -0.03934255      -0.06982353
Si       5.35289401       4.61618709      -1.08978479      -0.10730175      -0.16513483      -0.16220364
Si       2.17408771       3.61040157       4.18315541       0.10730175       0.16513482       0.16220363
Si       1.41171310       4.49379585       2.10005350      -0.22184858       0.13383274       0.03255601
Si       6.11526862       3.73279281       0.99331711       0.22184858      -0.13383274      -0.03255601
Si       7.63904572       7.07551542       0.20816083      -0.48363503      -0.67333121      -0.03971956
Si      -0.11206399       1.15107324       2.88520978       0.48363503       0.67333121       0.03971956
Si       1.40485302       1.04158424       1.13104631      -0.21887197      -0.01474984      -0.21443217
Si       6.12212870       7.18500442       1.96232431       0.21887197       0.01474984       0.21443217
Si       5.48445909       7.49283400      -0.72970163      -0.12211605      -0.16656120      -0.11110971
Si       2.04252263       0.73375466       3.82307224       0.12211605       0.16656120       0.11110971
16
Lattice="7.5108280113058985 0.6586302485514803 -1.5821769219785202 1.3934370867263095 7.430048332189237 -1.2106222919129312 -1.2188824709307564 0.25817622048857053 5.832669586696224" Properties=species:S:1:pos:R:3:forces:R:3 unique_starting_index=30 config_type=initial n_minim_iter=10 energy=-2604.2648319571076 stress="-0.00044485195845640876 0.0034322082781702446 0.0009048121931138326 0.0034322082781702446 0.004040073125422187 0.0004173659917650094 0.0009048121931138326 0.0004173659917650094 -0.0012136305221037973" free_energy=-2604.2648319571076 pbc="T T T"
Si       3.47027224       5.90115843       1.85228814      -0.38963999      -0.00517508      -0.07063503
Si       4.21511039       2.44569637       1.18758223       0.38963999       0.00517508       0.07063503
Si       2.17271661       3.12810134       0.31048626      -0.33022265      -0.29111985      -0.28462881
Si       5.51266601       5.21875346       2.72938411       0.33022265       0.29111985       0.28462881
Si       4.10041890       2.06050448       3.48830550      -0.46482308      -0.13178044       0.25277600
Si       3.58496373       6.28635032      -0.44843512       0.46482308       0.13178044      -0.25277600
Si       5.45683304       4.69161545      -1.09700491      -0.23449528      -0.20872611      -0.15846414
Si       2.22854959       3.65523935       4.13687528       0.23449528       0.20872611       0.15846414
Si       1.47353342       4.52271056       2.06358740      -0.01313718       0.40852818      -0.06234568
Si       6.21184920       3.82414425       0.97628297       0.01313718      -0.40852818       0.06234568
Si       7.78269123       7.20247910       0.19084849      -0.18743778      -0.50610254      -0.09575210
Si      -0.09730861       1.14437570       2.84902189       0.18743778       0.50610254       0.09575210
Si       1.39564339       1.05738005       1.09226126      -0.02135131       0.00601022      -0.35955410
Si       6.28973924       7.28947475       1.94760911       0.02135131      -0.00601022       0.35955410
Si       5.62092042       7.59318915      -0.72485534      -0.32430740      -0.21527209      -0.11711928
Si       2.06446221       0.75366565       3.76472571       0.32430740       0.21527209       0.11711928
16
Lattice="7.582175605140597 0.6210699183892633 -1.6161603152119688 1.3712279308758308 7.384559842657431 -1.2498101267832207 -1.2589138596624918 0.23475450604846132 5.817517108299198" Properties=species:S:1:pos:R:3:forces:R:3 unique_starting_index=30 config_type=initial n_minim_iter=11 energy=-2604.3191306508334 stress="0.0041666187352085975 0.00035538715267995275 -0.0006012617846400651 0.00035538715267995275 0.0009185117244556413 -0.0015790347649046682 -0.0006012617846400651 -0.0015790347649046682 -0.000660581142065688" free_energy=-2604.3191306508334 pbc="T T T"
Si       3.46125091       5.83685797       1.79384274      -0.30221569      -0.11192005      -0.03756243
Si       4.23323877       2.40352630       1.15770392       0.30221569       0.11192005       0.03756243
Si       2.16920984       3.08453256       0.27767836      -0.13601873      -0.22318005      -0.24267042
Si       5.52527984       5.15585171       2.67386830       0.13601873       0.22318005       0.24267042
Si       4.10180444       2.01381378       3.45483181      -0.44003840      -0.15477426       0.21743698
Si       3.59268523       6.22657049      -0.50328515       0.44003840       0.15477426      -0.21743698
Si       5.48487941       4.63306609      -1.14649737      -0.09880472      -0.21691142      -0.15210444
Si       2.20961026       3.60731817       4.09804403       0.09880472       0.21691142       0.15210444
Si       1.45276562       4.48232276       2.02361006       0.04201074       0.35704683      -0.06777326
Si       6.24172405       3.75806150       0.92793661      -0.04201074      -0.35704683       0.06777326
Si       7.80802984       7.10843300       0.11706661      -0.29675024      -0.40130937      -0.00860120
Si      -0.11354017       1.13195127       2.83448005       0.29675024       0.40130937       0.00860120
Si       1.38124847       1.03294396       1.06068337      -0.10743574      -0.06028352      -0.20375136
Si       6.31324120       7.20744030       1.89086330       0.10743574       0.06028352       0.20375135
Si       5.62914810       7.52044997      -0.78191010      -0.23295948      -0.33818353      -0.12920823
Si       2.06534158       0.71993430       3.73345677       0.23295948       0.33818353       0.12920823
16
Lattice="7.636538826279365 0.6227083217443942 -1.659880932880241 1.3932150611587744 7.310289316741983 -1.2636763445447752 -1.2958255687191107 0.22785128871393934 5.839664483034982" Properties=species:S:1:pos:R:3:forces:R:3 unique_starting_index=30 config_type=initial n_minim_iter=12 energy=-2604.4116374359846 stress="0.004539467961311661 5.7313198565998223e-05 -0.00294290024636719 5.7313198565998223e-05 -0.004375363718547707 -0.0005205843280393947 -0.00294290024636719 -0.0005205843280393947 0.006525297708368639" free_energy=-2604.4116374359846 pbc="T T T"
Si       3.47790208       5.77185364       1.75819398      -0.16461912      -0.10427303      -0.10355357
Si       4.25602624       2.38899529       1.15791322       0.16461912       0.10427303       0.10355357
Si       2.17000528       3.01429765       0.24319979      -0.00998178       0.19972660      -0.08251790
Si       5.56392304       5.14655127       2.67290741       0.00998178      -0.19972660       0.08251790
Si       4.07959688       2.00906248       3.47261058      -0.25781760      -0.14458934      -0.01839318
Si       3.65433144       6.15178644      -0.55650338       0.25781760       0.14458934       0.01839318
Si       5.52643239       4.56745059      -1.19578687       0.16149502      -0.23707918      -0.00553323
Si       2.20749593       3.59339834       4.11189407      -0.16149502       0.23707918       0.00553323
Si       1.45786193       4.45432117       2.00578741       0.35375002      -0.10944822      -0.11342009
Si       6.27606638       3.70652776       0.91031980      -0.35375002       0.10944822       0.11342009
Si       7.84122546       7.01555384       0.07378655      -0.30523934       0.38651793       0.04893777
Si      -0.10729714       1.14529508       2.84232065       0.30523934      -0.38651793      -0.04893777
Si       1.33038153       1.00522702       1.00222619      -0.24547469      -0.18378314      -0.04107644
Si       6.40354678       7.15562191       1.91388102       0.24547469       0.18378314       0.04107644
Si       5.65787639       7.43998657      -0.80501698      -0.03466611      -0.28543070      -0.23132842
Si       2.07605193       0.72086235       3.72112418       0.03466611       0.28543070       0.23132842
16
Lattice="7.621769548544394 0.6478567504577043 -1.6058051267048674 1.3992818180956734 7.3432218746375515 -1.2858951053496277 -1.264320356885106 0.19251532445310376 5.76156606504969" Properties=species:S:1:pos:R:3:forces:R:3 unique_starting_index=30 config_type=initial n_minim_iter=13 energy=-2604.4921532463236 stress="-0.00017951852628463898 -0.001470798065618887 0.002240935884436904 -0.001470798065618887 0.0008004716134281323 -0.0009506394866774836 0.002240935884436904 -0.0009506394866774836 -0.0037341315111117093" free_energy=-2604.4921532463236 pbc="T T T"
Si       3.50517263       5.77605019       1.69282108      -0.14352717       0.01007404       0.05078449
Si       4.25155838       2.40754376       1.17704475       0.14352717      -0.01007404      -0.05078449
Si       2.16374817       2.97848761       0.21110709      -0.00018762       0.24684825       0.14204921
Si       5.59298284       5.20510634       2.65875874       0.00018762      -0.24684825      -0.14204921
Si       4.06545307       2.02872944       3.47559183      -0.15860913      -0.23127157      -0.02468665
Si       3.69127794       6.15486451      -0.60572600       0.15860913       0.23127157       0.02468665
Si       5.53027314       4.56562957      -1.19842948       0.26039431      -0.31176367       0.25051999
Si       2.22645787       3.61796438       4.06829531      -0.26039431       0.31176367      -0.25051999
Si       1.48952337       4.46510652       1.94049525       0.28533307      -0.01829719      -0.01071596
Si       6.26720764       3.71848743       0.92937058      -0.28533307       0.01829719       0.01071596
Si       7.82726960       7.05465815       0.06895204       0.00817660       0.40829651      -0.11744946
Si      -0.07053859       1.12893580       2.80091379      -0.00817660      -0.40829651       0.11744946
Si       1.24961291       0.97570008       0.91610051      -0.11071097      -0.22969097      -0.36182532
Si       6.50711810       7.20789387       1.95376532       0.11071097       0.22969097       0.36182532
Si       5.64992354       7.47480202      -0.79660924       0.08393962      -0.04965647      -0.41409481
Si       2.10680747       0.70879193       3.66647508      -0.08393962       0.04965647       0.41409481
16
Lattice="7.60296206146786 0.7545704050137482 -1.5761470926797008 1.489338862092363 7.330349708410299 -1.319560960529191 -1.2414931540958114 0.13740153969660981 5.704859933905017" Properties=species:S:1:pos:R:3:forces:R:3 unique_starting_index=30 config_type=initial n_minim_iter=14 energy=-2604.815743749762 stress="-0.006851766771050212 0.010233140226411147 0.005249227178824081 0.010233140226411147 0.015638580376844492 0.001826815972792921 0.005249227178824081 0.001826815972792921 -0.006603900360940368" free_energy=-2604.815743749762 pbc="T T T"
Si       3.62741323       5.73909251       1.54038453       0.02210337       0.29769695       0.24168666
Si       4.22339454       2.48322914       1.26876735      -0.02210337      -0.29769695      -0.24168666