22
Lattice="2.523866632612409 -2.1968609774757388e-13 -3.8050748272345477e-13 1.134749210577877e-12 13.036581278127795 -5.222123070704651e-13 1.1347492092723408e-12 -6.518290639063446 11.290010565359536" Properties=species:S:1:pos:R:3:forces:R:3 unique_starting_index=470 config_type=initial n_minim_iter=1 energy=-3581.42496899769 stress="-0.00018647081427230306 -2.274003623934285e-12 -8.836937617229313e-13 -2.274003623934285e-12 -0.0003292685625021396 6.222183000945456e-12 -8.836937617229313e-13 6.222183000945456e-12 -0.0003292685728215916" free_energy=-3581.42496899769 pbc="T T T"
Si       2.04510688       6.04352652      -1.12865579       0.00933248      -0.13234514      -0.01853020
Si       2.04510688       2.51908280       6.62049096       0.00933248       0.05012495       0.12387935
Si       2.04510688      10.99226259       5.79817538       0.00933248       0.08222019      -0.10534915
Si       2.15132288       5.19631330       9.36177741       0.04998783      -0.06691149      -0.18220229
Si       2.15132288      -1.00891023       2.10898253       0.04998783      -0.12433607       0.14904820
Si       2.15132288      -4.18740308      11.10926118       0.04998783       0.19124756       0.03315409
Si       2.17994672       8.73062209       1.36990843       0.01645707       0.28186892       0.07676077
Si       2.17994672       3.33935509       3.04411583       0.01645707      -0.07445769      -0.28248603
Si       2.17994672       7.48489473       6.87598630       0.01645707      -0.20741124       0.20572526
Si       2.01089677      -1.82740242       8.19602266       0.02993419      -0.17661957       0.21069351
Si       2.01089677       1.49337440       8.77457614       0.02993419       0.27077572       0.04761028
Si       2.01089677       0.33402801       5.60942232       0.02993419      -0.09415614      -0.25830379
Si      -0.20513551       6.53820788       2.30846415      -0.12949222      -0.22963805      -0.23210436
Si      -0.20513551       5.24837529       4.47352436      -0.12949222      -0.08618925       0.31492456
Si      -0.20513551       7.76828873       4.50802205      -0.12949222       0.31582729      -0.08282020
Si      -0.32135051      10.05019117       3.50982705      -0.01605349       0.14867436      -0.05401742
Si      -0.32135051       4.53279444       0.83137617      -0.01605349      -0.12111764      -0.10174706
Si      -0.32135051       4.97188630       6.94880734      -0.01605349      -0.02755672       0.15576449
Si       2.09529507      -4.08965144       8.77394433       0.03839635       0.04019413      -0.22128292
Si       2.09529507       3.12499376      10.44478043       0.03839635      -0.21173369       0.07583232
Si       2.09529507       0.96465767       3.36129636       0.03839635       0.17153957       0.14545059
Si       2.15931480      -0.00000000      -0.00000000       0.00431336       0.00000000       0.00000000
22
Lattice="2.529244613863934 -2.2015421587221657e-13 -3.813182870986578e-13 1.1390223426204367e-12 13.085673211980414 -5.221444194934865e-13 1.1390223413099835e-12 -6.542836605989755 11.332525427196806" Properties=species:S:1:pos:R:3:forces:R:3 unique_starting_index=470 config_type=initial n_minim_iter=2 energy=-3581.4447050233325 stress="0.005060073439355843 2.8672402020846317e-13 -1.9059751628568997e-12 2.8672402020846317e-13 0.0076816442778248305 -4.734771422581911e-12 -1.9059751628568997e-12 -4.734771422581911e-12 0.007681644272266689" free_energy=-3581.4447050233325 pbc="T T T"
Si       2.04975209       6.06220245      -1.13347754       0.00947584      -0.08178739      -0.05937471
Si       2.04975209       2.53011503       6.64924286       0.00947584      -0.01052631       0.10051731
Si       2.04975209      11.03619232       5.81676009       0.00947584       0.09231370      -0.04114260
Si       2.15744640       5.21381719       9.39141105       0.04695757      -0.10672685      -0.04003244
Si       2.15744640      -1.01654466       2.12152176       0.04695757       0.01869432       0.11244439
Si       2.15744640      -4.19727254      11.15211804       0.04695757       0.08803254      -0.07241195
Si       2.18509865       8.77219335       1.37743480       0.02414596       0.17600993       0.12122878
Si       2.18509865       3.34963346       3.04686573       0.02414596       0.01698224      -0.21304346
Si       2.18509865       7.50668300       6.90822489       0.02414596      -0.19299217       0.09181468
Si       2.01610351      -1.83973174       8.23338536       0.02802658      -0.17116377       0.13061019
Si       2.01610351       1.50735014       8.80908717       0.02802659       0.19869363       0.08292707
Si       2.01610351       0.33238159       5.62257832       0.02802659      -0.02752986      -0.21353727
Si      -0.20956033       6.55574562       2.30999784      -0.13455032      -0.14253085      -0.16479680
Si      -0.20956033       5.26548060       4.50008425      -0.13455032      -0.07145279       0.20583374
Si      -0.20956033       7.80728358       4.52244333      -0.13455032       0.21398364      -0.04103694
Si      -0.32252963      10.09262313       3.52137785      -0.01339514       0.11306380      -0.03112411
Si      -0.32252963       4.54612771       0.83136848      -0.01339514      -0.08348617      -0.08235407
Si      -0.32252963       4.98975897       6.97977909      -0.01339514      -0.02957763       0.11347818
Si       2.10094224      -4.10381207       8.80015891       0.03861524       0.02892327      -0.09526706
Si       2.10094224       3.13023060      10.48645147       0.03861524      -0.09696533       0.02258524
Si       2.10094224       0.97358146       3.37844046       0.03861524       0.06804206       0.07268182
Si       2.16404881      -0.00000000      -0.00000000       0.00217276      -0.00000000      -0.00000000
22
Lattice="2.5223033613195174 -2.195500251969807e-13 -3.802717981524929e-13 1.1353730369193366e-12 13.043748115282709 -5.238727722727852e-13 1.1353730356130833e-12 -6.5218740576409004 11.296217228400483" Properties=species:S:1:pos:R:3:forces:R:3 unique_starting_index=470 config_type=initial n_minim_iter=3 energy=-3581.4829491493615 stress="-0.0014863062698254573 -3.33388001349647e-13 1.6168869262411726e-12 -3.33388001349647e-13 0.0006389091821903025 1.5683909872897395e-12 1.6168869262411726e-12 1.5683909872897395e-12 0.0006389091978013502" free_energy=-3581.4829491493615 pbc="T T T"
Si       2.04468337       6.03506110      -1.13109501       0.01692893       0.04723422      -0.01342664
Si       2.04468337       2.52478650       6.63524850       0.01692893      -0.03524492      -0.03419272
Si       2.04468337      11.00577457       5.79206372       0.01692893      -0.01198930       0.04761935
Si       2.15449360       5.19298066       9.35095028       0.03964225      -0.09648864       0.14760302
Si       2.15449360      -1.02020390       2.12348891       0.03964225       0.17607229       0.00976011
Si       2.15449360      -4.17277677      11.11799526       0.03964225      -0.07958364      -0.15736313
Si       2.18010945       8.76053388       1.37775764       0.02353036       0.04137864       0.16708875
Si       2.18010945       3.33478023       3.02049350       0.02353036       0.12401378      -0.11937932
Si       2.18010945       7.47030805       6.89796607       0.02353036      -0.16539242      -0.04770942
Si       2.01234757      -1.84435611       8.21929607       0.02552073      -0.01386773      -0.09290785
Si       2.01234757       1.51842320       8.78382843       0.02552073      -0.07352669       0.05846374
Si       2.01234757       0.32593290       5.58930995       0.02552073       0.08739443       0.03444412
Si      -0.21671917       6.52134647       2.28898493      -0.13239243      -0.03895627      -0.08244695
Si      -0.21671917       5.24351992       4.50407305      -0.13239243      -0.05192302       0.07496059
Si      -0.21671917       7.80075578       4.50315924      -0.13239243       0.09087929       0.00748636
Si      -0.32259178      10.06903290       3.50695322      -0.01655847       0.06738331       0.04565979
Si      -0.32259178       4.52446819       0.82270232      -0.01655847       0.00585088      -0.08118555
Si      -0.32259178       4.97212107       6.96656167      -0.01655847      -0.07323419       0.03552576
Si       2.09746517      -4.08830533       8.75920402       0.04158859      -0.13798678       0.09314362
Si       2.09746517       3.10797181      10.45719148       0.04158859       0.14965813       0.07292824
Si       2.09746517       0.98033351       3.37603894       0.04158859      -0.01167136      -0.16607187
Si       2.15835933      -0.00000000      -0.00000000       0.00522007      -0.00000000       0.00000000
22
Lattice="2.527458795649459 -2.1999877206636927e-13 -3.81049050529415e-13 1.1344830807335287e-12 13.033523841899566 -5.21980397487034e-13 1.1344830794282993e-12 -6.516761920949328 11.287362747915436" Properties=species:S:1:pos:R:3:forces:R:3 unique_starting_index=470 config_type=initial n_minim_iter=4 energy=-3581.4845119575393 stress="0.0016999623551763935 1.3676338319421187e-13 -2.4774606574310516e-12 1.3676338319421187e-13 -0.00046679372277102333 -1.8440756122380203e-12 -2.4774606574310516e-12 -1.8440756122380203e-12 -0.00046679373067928993" free_energy=-3581.4845119575393 pbc="T T T"
Si       2.04895343       6.03009936      -1.13031879       0.01414833       0.05267105      -0.01694787
Si       2.04895343       2.52282745       6.63030290       0.01414833      -0.04101281      -0.03714054
Si       2.04895343      10.99735894       5.78737863       0.01414833      -0.01165824       0.05408841
Si       2.15919676       5.18834652       9.34361152       0.03915612      -0.09235770       0.15326956
Si       2.15919676      -1.01913024       2.12231709       0.03915612       0.17891418       0.00334933
Si       2.15919676      -4.16921629      11.10879687       0.03915612      -0.08655649      -0.15661889
Si       2.18470327       8.75467894       1.37753052       0.02269283       0.03761149       0.16670694
Si       2.18470327       3.33239887       3.01682311       0.02269282       0.12556670      -0.11592598
Si       2.18470327       7.46320794       6.89300911       0.02269283      -0.16317819      -0.05078096
Si       2.01664656      -1.84350637       8.21315671       0.02494204      -0.00901101      -0.10127025
Si       2.01664656       1.51779362       8.77730773       0.02494204      -0.08319710       0.05843889
Si       2.01664656       0.32571274       5.58426104       0.02494204       0.09220811       0.04283136
Si      -0.21804798       6.51539120       2.28617851      -0.12930578      -0.03000473      -0.07840538
Si      -0.21804798       5.23895499       4.50177919      -0.12930578      -0.05289869       0.06518755
Si      -0.21804798       7.79593957       4.49940504      -0.12930578       0.08290342       0.01321783
Si      -0.32336116      10.06184276       3.50420669      -0.01564140       0.06549528       0.04782819
Si      -0.32336116       4.52057255       0.82144795      -0.01564140       0.00867278      -0.08063467
Si      -0.32336116       4.96787044       6.96170809      -0.01564141      -0.07416807       0.03280649
Si       2.10202334      -4.08548245       8.75200753       0.04202048      -0.14557466       0.08848417
Si       2.10202334       3.10544015      10.44949056       0.04202048       0.14941687       0.08182927
Si       2.10202334       0.98004228       3.37322740       0.04202048      -0.00384220      -0.17031344
Si       2.16280313      -0.00000000      -0.00000000       0.00596215       0.00000000       0.00000000
22
Lattice="2.5236693110356923 -2.1966892219375102e-13 -3.8047773379160837e-13 1.1340237960248317e-12 13.028247343463649 -5.017222913099541e-13 1.1340237947201248e-12 -6.5141236717313875 11.282793166226893" Properties=species:S:1:pos:R:3:forces:R:3 unique_starting_index=470 config_type=initial n_minim_iter=5 energy=-3581.519082514843 stress="-0.001354119032387356 1.80158147111608e-12 -1.5441161341022305e-14 1.80158147111608e-12 -0.0017300817701496889 3.5323913830582115e-14 -1.5441161341022305e-14 3.5323913830582115e-14 -0.0017300817778463666" free_energy=-3581.519082514843 pbc="T T T"
Si       2.04879136       6.02596845      -1.13338233       0.01952014       0.08135024      -0.03132139
Si       2.04879136       2.51960155       6.63084256       0.01952014      -0.06780023      -0.05479068
Si       2.04879136      10.99680100       5.78533293       0.01952014      -0.01355000       0.08611206
Si       2.16512073       5.16785374       9.34950374       0.02838621       0.05586538       0.14553827
Si       2.16512073      -1.00114279       2.13254866       0.02838621       0.09810715      -0.12114997
Si       2.16512073      -4.16671096      11.08353392       0.02838621      -0.15397252      -0.02438830
Si       2.18593540       8.77600694       1.40661011       0.01509897      -0.10944912       0.06329665
Si       2.18593540       3.34428029       2.97924315       0.01509897       0.10954107       0.06313740
Si       2.18593540       7.42208378       6.89693989       0.01509897      -0.00009194      -0.12643404
Si       2.01934849      -1.85647750       8.20995909       0.02825436      -0.00477809      -0.10261154
Si       2.01934849       1.52414821       8.78557029       0.02825436      -0.08647515       0.05544372
Si       2.01934849       0.33232928       5.57005694       0.02825436       0.09125325       0.04716782
Si      -0.24567384       6.49214566       2.25775862      -0.11142773       0.11195494       0.12313025
Si      -0.24567384       5.22332716       4.53155079      -0.11142773       0.05065645      -0.15852095
Si      -0.24567384       7.82689819       4.49348375      -0.11142773      -0.16261140       0.03539070
Si      -0.32632096      10.07756545       3.50594623      -0.01804836       0.10917744       0.08792196
Si      -0.32632096       4.51157944       0.80239235      -0.01804836       0.02155393      -0.13851141
Si      -0.32632096       4.95322611       6.97445457      -0.01804836      -0.13073137       0.05058946
Si       2.10759554      -4.10177298       8.74677274       0.03381484      -0.11661811      -0.08870617
Si       2.10759554       3.11169021      10.46164639       0.03381484      -0.01851274       0.14534733
Si       2.10759554       0.99008276       3.35716719       0.03381484       0.13513085      -0.05664116
Si       2.16066753      -0.00000000      -0.00000000       0.01320474      -0.00000000       0.00000000
22
Lattice="2.524785706029114 -2.1976609708266174e-13 -3.806460456362925e-13 1.1347299338098289e-12 13.036359816723689 -4.95633133345386e-13 1.134729932504307e-12 -6.518179908361414 11.289818774157604" Properties=species:S:1:pos:R:3:forces:R:3 unique_starting_index=470 config_type=initial n_minim_iter=6 energy=-3581.5299299748267 stress="-0.00026583181935842704 2.701730226788473e-12 1.764404393076472e-12 2.701730226788473e-12 -0.0002190676791503991 2.8072453774429595e-12 1.764404393076472e-12 2.8072453774429595e-12 -0.00021906766558167296" free_energy=-3581.5299299748267 pbc="T T T"
Si       2.05072446       6.03263786      -1.13545783       0.01830025       0.03173410      -0.05224066
Si       2.05072446       2.51852565       6.63313005       0.01830025      -0.06110879      -0.00136220
Si       2.05072446      11.00337621       5.79214655       0.01830025       0.02937469       0.05360287
Si       2.16847219       5.16744157       9.36360277       0.02653437       0.08064686       0.05992452
Si       2.16847219      -0.99278283       2.13288171       0.02653437       0.01157272      -0.09980449
Si       2.16847219      -4.17465875      11.08315306       0.02653437      -0.09221959       0.03987997
Si       2.18824407       8.78255256       1.41619381       0.01193957      -0.10029995       0.02563840
Si       2.18824407       3.35336344       2.97580824       0.01193957       0.07235348       0.07404311
Si       2.18824407       7.41862372       6.89781672       0.01193957       0.02794647      -0.09968151
Si       2.02192465      -1.85908856       8.21010181       0.03027958      -0.05423668      -0.01041468
Si       2.02192465       1.52152111       8.79478579       0.03027958       0.01809897       0.05217768
Si       2.02192465       0.33756745       5.57474994       0.03027958       0.03613772      -0.04176301
Si      -0.25386334       6.49557550       2.25668157      -0.10380391       0.10153358       0.14120010
Si      -0.25386334       5.22473573       4.53614458      -0.10380391       0.07151609      -0.15853071
Si      -0.25386334       7.83422849       4.49699261      -0.10380391      -0.17304967       0.01733060
Si      -0.32751936      10.08908903       3.51133071      -0.01781211       0.13279343       0.06778015
Si      -0.32751936       4.51453699       0.79674600      -0.01781211      -0.00769738      -0.14889255
Si      -0.32751936       4.95091369       6.98174205      -0.01781211      -0.12509604       0.08111241
Si       2.11106215      -4.11210765       8.75395290       0.02967066      -0.04584309      -0.19259092
Si       2.11106215       3.11901951      10.47403200       0.02967066      -0.14386708       0.13599674
Si       2.11106215       0.99308813       3.35165264       0.02967066       0.18971017       0.05659418
Si       2.16209015      -0.00000000      -0.00000000       0.01467479      -0.00000000       0.00000000
22
Lattice="2.5271949061053665 -2.1997580220598564e-13 -3.8100926556421837e-13 1.1359120808362699e-12 13.049940928434713 -4.799074820158333e-13 1.1359120795293825e-12 -6.52497046421694 11.301580361910979" Properties=species:S:1:pos:R:3:forces:R:3 unique_starting_index=470 config_type=initial n_minim_iter=7 energy=-3581.5472838942715 stress="0.001669955483836342 -1.8909470088604772e-12 -9.127251855317806e-13 -1.8909470088604772e-12 0.0022136052654661673 -5.779409177940818e-13 -9.127251855317806e-13 -5.779409177940818e-13 0.002213605268855869" free_energy=-3581.5472838942715 pbc="T T T"
Si       2.05638609       6.04611252      -1.14308676       0.01352265      -0.08663500      -0.09842035
Si       2.05638609       2.51197203       6.63703670       0.01352265      -0.04191702       0.12423828
Si       2.05638609      11.01682683       5.80763041       0.01352265       0.12855202      -0.02581793
Si       2.17885921       5.16541154       9.39560159       0.01613549       0.06094300      -0.10751025
Si       2.17885921      -0.97084657       2.13040195       0.01613549      -0.12357811       0.00097694
Si       2.17885921      -4.19456498      11.07715717       0.01613549       0.06263511       0.10653331
Si       2.19470998       8.79405451       1.44351137       0.00114404      -0.08027040      -0.02851997
Si       2.19470998       3.37806072       2.96395006       0.00114404       0.01543618       0.08377620
Si       2.19470998       7.40279615       6.89411892       0.00114404       0.06483422      -0.05525622
Si       2.03016505      -1.86995272       8.20806243       0.03409920      -0.12167862       0.18742141
Si       2.03016505       1.51839647       8.81697570       0.03409920       0.22315101       0.01166608
Si       2.03016505       0.35155624       5.57812259       0.03409920      -0.10147239      -0.19908748
Si      -0.28229902       6.50187034       2.25530910      -0.07397251       0.04464137       0.15253146
Si      -0.28229902       5.22719026       4.54314092      -0.07397251       0.10977543      -0.11492629
Si      -0.28229902       7.84585078       4.50313034      -0.07397251      -0.15441680      -0.03760516
Si      -0.33168714      10.12166916       3.52577933      -0.01814780       0.13395623       0.02369251
Si      -0.33168714       4.51755035       0.77306807      -0.01814780      -0.04645980      -0.12785575
Si      -0.33168714       4.93569187       7.00273295      -0.01814780      -0.08749643       0.10416324
Si       2.12175546      -4.13860556       8.75625900       0.02095260       0.09260200      -0.30753277
Si       2.12175546       3.12747505      10.50758841       0.02095260      -0.31263219       0.07357070
Si       2.12175546       1.01113050       3.33931331       0.02095260       0.22003019       0.23396206
Si       2.16612812      -0.00000000      -0.00000000       0.01879903       0.00000000       0.00000000
22
Lattice="2.5264623374995216 -2.1991203689593688e-13 -3.8089882080753816e-13 1.135102184182985e-12 13.040636420047273 -4.598851766187484e-13 1.1351021828770238e-12 -6.520318210023236 11.293522421277721" Properties=species:S:1:pos:R:3:forces:R:3 unique_starting_index=470 config_type=initial n_minim_iter=8 energy=-3581.5839356275783 stress="-0.00020387818668057242 -1.218511131336184e-12 -1.548731930753752e-12 -1.218511131336184e-12 0.00041207543883035126 3.682786393699816e-12 -1.548731930753752e-12 3.682786393699816e-12 0.000412075444664188" free_energy=-3581.5839356275783 pbc="T T T"
Si       2.06170192       6.04152428      -1.15731413       0.00617925      -0.06087646      -0.12984054
Si       2.06170192       2.49729263       6.64006597       0.00617925      -0.08200698       0.11764083
Si       2.06170192      11.02213771       5.81077057       0.00617925       0.14288344       0.01219971
Si       2.19094721       5.15836035       9.40297789      -0.00876304      -0.17342767       0.00148379
Si       2.19094721      -0.95628066       2.12476236      -0.00876304       0.08799884       0.14945087
Si       2.19094721      -4.20207970      11.05930458      -0.00876304       0.08542883      -0.15093467
Si       2.19984157       8.79117959       1.47233457      -0.01391493      -0.10821932       0.04939092
Si       2.19984157       3.39980755       2.94397027      -0.01391493       0.09688345       0.06902522
Si       2.19984157       7.36996748       6.87721757      -0.01391493       0.01133587      -0.11841614
Si       2.04071931      -1.89274088       8.20802218       0.03183653       0.00522774       0.09897940
Si       2.04071931       1.53440795       8.82867301       0.03183652       0.08310480      -0.05401705
Si       2.04071931       0.35833292       5.55034964       0.03183653      -0.08833254      -0.04496234
Si      -0.32573592       6.49544249       2.25648029      -0.02414669      -0.03761714       0.09169625
Si      -0.32573592       5.22676622       4.54006406      -0.02414669       0.09821985      -0.01327073
Si      -0.32573592       7.83874591       4.49697806      -0.02414669      -0.06060271      -0.07842552
Si      -0.33818164      10.15657160       3.53759153      -0.02018881      -0.04360109       0.01451447
Si      -0.33818164       4.50567654       0.72887763      -0.02018881       0.03437044       0.03050242
Si      -0.33818164       4.89870648       7.02705326      -0.02018881       0.00923065      -0.04501688
Si       2.13435593      -4.15564258       8.70939885       0.02123930       0.04288711       0.08759352
Si       2.13435593       3.10006373      10.53771503       0.02123930       0.05441466      -0.08093808
Si       2.13435593       1.05557883       3.33993095       0.02123930      -0.09730176      -0.00665543
Si       2.16955576      -0.00000000      -0.00000000       0.02327521      -0.00000000      -0.00000000
22
Lattice="2.5288076576292378 -2.2011618168734892e-13 -3.81252409958093e-13 1.1341698601836642e-12 13.029925403479547 -4.516642758683925e-13 1.1341698588787736e-12 -6.514962701739377 11.284246408829713" Properties=species:S:1:pos:R:3:forces:R:3 unique_starting_index=470 config_type=initial n_minim_iter=9 energy=-3581.5972877968807 stress="0.00010303907858493075 5.40045529600218e-13 2.512234867852451e-12 5.40045529600218e-13 -0.0026580032487272687 4.220131916987699e-12 2.512234867852451e-12 4.220131916987699e-12 -0.002658003235831535" free_energy=-3581.5972877968807 pbc="T T T"
Si       2.06592164       6.03381473      -1.17043005       0.00172638       0.00690709      -0.07837808
Si       2.06592164       2.48443317       6.64402459       0.00172638      -0.07133095       0.03320733
Si       2.06592164      11.02664019       5.81065187       0.00172638       0.06442386       0.04517075
Si       2.19600585       5.14153261       9.40228725      -0.01238528      -0.07849298      -0.02581777
Si       2.19600585      -0.94310939       2.13040492      -0.01238528       0.01688764       0.08088580
Si       2.19600585      -4.19842322      11.03580063      -0.01238528       0.06160534      -0.05506803
Si       2.20259555       8.77384051       1.48368760      -0.01875266      -0.02547051      -0.01688054
Si       2.20259555       3.41295360       2.94403383      -0.01875266      -0.00188373       0.03049838
Si       2.20259555       7.35809399       6.85652497      -0.01875266       0.02735423      -0.01361783
Si       2.04828620      -1.89655672       8.20760430       0.03126295      -0.00548589      -0.01805428
Si       2.04828620       1.54130948       8.82291055       0.03126295      -0.01289252       0.01377806
Si       2.04828620       0.35524723       5.53797796       0.03126295       0.01837841       0.00427622
Si      -0.34078710       6.48969257       2.26505772      -0.00887184      -0.09710181       0.01043219
Si      -0.34078710       5.23171394       4.53147892      -0.00887184       0.05758545       0.07887654
Si      -0.34078710       7.82348159       4.48770976      -0.00887184       0.03951636      -0.08930873
Si      -0.34197133      10.15744465       3.54126662      -0.01945611      -0.07322823       0.00659328
Si      -0.34197133       4.50306722       0.71700799      -0.01945611       0.04232406       0.06012086
Si      -0.34197133       4.88437622       7.02597180      -0.01945611       0.03090416      -0.06671414
Si       2.14184530      -4.15655500       8.69746355       0.01887126      -0.02265017      -0.01215019
Si       2.14184530       3.09553918      10.53519685       0.01887126       0.00080271       0.02569072
Si       2.14184530       1.06101581       3.33583241       0.01887126       0.02184746      -0.01354052
Si       2.17457434      -0.00000000      -0.00000000       0.02281592       0.00000000      -0.00000000
22
Lattice="2.5285998058109636 -2.2009808954481006e-13 -3.81221073448022e-13 1.1356429422967379e-12 13.04684892677211 -4.465428452695631e-13 1.1356429409901511e-12 -6.523424463385663 11.298902609922612" Properties=species:S:1:pos:R:3:forces:R:3 unique_starting_index=470 config_type=initial n_minim_iter=10 energy=-3581.602271500468 stress="3.4159158782339574e-05 5.521563144760742e-13 -1.792952356940111e-12 5.521563144760742e-13 -0.0008419115211211309 1.3669379618857383e-12 -1.792952356940111e-12 1.3669379618857383e-12 -0.0008419115135004618" free_energy=-3581.602271500468 pbc="T T T"
Si       2.06717919       6.04002837      -1.18060072       0.00008066       0.03777753      -0.05339505
Si       2.06717919       2.48098006       6.65838495       0.00008066      -0.06513023      -0.00601877
Si       2.06717919      11.04926494       5.82111837       0.00008066       0.02735271       0.05941382
Si       2.19795653       5.13912977       9.41801642      -0.01482928      -0.01737860      -0.01980682
Si       2.19795653      -0.93674788       2.13927746      -0.01482928      -0.00846391       0.02495372
Si       2.19795653      -4.20238190      11.04051133      -0.01482928       0.02584251      -0.00514690
Si       2.20287867       8.78239465       1.49402161      -0.02174002      -0.01943539      -0.04751075
Si       2.20287867       3.42608780       2.94611493      -0.02174002      -0.03142782       0.04058692
Si       2.20287867       7.36179093       6.85876607      -0.02174002       0.05086321       0.00692383
Si       2.05195528      -1.90352531       8.22152927       0.03122233      -0.02443865      -0.07072240
Si       2.05195528       1.54839139       8.83663924       0.03122233      -0.04902807       0.05652569
Si       2.05195528       0.35513391       5.53963670       0.03122233       0.07346671       0.01419671
Si      -0.35072344       6.49420801       2.27063659       0.00123531      -0.09319582      -0.00847121
Si      -0.35072344       5.24274942       4.53943520       0.00123531       0.03926163       0.08494555
Si      -0.35072344       7.83331595       4.48883082       0.00123531       0.05393419      -0.07647435
Si      -0.34428169      10.17586842       3.54930527      -0.01895063      -0.07179643       0.01215604
Si      -0.34428169       4.50927879       0.71168941      -0.01895063       0.04642566       0.05609951
Si      -0.34428169       4.88512618       7.03790792      -0.01895063       0.02537077      -0.06825555
Si       2.14546567      -4.16562369       8.70549729       0.01551847      -0.03460951      -0.05784568
Si       2.14546567       3.09856919      10.55368990       0.01551847      -0.03279107       0.05889556
Si       2.14546567       1.06705450       3.33861802       0.01551847       0.06740058      -0.00104988
Si       2.17633441      -0.00000000      -0.00000000       0.02238946       0.00000000      -0.00000000
22
Lattice="2.52821259554569 -2.2006438542150727e-13 -3.8116269619408163e-13 1.1375486371101103e-12 13.068742526780154 -4.44130483899676e-13 1.1375486358013296e-12 -6.534371263389685 11.31786302370987" Properties=species:S:1:pos:R:3:forces:R:3 unique_starting_index=470 config_type=initial n_minim_iter=11 energy=-3581.605537159026 stress="-1.562916967251166e-05 9.029373699200729e-13 -1.4385809781101695e-12 9.029373699200729e-13 0.0017806026968902882 -3.0146909493541763e-13 -1.4385809781101695e-12 -3.0146909493541763e-13 0.0017806026806255482" free_energy=-3581.605537159026 pbc="T T T"
Si       2.06844459       6.04973942      -1.19415165      -0.00103586       0.03135573      -0.02057163
Si       2.06844459       2.47533589       6.67571082      -0.00103586      -0.03349342      -0.01686905
Si       2.06844459      11.07803847       5.83630384      -0.00103586       0.00213768       0.03744067