18
Lattice="4.932931113139378 1.3655821567438695 0.21435755860108743 4.100575210384725 8.286436354587924 -2.0107839190771606 2.5042184030713646 -0.40250115173562095 12.326787851114295" Properties=species:S:1:pos:R:3:forces:R:3 unique_starting_index=194 config_type=initial n_minim_iter=1 energy=-2926.2647438105532 stress="-0.0005672228816070309 0.0003826336965840329 8.53990892758334e-05 0.0003826336965840329 0.0009073097849399405 -0.00037335452503553334 8.53990892758334e-05 -0.00037335452503553334 0.00028697581183671636" free_energy=-2926.2647438105532 pbc="T T T"
Si       5.68456140       1.29961833       1.39974305      -0.03055606       0.04183206       0.21721327
Si       6.51657450       5.62888206      12.39898003      -0.05724239       0.05998110       0.00141176
Si       4.62294113       3.29919539       2.95177018       0.02617233      -0.00305135      -0.23149342
Si       3.48634506       2.07104510      10.07532711      -0.06086753      -0.03533556      -0.01665896
Si       8.25271682       7.24063748       6.42644440       0.10055231       0.06249581       0.05556936
Si       7.37745933       8.14765923       2.16524407      -0.19299249       0.15607259       0.13925946
Si       3.81294369       2.32838627       0.38005337       0.00534370      -0.08689379      -0.12914578
Si       2.22457170       1.67753818       5.62407832       0.06842736      -0.00895331      -0.00078422
Si       5.39541195       5.64602475       2.15820519      -0.09290386      -0.02992275       0.12484180
Si       4.86817481       7.94044888       1.58890682      -0.00389996       0.03346490      -0.00977402
Si       2.56714445       1.18446695       2.01398569      -0.02567135      -0.03519634       0.13873169
Si       5.42170413       4.83995033       5.70647084      -0.00104588       0.00231884       0.04033714
Si       6.86706598       4.45780211       3.76900577       0.14121955      -0.12877036      -0.20888185
Si       2.88590963       4.25921273       1.36397845      -0.17769148       0.11862003       0.06650611
Si       6.70593657       7.02033216       4.64781614       0.24666090       0.02123240      -0.06607358
Si       9.17622350       8.08893352       4.38499986       0.00717628       0.02974510      -0.11346665
Si       5.91203651       1.88926492       7.49454758      -0.14409788      -0.08475348       0.09899056
Si       4.52215349       2.34763908       5.45015536       0.19141646      -0.11288590      -0.10658267
18
Lattice="4.9464919455156595 1.3473731773735547 0.21449566178369853 4.0966005466253845 8.227709578664005 -1.9909807982694947 2.5073266836795853 -0.3785873738700072 12.303469929846846" Properties=species:S:1:pos:R:3:forces:R:3 unique_starting_index=194 config_type=initial n_minim_iter=2 energy=-2926.271468084752 stress="-0.00040528915069576747 -0.00042696749539621477 -0.0002276882906208876 -0.00042696749539621477 -0.0017912003079838315 0.0005404111026140842 -0.0002276882906208876 0.0005404111026140842 -0.002836569662164673" free_energy=-2926.271468084752 pbc="T T T"
Si       5.69978201       1.28328927       1.40041462      -0.06037988       0.05482164       0.15537404
Si       6.51867684       5.61197424      12.38693698      -0.02981246       0.04436640      -0.04292774
Si       4.62998815       3.27727714       2.94838186       0.01200472      -0.00139642      -0.22186554
Si       3.48742125       2.07380237      10.06063756      -0.03994795       0.01155187      -0.04639397
Si       8.26237445       7.19775299       6.42811040       0.12783000       0.00487921       0.07615330
Si       7.38004027       8.09371504       2.17788545      -0.16211053       0.13850009       0.12720565
Si       3.82048149       2.30665988       0.38078440       0.01713871      -0.05667691      -0.13902415
Si       2.22639426       1.67576672       5.61701838       0.10659433       0.00327786      -0.01793702
Si       5.39841576       5.60749873       2.16609137      -0.06402148      -0.03645055       0.13601635
Si       4.86569761       7.89033428       1.60123456      -0.00610816       0.04167056       0.01436120
Si       2.57177041       1.17617041       2.01382942      -0.01569152      -0.06504373       0.14837498
Si       5.42613416       4.81408689       5.70525938      -0.03722655       0.02649105       0.05961181
Si       6.88033472       4.42450562       3.76596146       0.12831993      -0.09083181      -0.17142826
Si       2.88273198       4.23428133       1.37060018      -0.19033399       0.08698981       0.09482167
Si       6.71384300       6.97762337       4.65109894       0.20902856       0.01718611      -0.05680792
Si       9.18679755       8.03432575       4.38916994       0.00261441      -0.01451692      -0.12108181
Si       5.92192411       1.88100583       7.48427803      -0.14799308      -0.06998676       0.14251613
Si       4.53212217       2.33510800       5.44219195       0.15009493      -0.09483149      -0.13696872
18
Lattice="4.96158625013103 1.3397595177946808 0.2161708544067477 4.100934001470661 8.208508374249314 -1.9896700755917567 2.5155914087598568 -0.3693231841965572 12.341226259368954" Properties=species:S:1:pos:R:3:forces:R:3 unique_starting_index=194 config_type=initial n_minim_iter=3 energy=-2926.276699746386 stress="0.0020473230778715284 -0.000914469015222698 -0.00023168861526871013 -0.000914469015222698 -0.00023292236554996092 0.0010039956578357684 -0.00023168861526871013 0.0010039956578357684 0.001573435974747536" free_energy=-2926.276699746386 pbc="T T T"
Si       5.71684147       1.27670924       1.40875979      -0.06715018       0.06712803       0.13738449
Si       6.53270844       5.60835679      12.43021720      -0.03798385       0.05010363       0.00458389
Si       4.64198013       3.26961265       2.95688324       0.00368280       0.00462708      -0.21434057
Si       3.49539621       2.07571085      10.09330349      -0.05102318       0.02886318      -0.00244772
Si       8.28316435       7.18394015       6.45533591       0.14820007      -0.03055160      -0.00672207
Si       7.39252847       8.07713932       2.19394833      -0.15052620       0.12884908       0.11665080
Si       3.83078841       2.29784235       0.38192116       0.02092439      -0.03611643      -0.03665366
Si       2.23285891       1.67582119       5.63585421       0.11045039       0.00942943      -0.00829814
Si       5.40865944       5.59423623       2.17974635      -0.04951386      -0.06100135       0.08923438
Si       4.87276243       7.87467754       1.61329875      -0.01870638       0.04248722       0.01381509
Si       2.57861273       1.17264675       2.02320895      -0.02256808      -0.05539077       0.10072034
Si       5.43837448       4.80593441       5.72791270      -0.03271714       0.03786474       0.01269000
Si       6.90031323       4.41147170       3.77840585       0.10560999      -0.06897273      -0.13961838
Si       2.88466605       4.22744752       1.37980912      -0.16989912       0.02648603       0.01894567
Si       6.73175840       6.96383517       4.67077366       0.18322692       0.03082195      -0.04090868
Si       9.20828176       8.01578780       4.40810899      -0.00463384      -0.01530761      -0.06518242
Si       5.93709031       1.87708968       7.51066971      -0.10944719      -0.06279320       0.11989493
Si       4.54719276       2.32974533       5.45931309       0.14207445      -0.09652667      -0.09974794
18
Lattice="4.954537248726565 1.345172253173841 0.21814259922954576 4.106858740930323 8.199428197784664 -2.0122679754041743 2.525459385256369 -0.40322416072262096 12.350980658668423" Properties=species:S:1:pos:R:3:forces:R:3 unique_starting_index=194 config_type=initial n_minim_iter=4 energy=-2926.2971745281616 stress="0.00029041140756502683 -9.865007069180591e-05 0.0001697114686097343 -9.865007069180591e-05 -0.0019038148972385417 -0.0004300265931700081 0.0001697114686097343 -0.0004300265931700081 0.0009317874322509923" free_energy=-2926.2971745281616 pbc="T T T"
Si       5.70689828       1.28298724       1.42374088      -0.10610813       0.05985401       0.01918893
Si       6.54385990       5.56820915      12.42509473      -0.09075438       0.07601236       0.08817026
Si       4.64411447       3.25982158       2.93960646      -0.00789774      -0.01218753      -0.24430889
Si       3.50208209       2.04332527      10.09414115      -0.08313856       0.06746012       0.09603659
Si       8.29642851       7.16060731       6.44778476       0.08771459      -0.04065774      -0.05053713
Si       7.38601262       8.07029702       2.18575971      -0.07813198       0.05079241       0.07364771
Si       3.82889968       2.29351229       0.37275005      -0.01496663      -0.04247255       0.06828845
Si       2.24417729       1.65702384       5.63527542       0.04366899       0.08626730       0.14007562
Si       5.40720733       5.57955683       2.17638902      -0.06026341      -0.06461962       0.03513851
Si       4.88054550       7.85866028       1.59436860       0.03539301      -0.03022725      -0.03795191
Si       2.57696558       1.16515088       2.03149835       0.05389700      -0.06416147      -0.04576675
Si       5.44351092       4.78529991       5.72380254       0.07000957      -0.02384197      -0.05516903
Si       6.90811748       4.39386466       3.76304320       0.08418289       0.00194681      -0.01469866
Si       2.87831184       4.22200372       1.37388629      -0.12488234      -0.00090103      -0.08568646
Si       6.75198789       6.94337805       4.65494015       0.15106814       0.05596590      -0.00194372
Si       9.21181671       7.99743005       4.38908344      -0.00460988      -0.04420671       0.00003945
Si       5.93012129       1.85467568       7.52210388      -0.01728694      -0.04790695       0.00832457
Si       4.56018980       2.30808546       5.45305429       0.06210579      -0.02711609       0.00715245
18
Lattice="4.950699506112209 1.3654849990800637 0.217286483942155 4.1133243693666035 8.28509888404654 -1.9869834619763318 2.517033479531059 -0.3817989697776874 12.276184850756746" Properties=species:S:1:pos:R:3:forces:R:3 unique_starting_index=194 config_type=initial n_minim_iter=5 energy=-2926.306507996962 stress="0.00047404255956742764 -0.00019749669749188054 -0.0008623760658542082 -0.00019749669749188054 0.0015953943421928019 0.00020831655213413572 -0.0008623760658542082 0.00020831655213413572 -0.0013994722029328872" free_energy=-2926.306507996962 pbc="T T T"
Si       5.69651946       1.31040631       1.42898502      -0.08279093       0.03289099      -0.10391490
Si       6.53317010       5.66142721      12.36048469      -0.10493812       0.01940264       0.11431705
Si       4.64302411       3.30400509       2.90575477       0.00244491      -0.01919124      -0.23087275
Si       3.49103120       2.08730234      10.03730283      -0.11378224       0.00333227       0.12364948
Si       8.30330573       7.25772525       6.42175623       0.09681873       0.00192536       0.05420766
Si       7.37283056       8.17764295       2.19535030      -0.00283202      -0.00644197       0.04973003
Si       3.82784219       2.31662319       0.36660420      -0.13926976       0.16014945       0.21010011
Si       2.24815211       1.68851260       5.60645664      -0.01337072       0.09987392       0.18592896
Si       5.40051487       5.64370733       2.18060677      -0.13497646      -0.01086799      -0.06853537
Si       4.88443360       7.95031174       1.59659567       0.05905372      -0.13858782       0.02210725
Si       2.57418346       1.17965240       2.02895025       0.03662537      -0.03817517      -0.13132203
Si       5.44148010       4.85207603       5.69814712       0.17120474      -0.07397343      -0.11564284
Si       6.91537739       4.44664922       3.73258548       0.04406679      -0.00784752       0.07453662
Si       2.86475992       4.27810792       1.37505446       0.01927871      -0.08463257      -0.21506500
Si       6.77021544       7.03412557       4.63323540      -0.03336976       0.05945689       0.01768717
Si       9.20998092       8.09896808       4.36668445       0.10917199       0.04640449       0.10702777
Si       5.91272996       1.88837969       7.48648937       0.10484520      -0.10595191      -0.11378460
Si       4.56926782       2.33934312       5.41557683      -0.01818017       0.06223365       0.01984539
18
Lattice="4.941190274708331 1.3644606176434924 0.2346203187246777 4.103471298017231 8.258586106008682 -1.9754442726354604 2.5509422653040885 -0.3720842857649689 12.321593666786322" Properties=species:S:1:pos:R:3:forces:R:3 unique_starting_index=194 config_type=initial n_minim_iter=6 energy=-2926.3141545000626 stress="-0.001052801604708496 2.2130549295615547e-05 0.001034499205950452 2.2130549295615547e-05 8.561467118665912e-05 0.0007164795830884754 0.001034499205950452 0.0007164795830884754 0.00018112417230284664" free_energy=-2926.3141545000626 pbc="T T T"
Si       5.68749162       1.31172073       1.45261517      -0.04318791       0.05845566      -0.06514369
Si       6.56062848       5.65435295      12.42397162      -0.11184510       0.07140210       0.14104726
Si       4.64440616       3.29726900       2.92613678      -0.00837340      -0.03310404      -0.24356589
Si       3.51520095       2.08836008      10.08206348      -0.10115578       0.03827244       0.12363492
Si       8.31273929       7.24229638       6.47247812       0.02010593      -0.01077027       0.02054358
Si       7.36753706       8.15719764       2.23185447      -0.00125688      -0.01821079       0.04541314
Si       3.82055159       2.31256410       0.38316893      -0.08336910       0.13095110       0.18142162
Si       2.26306589       1.68887792       5.63447217      -0.01307703       0.12188239       0.19702115
Si       5.39714367       5.62870395       2.20783715      -0.13005756      -0.05995139      -0.08394141
Si       4.88503321       7.92602056       1.62135157       0.05427902      -0.13380829      -0.01743286
Si       2.57636156       1.17752813       2.04321066      -0.00797732      -0.08243267      -0.13811682
Si       5.45329919       4.84154834       5.73433651       0.18442757      -0.08281940      -0.11040900
Si       6.91679944       4.43761314       3.76814458       0.06164075       0.01462565       0.08040683
Si       2.86418519       4.26595872       1.38835299      -0.03175932      -0.09573545      -0.25071448
Si       6.77692387       7.01843724       4.67272126       0.03510683       0.06694133       0.05546309
Si       9.21024973       8.08048780       4.41443801       0.09037375       0.04893346       0.09202464
Si       5.92519244       1.88831599       7.52888535       0.09337632      -0.10229725      -0.09672481
Si       4.57944694       2.33735168       5.44770231      -0.00725076       0.06766540       0.06907271
18
Lattice="4.95341234032656 1.363056065799017 0.22409042970032372 4.129036667887344 8.218425413539075 -2.0296405516953997 2.543466561481861 -0.4259552037258767 12.376710191111268" Properties=species:S:1:pos:R:3:forces:R:3 unique_starting_index=194 config_type=initial n_minim_iter=7 energy=-2926.3267202135976 stress="0.00021856565232566911 0.0008043009390107795 0.0005229208334877402 0.0008043009390107795 -0.002419558138147112 -0.0015602954589004315 0.0005229208334877402 -0.0015602954589004315 0.0008861976780172525" free_energy=-2926.3267202135976 pbc="T T T"
Si       5.69589363       1.30884520       1.44637910      -0.06227756       0.06322945       0.01331317
Si       6.56679492       5.56842727      12.45113891      -0.16323151       0.08874053       0.14337534
Si       4.65703697       3.26735944       2.90438027      -0.00461496      -0.04718988      -0.23552295
Si       3.51087343       2.03148159      10.11922738      -0.03326150       0.03542272       0.04165855
Si       8.34123832       7.17497840       6.45887221       0.01446508      -0.01251516      -0.05847617
Si       7.39239477       8.10473941       2.19812292       0.00625971      -0.03045889       0.02334304
Si       3.82794993       2.30573594       0.37639380      -0.02899534      -0.04737880       0.06449768
Si       2.26629552       1.65820251       5.65785780      -0.01125525       0.15936903       0.17959118
Si       5.40983158       5.58619092       2.18338480      -0.02869476      -0.10301594       0.02727332
Si       4.91046769       7.86689418       1.58403638       0.05897836      -0.05002398      -0.08547781
Si       2.58263678       1.16068595       2.04011847       0.04243360      -0.11646251      -0.13230512
Si       5.47492417       4.78653005       5.72645189       0.16496427      -0.08577746      -0.13439331
Si       6.93969701       4.39974866       3.75684914       0.06423478       0.09004417       0.08143531
Si       2.87293712       4.23242748       1.36170250      -0.14045247       0.03405826      -0.11292348
Si       6.80335639       6.96207296       4.65281704       0.11351223       0.05596304       0.03203603
Si       9.24327893       8.02084423       4.38762408       0.01401030      -0.06098378       0.05832387
Si       5.93523242       1.84364370       7.54521125       0.02317820      -0.01794699       0.00746263
Si       4.58996661       2.30340330       5.45665537      -0.02925316       0.04492619       0.08678872
18
Lattice="4.901110773906843 1.3657686460214966 0.22574991631775765 4.085017230635755 8.234367695842938 -2.0294138137595037 2.512196441853812 -0.40631271737991176 12.4505106903017" Properties=species:S:1:pos:R:3:forces:R:3 unique_starting_index=194 config_type=initial n_minim_iter=8 energy=-2926.3649341780747 stress="-0.0040293701931174595 -0.001137272413936252 -0.0009428894774657382 -0.001137272413936252 -0.0023615948956167906 0.00010968418539335696 -0.0009428894774657382 0.00010968418539335696 0.0029024529650005172" free_energy=-2926.3649341780747 pbc="T T T"
Si       5.61795460       1.32742470       1.46838077      -0.04475354      -0.06964954      -0.00082895
Si       6.46736958       5.61754674      12.55422439      -0.23795456       0.12770312       0.11463539
Si       4.60780156       3.27486007       2.85916058      -0.00041005      -0.10359492      -0.11601845
Si       3.44864200       2.05659856      10.19825682       0.06937764      -0.00937525      -0.15381904
Si       8.27381691       7.20348894       6.51341211      -0.02256619       0.02906405       0.01659940
Si       7.28998732       8.14299367       2.24602193       0.08037753      -0.04635573       0.04747043
Si       3.77473680       2.31641377       0.39407663      -0.06947976      -0.01319081      -0.06773265
Si       2.24967990       1.69037397       5.72412622      -0.06074870       0.11495346       0.12779059
Si       5.32563075       5.58966491       2.21187758       0.00948050      -0.09011609       0.05996821
Si       4.86495604       7.87542521       1.60226227      -0.09411950       0.04874942      -0.04107119
Si       2.55673579       1.14981193       2.04869299       0.04402439      -0.08303343      -0.02488208
Si       5.43877147       4.79725112       5.75347646       0.17497161      -0.11122900      -0.17952402
Si       6.88958285       4.40648470       3.77356597       0.08884906       0.09932271       0.09396421
Si       2.81257255       4.24653921       1.35220918      -0.11955038       0.05022561      -0.11895034
Si       6.76213132       6.99848872       4.68831375       0.07574175      -0.00513048       0.01276678
Si       9.15481765       8.04924839       4.42551728       0.04390003      -0.05686052       0.06802398
Si       5.86497296       1.83813044       7.59424096       0.02957684       0.05741434       0.08476558
Si       4.55846124       2.31287250       5.48649958       0.03328333       0.06110307       0.07684214
18
Lattice="4.916505082371131 1.4039894817063243 0.26456868975430203 4.122197159178917 8.31476705318698 -1.9893596044974706 2.6076443005784116 -0.38486876088917565 12.45777130961152" Properties=species:S:1:pos:R:3:forces:R:3 unique_starting_index=194 config_type=initial n_minim_iter=9 energy=-2926.406983560234 stress="-0.001329810825945397 -0.0008247962716289916 0.001073278508549737 -0.0008247962716289916 -0.0005528015211679604 -1.2174205085741582e-05 0.001073278508549737 -1.2174205085741582e-05 0.0013035735074683026" free_energy=-2926.406983560234 pbc="T T T"
Si       5.62254003       1.38645542       1.52919402       0.12978703      -0.04089403       0.01326729
Si       6.57237994       5.72389228      12.62012399      -0.25987044       0.05906248       0.08357532
Si       4.65517605       3.32079077       2.81429991      -0.00521378      -0.08770130      -0.08225008
Si       3.51797838       2.10255760      10.23211444       0.22218614      -0.10350596      -0.31875429
Si       8.40422563       7.31021562       6.58519882      -0.12729653       0.07321278       0.05141508
Si       7.33553305       8.26484314       2.33577892       0.09481306      -0.10280553       0.02428085
Si       3.78070373       2.35987091       0.43717035      -0.00265683       0.04383831      -0.21135871
Si       2.31785306       1.74240354       5.77239109       0.00104063       0.12665900       0.05177147
Si       5.35079200       5.64572013       2.26635864       0.07343133      -0.12269402       0.09290580
Si       4.93661856       7.94726812       1.64099164      -0.08282487       0.03080670      -0.01697604
Si       2.58459417       1.15404849       2.06393269      -0.20747643      -0.18499391       0.00559891
Si       5.54561987       4.85547735       5.77707264       0.11759051      -0.12357806      -0.18362197
Si       6.98298659       4.46930117       3.81240069       0.10107551       0.16880355       0.07658751
Si       2.81414022       4.29781011       1.34841240      -0.20241017       0.08063434      -0.06571975
Si       6.88808745       7.10592387       4.73851910       0.04371919      -0.03039191       0.06134739
Si       9.25988492       8.16600758       4.49881447       0.16736934       0.01067297       0.10864777
Si       5.93301895       1.86534998       7.63875485      -0.00537210       0.09497025       0.16928339
Si       4.64375458       2.35368187       5.51090682      -0.05789161       0.10790433       0.14000007
18
Lattice="4.924725047613118 1.4356410754936717 0.26761163426734413 4.169618948018177 8.353273121677864 -1.9737073382249073 2.6064991684252794 -0.34792713808937475 12.460367690288589" Properties=species:S:1:pos:R:3:forces:R:3 unique_starting_index=194 config_type=initial n_minim_iter=10 energy=-2926.4217809166425 stress="-0.000803212449534698 0.0004768253398659302 0.00010579678458679659 0.0004768253398659302 9.018920540162594e-06 0.0005554363863994206 0.00010579678458679659 0.0005554363863994206 0.0005672969139227015" free_energy=-2926.4217809166425 pbc="T T T"
Si       5.62207878       1.43189191       1.54099562       0.24421407      -0.11960010       0.01075289
Si       6.58860088       5.80695066      12.64689240      -0.28376072       0.02734400       0.04410687
Si       4.67497788       3.35606559       2.78149246      -0.03076052      -0.03885757      -0.04121738
Si       3.52126484       2.14652770      10.24308966       0.23527368      -0.12142083      -0.33582293
Si       8.45984973       7.38883722       6.60608027      -0.11182274       0.08064535       0.08323750
Si       7.37085978       8.33809643       2.36695688       0.10642329      -0.10818172       0.01925628
Si       3.78683940       2.39074077       0.44609304      -0.03556954       0.07177605      -0.26195968
Si       2.33442659       1.78266492       5.79501087       0.05480787       0.03610814       0.02628452
Si       5.36922885       5.68397890       2.28430859       0.10128482      -0.13069092       0.10602531
Si       4.98553968       7.98972857       1.65511307      -0.09694998       0.04860616       0.01752345
Si       2.59020570       1.16316891       2.06482764      -0.25517464      -0.17663895      -0.02375785
Si       5.58911491       4.90162728       5.77793272       0.05021325      -0.08674820      -0.18302237
Si       7.02507311       4.52264155       3.81631892       0.12818996       0.18243798       0.06580320
Si       2.81905454       4.32845109       1.34294553      -0.20941095       0.10712357      -0.06487056
Si       6.94953919       7.17703641       4.75288816       0.02019190      -0.06672366       0.04409119
Si       9.31603956       8.24732520       4.51776624       0.19300051       0.05172916       0.13798619
Si       5.94098665       1.90574865       7.64860829      -0.01629135       0.12960500       0.19237881
Si       4.66880829       2.39389987       5.51493694      -0.09385892       0.11348654       0.16320455
18
Lattice="4.935896791564764 1.4448029966633145 0.2744212770813293 4.183091413854876 8.383272445879985 -1.9708511526977062 2.631070674751123 -0.3557788922095041 12.44983618649859" Properties=species:S:1:pos:R:3:forces:R:3 unique_starting_index=194 config_type=initial n_minim_iter=11 energy=-2926.439108795853 stress="0.0011201686256244138 -0.0002682388965510726 -4.2295738917762746e-05 -0.0002682388965510726 0.0014847505077747027 -0.00014609204601309837 -4.2295738917762746e-05 -0.00014609204601309837 -0.0012482503698152461" free_energy=-2926.439108795853 pbc="T T T"
Si       5.63197302       1.44618720       1.55513039       0.18792800      -0.15884989      -0.09834540
Si       6.60520071       5.83039474      12.65089005      -0.24642352      -0.03128101      -0.01375001
Si       4.69152661       3.36407254       2.74325866      -0.06339077       0.01110606       0.04916505
Si       3.54081711       2.14701455      10.23356894       0.21185434      -0.10854161      -0.28004173
Si       8.50530757       7.41727880       6.61232088      -0.06386584       0.06388704       0.07486895
Si       7.38757903       8.37423693       2.38393857       0.08062444      -0.11078848       0.03576643
Si       3.78877596       2.40607405       0.45037955      -0.00176542       0.04318657      -0.27941241
Si       2.35682077       1.79906600       5.80878885       0.07010056      -0.01690613      -0.05478175
Si       5.37680563       5.69312807       2.29365132       0.12598044      -0.06466018       0.11870517
Si       5.00790357       8.01069986       1.65369269      -0.09330608       0.04184685       0.08051782
Si       2.59433235       1.15269693       2.06235773      -0.23934164      -0.12150412       0.00795780
Si       5.63011402       4.90871859       5.76279690      -0.08092236      -0.06226494      -0.12896849
Si       7.06688070       4.54042055       3.81609898       0.14402793       0.18469622       0.02129127
Si       2.80851656       4.34667212       1.32693911      -0.17005763       0.10084562       0.00218263
Si       6.99734104       7.20744842       4.75326132      -0.00511555      -0.07615906       0.01727674
Si       9.36167213       8.28022530       4.52612095       0.22622595       0.03482129       0.11759249
Si       5.96348892       1.90244530       7.65450011       0.00937248       0.16691076       0.17460928
Si       4.69759146       2.40222578       5.51525950      -0.09192534       0.10365504       0.15536617
18
Lattice="4.955011136532466 1.4601300744042494 0.27071608933473923 4.226527962919698 8.3809457407173 -1.9627114910329984 2.6231475167423866 -0.3286711160587864 12.440929395011008" Properties=species:S:1:pos:R:3:forces:R:3 unique_starting_index=194 config_type=initial n_minim_iter=12 energy=-2926.464950443191 stress="0.0023587505060004284 0.000494513058508503 -0.0010110888748002752 0.000494513058508503 0.0013661007252943728 8.519108211313649e-05 -0.0010110888748002752 8.519108211313649e-05 -0.0018203631235338361" free_energy=-2926.464950443191 pbc="T T T"
Si       5.65761166       1.46220556       1.54862764       0.10307755      -0.16658226      -0.14411551
Si       6.61163731       5.86408808      12.65215988      -0.18913471      -0.02900007      -0.08234378
Si       4.71173079       3.37563201       2.72979569      -0.09350834       0.02623157       0.05354668
Si       3.55405457       2.16544438      10.21534966       0.03242706      -0.00836283      -0.03388017
Si       8.54701956       7.44716950       6.61450937       0.05332128      -0.01618036       0.03760675
Si       7.43821645       8.38491434       2.39085891       0.03244918      -0.07006537       0.05859253
Si       3.80370150       2.42025622       0.44035527       0.00060092      -0.02617740      -0.19253481
Si       2.36622212       1.81893563       5.81296068       0.12724832      -0.12691077      -0.07049394
Si       5.41071255       5.69800051       2.30056196       0.08655399      -0.03607136       0.08907644
Si       5.04534900       8.01604904       1.65948714      -0.08693360       0.05182579       0.13728078
Si       2.59284182       1.15134089       2.05647338      -0.13019552      -0.02117423      -0.01909483
Si       5.66324603       4.92121468       5.74846097      -0.23321062       0.00286334      -0.04177822
Si       7.10892582       4.57245422       3.81671309       0.19607077       0.15105719      -0.02867132
Si       2.81676688       4.35508218       1.32139438      -0.12789586       0.05932802      -0.03681997
Si       7.04167136       7.22567589       4.75583204       0.02866437      -0.06357292      -0.00533424
Si       9.42480791       8.30726519       4.53382670       0.19732885       0.04964845       0.08758852
Si       5.97988662       1.93462143       7.65555546       0.05555559       0.16509168       0.09992056
Si       4.71069539       2.42850264       5.51933037      -0.05241921       0.05805153       0.09145452
18