12
Lattice="3.719727517039089 -1.1053252560531661 -1.0519738575806463e-14 -1.8270743292396787 7.182941094031628 -8.945864457214367e-14 6.393203946025629e-14 1.2899837033310065e-13 9.0519939251027" Properties=species:S:1:pos:R:3:forces:R:3 unique_starting_index=57 config_type=initial n_minim_iter=1 energy=-1952.9558311305343 stress="0.005963058310697804 -0.001078790873931695 -5.398722818609579e-14 -0.001078790873931695 -0.003947962120319868 -4.615932490504069e-12 -5.398722818609579e-14 -4.615932490504069e-12 -0.001497650905756128" free_energy=-1952.9558311305343 pbc="T T T"
Si      -0.02397551       3.25439819       0.21542661       0.21676187      -0.41536065      -0.04513252
Si       1.91662870       2.82321764       4.74142357      -0.21676187       0.41536065      -0.04513252
Si       0.56612132       6.27837239       5.84268636       0.36435931      -0.46666422       0.62199160
Si       1.32653187      -0.20075656       1.31668940      -0.36435931       0.46666422       0.62199160
Si       0.91951228       3.48239949       6.97852229       0.35724813      -0.30204003      -0.13002835
Si       0.97314092       2.59521634       2.45252533      -0.35724813       0.30204003      -0.13002835
Si       0.46030719       4.76429100       4.02233716      -0.06094707      -0.24977838      -0.21850430
Si       1.43234600       1.31332484       8.54833412       0.06094707       0.24977838      -0.21850430
Si       2.42936260       4.12683645       9.07204702      -0.37365591      -0.12678427       0.12257171
Si      -0.53670941       1.95077939       4.54605006       0.37365591       0.12678427       0.12257171
Si       3.17186217      -0.61056975       2.68137495       0.34478691      -0.21187961      -0.35089813
Si      -1.27920897       6.68818559       7.20737191      -0.34478691       0.21187961      -0.35089813
12
Lattice="3.645778711591863 -1.1065816857284432 -9.979550925560748e-15 -1.7679454748758103 7.267855577212041 -9.108635867804043e-14 6.423858508678165e-14 1.2961690036261882e-13 9.095397032097265" Properties=species:S:1:pos:R:3:forces:R:3 unique_starting_index=57 config_type=initial n_minim_iter=2 energy=-1952.9893545107773 stress="-0.008031892451291623 0.00255749016985815 -2.401398272095646e-12 0.00255749016985815 0.003956184947143355 1.3330566144751333e-12 -2.401398272095646e-12 1.3330566144751333e-12 0.002806769492421946" free_energy=-1952.9893545107773 pbc="T T T"
Si      -0.00932773       3.28963312       0.21581171       0.18945720      -0.34803230       0.00153035
Si       1.88716097       2.87164077       4.76351022      -0.18945720       0.34803230       0.00153035
Si       0.58209276       6.35328953       5.87962946       0.45673781      -0.33582539       0.13603120
Si       1.29574048      -0.19201564       1.33193095      -0.45673781       0.33582539       0.13603120
Si       0.91912407       3.52541586       7.01011692       0.28710131      -0.25807412      -0.10475994
Si       0.95870917       2.63585803       2.46241841      -0.28710131       0.25807412      -0.10475994
Si       0.46712328       4.82273975       4.03848727       0.01682484      -0.07330207      -0.15562582
Si       1.41070996       1.33853414       8.58618579      -0.01682484       0.07330207      -0.15562582
Si       2.39247677       4.18571958       9.11730570      -0.22959503       0.09532768       0.11484782
Si      -0.51464353       1.97555431       4.56960719       0.22959503      -0.09532768       0.11484782
Si       3.11476741      -0.61047519       2.68919492       0.24641033      -0.15610411       0.00797638
Si      -1.23693417       6.77174908       7.23689344      -0.24641033       0.15610411       0.00797638
12
Lattice="3.7315863377904566 -1.1400730808038588 -1.0545313689920252e-14 -1.8796423112464073 7.251445776883573 -9.092167017644653e-14 6.210622061560422e-14 1.2687455233122493e-13 9.005578420524715" Properties=species:S:1:pos:R:3:forces:R:3 unique_starting_index=57 config_type=initial n_minim_iter=3 energy=-1953.0645140997992 stress="0.006132899155982836 -0.0042445897947948385 -6.919296701589103e-12 -0.0042445897947948385 0.005508689355741683 -9.379129461166842e-12 -6.919296701589103e-12 -9.379129461166842e-12 0.0011345326537134978" free_energy=-1953.0645140997992 pbc="T T T"
Si      -0.03373256       3.25466030       0.21273113      -0.07688373      -0.04325434      -0.11465669
Si       1.88567659       2.85671239       4.71552034       0.07688373       0.04325434      -0.11465669
Si       0.54836727       6.29630641       5.83899340       0.01153143      -0.17783355       0.23929429
Si       1.30357676      -0.18493372       1.33620419      -0.01153143       0.17783355       0.23929429
Si       0.91691299       3.48443234       6.93513861       0.28612860      -0.24772381      -0.09833166
Si       0.93503104       2.62694035       2.43234940      -0.28612860       0.24772381      -0.09833166
Si       0.42558218       4.78674797       3.98950453      -0.01679916      -0.11524305      -0.09899832
Si       1.42636185       1.32462473       8.49229374       0.01679916       0.11524305      -0.09899832
Si       2.38315756       4.13986320       9.03313788      -0.07700760      -0.17033103       0.16840676
Si      -0.53121353       1.97150949       4.53034867       0.07700760       0.17033103       0.16840676
Si       3.19895279      -0.64991021       2.65514882      -0.14142968      -0.00447904      -0.09571438
Si      -1.34700876       6.76128290       7.15793803       0.14142968       0.00447904      -0.09571438
12
Lattice="3.724574616400877 -1.1211710593577324 -1.1811112390826378e-14 -1.8604440554696993 7.181628533455962 -9.216764193044869e-14 5.820763890531964e-14 1.227442051092117e-13 8.96594048497921" Properties=species:S:1:pos:R:3:forces:R:3 unique_starting_index=57 config_type=initial n_minim_iter=4 energy=-1953.0806854998846 stress="-0.0006616816969443046 -0.0026529658058309633 -9.258057292142314e-12 -0.0026529658058309633 -0.002803841486300943 -9.890289850924124e-12 -9.258057292142314e-12 -9.890289850924124e-12 -0.006958016834757763" free_energy=-1953.0806854998846 pbc="T T T"
Si      -0.02398109       3.22019965       0.21094066      -0.13218500      -0.02083429      -0.10179029
Si       1.88811165       2.84025782       4.69391090       0.13218500       0.02083429      -0.10179029
Si       0.56780033       6.23477686       5.81877695      -0.11797390      -0.13432957       0.22555214
Si       1.29633024      -0.17431939       1.33580671       0.11797390       0.13432957       0.22555213
Si       0.92959154       3.45015702       6.90263100       0.25155153      -0.26634049      -0.11184283
Si       0.93453903       2.61030045       2.41966076      -0.25155153       0.26634049      -0.11184283
Si       0.43605051       4.74202647       3.96913320      -0.07325491      -0.05321803      -0.14782296
Si       1.42808005       1.31843100       8.45210345       0.07325491       0.05321803      -0.14782296
Si       2.38609101       4.10709979       8.99578838      -0.09346165      -0.12341579       0.17357759
Si      -0.52196044       1.95335768       4.51281813       0.09346165       0.12341579       0.17357759
Si       3.19648257      -0.63894807       2.64121709      -0.22076118       0.05328605      -0.03767364
Si      -1.33235200       6.69940554       7.12418733       0.22076118      -0.05328605      -0.03767364
12
Lattice="3.73337208240287 -1.071615292653681 -1.2951022465299978e-14 -1.7942866549534584 7.096771135020097 -9.226750782307827e-14 5.767011675631937e-14 1.2303854240302954e-13 9.079694903886093" Properties=species:S:1:pos:R:3:forces:R:3 unique_starting_index=57 config_type=initial n_minim_iter=5 energy=-1953.0960375572586 stress="0.0023498684214227072 0.0042698478969007934 -2.8849521277056417e-12 0.0042698478969007934 -0.00010831808890773465 -3.4135188908158382e-12 -2.8849521277056417e-12 -3.4135188908158382e-12 0.0030188118035331256" free_energy=-1953.0960375572586 pbc="T T T"
Si       0.01261403       3.18035759       0.21063673      -0.09808292       0.04360198      -0.09165163
Si       1.92647140       2.84479825       4.75048418       0.09808292      -0.04360198      -0.09165163
Si       0.64664629       6.17066876       5.90639097      -0.31334520      -0.02525305       0.00034723
Si       1.29243914      -0.14551292       1.36654352       0.31334520       0.02525305       0.00034723
Si       0.98602565       3.41541157       6.98466114       0.23754299      -0.22718192      -0.10052905
Si       0.95305978       2.60974426       2.44481369      -0.23754299       0.22718192      -0.10052905
Si       0.48743858       4.69813796       4.01172822      -0.12309858       0.15407235      -0.11517812
Si       1.45164685       1.32701788       8.55157567       0.12309858      -0.15407235      -0.11517812
Si       2.43370883       4.09195102       9.11712884      -0.16868952       0.16500914       0.07074742
Si      -0.49462340       1.93320482       4.57728139       0.16868952      -0.16500914       0.07074742
Si       3.21017893      -0.60316712       2.67002039      -0.40720708       0.19005083       0.23626416
Si      -1.27109349       6.62832296       7.20986784       0.40720708      -0.19005083       0.23626416
12
Lattice="3.7158616994230664 -1.1189563638405993 -1.2198371019218137e-14 -1.8660808693500632 7.133864686756697 -9.231559071672965e-14 5.76029935720731e-14 1.229078723569335e-13 9.071067402715258" Properties=species:S:1:pos:R:3:forces:R:3 unique_starting_index=57 config_type=initial n_minim_iter=6 energy=-1953.1245449634089 stress="-0.0034533409403252557 -0.0020306191927682606 2.207451486808999e-11 -0.0020306191927682606 0.0003377062878735938 3.993851566178401e-12 2.207451486808999e-11 3.993851566178401e-12 -0.0002497360999935447" free_energy=-1953.1245449634089 pbc="T T T"
Si      -0.02865498       3.18621530       0.20750243      -0.12818935       0.10520603      -0.11120201
Si       1.87843581       2.82869302       4.74303613       0.12818935      -0.10520603      -0.11120201
Si       0.56086940       6.17280490       5.90442387      -0.10508617      -0.09273465      -0.02602682
Si       1.28891143      -0.15789658       1.36889017       0.10508617       0.09273465      -0.02602682
Si       0.94491700       3.40276236       6.97446707       0.17240211      -0.24952942      -0.09885450
Si       0.90486384       2.61214596       2.43893337      -0.17240211       0.24952942      -0.09885450
Si       0.42314617       4.70415778       4.00351008      -0.05165021       0.05141043      -0.00942766
Si       1.42663466       1.31075054       8.53904378       0.05165021      -0.05141043      -0.00942766
Si       2.35865248       4.07328400       9.11216127       0.00243446       0.03335829       0.12388661
Si      -0.50887165       1.94162432       4.57662757      -0.00243446      -0.03335829       0.12388661
Si       3.18233853      -0.63985161       2.67104035      -0.25261301       0.19992574       0.12162438
Si      -1.33255770       6.65475993       7.20657405       0.25261301      -0.19992574       0.12162438
12
Lattice="3.753585147730259 -1.0975663812561915 -1.2727590237226807e-14 -1.8689976104708144 7.047402423656075 -9.112670030712376e-14 5.746809044212358e-14 1.2264812466675215e-13 9.053783274106769" Properties=species:S:1:pos:R:3:forces:R:3 unique_starting_index=57 config_type=initial n_minim_iter=7 energy=-1953.184487295659 stress="-0.0003681923576582575 -0.001949981355418909 -1.685795515004023e-11 -0.001949981355418909 -0.0023320882715335946 6.964553441479287e-12 -1.685795515004023e-11 6.964553441479287e-12 -0.001789210768367922" free_energy=-1953.184487295659 pbc="T T T"
Si      -0.02926815       3.14321899       0.19336860      -0.13596926       0.20352784      -0.20925883
Si       1.91385570       2.80661705       4.72026024       0.13596926      -0.20352784      -0.20925884
Si       0.57460262       6.07974464       5.91157538       0.19927529      -0.14954833      -0.01611029
Si       1.30998492      -0.12990860       1.38468374      -0.19927529       0.14954833      -0.01611029
Si       1.00216114       3.32653559       6.94459067       0.07817490      -0.21074425      -0.07245688
Si       0.88242640       2.62330045       2.41769904      -0.07817490       0.21074425      -0.07245688
Si       0.42913204       4.65199706       3.98001685      -0.11449962       0.02178656       0.07554879
Si       1.45545550       1.29783898       8.50690849       0.11449962      -0.02178656       0.07554878
Si       2.37474504       4.03474325       9.11384624       0.01542096       0.07780569       0.19230801
Si      -0.49015750       1.91509279       4.58695460      -0.01542096      -0.07780569       0.19230801
Si       3.18805366      -0.61267016       2.67469213       0.14608534       0.20798503       0.02996921
Si      -1.30346611       6.56250620       7.20158376      -0.14608534      -0.20798503       0.02996921
12
Lattice="3.7836545253998044 -1.0696049219566657 -1.3297310994287658e-14 -1.850058016422201 6.979136184865264 -9.032195999282609e-14 5.743146706622248e-14 1.225782301214985e-13 9.04909693994643" Properties=species:S:1:pos:R:3:forces:R:3 unique_starting_index=57 config_type=initial n_minim_iter=8 energy=-1953.2249837133802 stress="0.0014710283258758 0.0004426708889800407 5.560470779548592e-12 0.0004426708889800407 -0.0024009697253272286 1.215604811082784e-11 5.560470779548592e-12 1.215604811082784e-11 -0.001418640487252737" free_energy=-1953.2249837133802 pbc="T T T"
Si      -0.02358759       3.10893410       0.17134857      -0.14396766       0.32675412      -0.30990970
Si       1.95718410       2.80059716       4.69589704       0.14396766      -0.32675412      -0.30990970
Si       0.61330303       5.99580423       5.93499600       0.40965303      -0.11532227      -0.12250243
Si       1.32029349      -0.08627297       1.41044753      -0.40965303       0.11532227      -0.12250243
Si       1.08207403       3.24927161       6.91796123      -0.06867519      -0.10457427      -0.05995579
Si       0.85152248       2.66025965       2.39341276       0.06867519       0.10457428      -0.05995579
Si       0.44196547       4.61513366       3.95794103      -0.13951330       0.07066262       0.18274135
Si       1.49163105       1.29439760       8.48248950       0.13951330      -0.07066262       0.18274135
Si       2.39066195       4.01835380       9.13826157       0.04961500       0.17183775       0.24853516
Si      -0.45706544       1.89117746       4.61371310      -0.04961500      -0.17183775       0.24853516
Si       3.19002237      -0.57496083       2.68266493       0.38996994       0.24465086       0.06109141
Si      -1.25642585       6.48449209       7.20721340      -0.38996994      -0.24465086       0.06109141
12
Lattice="3.7948287077084633 -1.056986610329731 -1.3537949267934161e-14 -1.8329611215926245 6.973142711644381 -9.035154319973362e-14 5.760061810895827e-14 1.2289676425139173e-13 9.07054287545556" Properties=species:S:1:pos:R:3:forces:R:3 unique_starting_index=57 config_type=initial n_minim_iter=9 energy=-1953.2954394473504 stress="0.0022454471058545524 0.0023222609046742756 7.248301034507702e-12 0.0023222609046742756 0.0037022123942583715 1.1794648729729213e-11 7.248301034507702e-12 1.1794648729729213e-11 0.0029243227077681475" free_energy=-1953.2954394473504 pbc="T T T"
Si      -0.03711736       3.11510908       0.12401498       0.01406940       0.41788595      -0.35853817
Si       1.99898495       2.80104702       4.65928642      -0.01406940      -0.41788595      -0.35853817
Si       0.65573928       5.94220562       5.97825111       0.45552858       0.01650060      -0.16970518
Si       1.30612831      -0.02604952       1.44297968      -0.45552858      -0.01650060      -0.16970518
Si       1.17116673       3.16875583       6.89749734      -0.24027280       0.02261326      -0.08792479
Si       0.79070086       2.74740027       2.36222590       0.24027280      -0.02261326      -0.08792479
Si       0.43034342       4.62154442       3.94815636       0.03732059       0.11004659       0.23833119
Si       1.53152417       1.29461167       8.48342780      -0.03732059      -0.11004660       0.23833119
Si       2.37787845       4.04314528       9.21464346       0.08620656       0.18891729       0.27424950
Si      -0.41601086       1.87301082       4.67937202      -0.08620656      -0.18891729       0.27424950
Si       3.17833934      -0.52612101       2.70887224       0.38399914       0.25017440       0.10358745
Si      -1.21647175       6.44227711       7.24414367      -0.38399914      -0.25017440       0.10358745
12
Lattice="3.7894219320862423 -1.0627365505268105 -1.342325001272662e-14 -1.8416127326348102 6.972456275801463 -9.029219559655272e-14 5.772164309754738e-14 1.2311567196465285e-13 9.08550911247511" Properties=species:S:1:pos:R:3:forces:R:3 unique_starting_index=57 config_type=initial n_minim_iter=10 energy=-1953.3744533776646 stress="0.0005188217781832629 0.0016745621571774066 -2.9739320941000083e-12 0.0016745621571774066 0.004871879945871616 9.800903846759235e-12 -2.9739320941000083e-12 9.800903846759235e-12 0.004535295200628536" free_energy=-1953.3744533776646 pbc="T T T"
Si      -0.06456409       3.13705202       0.07620403       0.26933624       0.41321393      -0.28534008
Si       2.01237330       2.77266770       4.61895858      -0.26933624      -0.41321393      -0.28534007
Si       0.67162629       5.89999369       5.99896810       0.21698732       0.14509490      -0.00809814
Si       1.27618292       0.00972604       1.45621354      -0.21698732      -0.14509490      -0.00809814
Si       1.20581736       3.10506113       6.88016402      -0.32149067       0.07496641      -0.16312407
Si       0.74199185       2.80465859       2.33740946       0.32149067      -0.07496642      -0.16312407
Si       0.39902635       4.62699369       3.95198156       0.26494428       0.11258503       0.16838167
Si       1.54878286       1.28272604       8.49473612      -0.26494428      -0.11258503       0.16838167
Si       2.34719360       4.05603738       9.27893504       0.05014818       0.08528865       0.27329053
Si      -0.39938439       1.85368234       4.73618048      -0.05014818      -0.08528865       0.27329053
Si       3.16986370      -0.49105101       2.73282012       0.11154416       0.25755504       0.01489009
Si      -1.22205450       6.40077073       7.27557467      -0.11154416      -0.25755504       0.01489009
12
Lattice="3.78148455674775 -1.0785776925745145 -1.3157954907905402e-14 -1.8619230615084381 6.993929526455048 -9.045460581572242e-14 5.732243105036193e-14 1.2234629169467492e-13 9.034105673486307" Properties=species:S:1:pos:R:3:forces:R:3 unique_starting_index=57 config_type=initial n_minim_iter=11 energy=-1953.449862799193 stress="-0.0017347394893059657 -0.0006369540457227147 -1.982918367344149e-12 -0.0006369540457227147 0.0004642607512670004 -4.787924775606575e-12 -1.982918367344149e-12 -4.787924775606575e-12 -0.0010131188153579742" free_energy=-1953.449862799193 pbc="T T T"
Si      -0.09413185       3.19624454       0.01926852       0.49224200       0.26183165      -0.17394726
Si       2.01369335       2.71910729       4.53632136      -0.49224200      -0.26183165      -0.17394726
Si       0.68113783       5.89060626       5.95934406      -0.18831472       0.17269627       0.44439407
Si       1.23842367       0.02474557       1.44229122       0.18831472      -0.17269627       0.44439407
Si       1.20078618       3.06579928       6.81451060      -0.37591760       0.00038156      -0.19021357
Si       0.71877532       2.84955255       2.29745776       0.37591760      -0.00038156      -0.19021357
Si       0.36771839       4.65184538       3.94512388       0.44322251       0.02897820      -0.11124447
Si       1.55184311       1.26350645       8.46217672      -0.44322251      -0.02897820      -0.11124447
Si       2.32190564       4.07988588       9.27875602      -0.08227230      -0.21802122       0.25365236
Si      -0.40234414       1.83546596       4.76170318       0.08227230       0.21802122       0.25365236
Si       3.17063362      -0.45038479       2.73845322      -0.27733945       0.13672216      -0.22264114
Si      -1.25107212       6.36573662       7.25550606       0.27733945      -0.13672216      -0.22264114
12
Lattice="3.7939935395819617 -1.079955272207792 -1.3219322258632024e-14 -1.8799249413663135 6.962977394583502 -8.991943533960801e-14 5.745762172473098e-14 1.2260992169676497e-13 9.051608617177967" Properties=species:S:1:pos:R:3:forces:R:3 unique_starting_index=57 config_type=initial n_minim_iter=12 energy=-1953.5397795986955 stress="0.0015319869548124445 0.0005940433588444467 3.746552067809338e-12 0.0005940433588444467 -0.004227065552265846 9.004428818544212e-12 3.746552067809338e-12 9.004428818544212e-12 0.00015749002481980096" free_energy=-1953.5397795986955 pbc="T T T"
Si      -0.08361007       3.22438594      -0.01320809       0.32633875      -0.06582436      -0.12690311
Si       1.99767867       2.65863618       4.51259622      -0.32633875       0.06582437      -0.12690311
Si       0.68040139       5.87005102       5.97898621      -0.23927535      -0.06499410       0.56398717
Si       1.23366721       0.01297110       1.45318190       0.23927534       0.06499410       0.56398717
Si       1.16798377       3.04437586       6.81205297      -0.31912829      -0.07886555      -0.21943247
Si       0.74608483       2.83864626       2.28624866       0.31912829       0.07886555      -0.21943247
Si       0.37937038       4.63928366       3.96291605       0.21317468      -0.09436554      -0.12948250
Si       1.53469822       1.24373846       8.48872036      -0.21317468       0.09436554      -0.12948250
Si       2.32467225       4.05789153       9.32765235      -0.17479903      -0.29164120       0.11032658
Si      -0.41060365       1.82513059       4.80184805       0.17479903       0.29164119       0.11032658
Si       3.17962389      -0.42375226       2.74276847      -0.22911180       0.06338609      -0.19849566
Si      -1.26555528       6.30677438       7.26857278       0.22911180      -0.06338609      -0.19849566
12
Lattice="3.8203447936889314 -1.1025952749367112 -1.3081890375724368e-14 -1.9365422336987812 6.963128124572188 -8.955577429153058e-14 5.71423955170893e-14 1.2201617209072537e-13 9.011429625016898" Properties=species:S:1:pos:R:3:forces:R:3 unique_starting_index=57 config_type=initial n_minim_iter=13 energy=-1953.6194116326799 stress="0.0035403829097651546 -0.0015433015477028145 1.0323945616863154e-11 -0.0015433015477028145 -0.003556596771697433 2.9503066367817466e-11 1.0323945616863154e-11 2.9503066367817466e-11 6.10349965850539e-05" free_energy=-1953.6194116326799 pbc="T T T"
Si      -0.08284752       3.26416342      -0.07379443      -0.03592123      -0.23614128      -0.02603011
Si       1.96665008       2.59636943       4.43192038       0.03592123       0.23614128      -0.02603011
Si       0.65877151       5.83651732       5.99607637      -0.13494771      -0.18390173       0.33089376
Si       1.22503106       0.02401552       1.49036156       0.13494771       0.18390173       0.33089376
Si       1.14716840       2.98430699       6.73969531      -0.35459871      -0.03350562      -0.17311159
Si       0.73663417       2.87622585       2.23398050       0.35459871       0.03350562      -0.17311159
Si       0.36792405       4.63870182       3.94077142       0.00787022      -0.08704010      -0.05124056
Si       1.51587852       1.22183103       8.44648623      -0.00787022       0.08704010      -0.05124056
Si       2.28752667       4.03696060       9.35027937       0.03781040      -0.33831578      -0.06739351
Si      -0.40372411       1.82357224       4.84456455      -0.03781040       0.33831578      -0.06739351
Si       3.18083340      -0.39445214       2.73025066      -0.09010999       0.02167084      -0.01311798
Si      -1.29703083       6.25498498       7.23596547       0.09010999      -0.02167084      -0.01311798
12
Lattice="3.8074679654782946 -1.1098088088110736 -1.2904870986003928e-14 -1.9297229769266238 7.0116688083220735 -9.024849985974274e-14 5.692691148407676e-14 1.2161734081222521e-13 8.98413402942842" Properties=species:S:1:pos:R:3:forces:R:3 unique_starting_index=57 config_type=initial n_minim_iter=14 energy=-1953.6405183273914 stress="-0.0005856007088439501 0.0006764304765553828 -2.0134016581963147e-11 0.0006764304765553828 0.0008736628850349506 -2.6333516058207073e-11 -2.0134016581963147e-11 -2.6333516058207073e-11 -0.00028257435312492395" free_energy=-1953.6405183273914 pbc="T T T"
Si      -0.06501470       3.28489889      -0.06442225      -0.21815177      -0.26757669      -0.05244826
Si       1.94275970       2.61696110       4.42764476       0.21815177       0.26757669      -0.05244826
Si       0.64746200       5.89233916       5.98438343       0.02027765      -0.15870871       0.07988545
Si       1.23028299       0.00952084       1.49231641      -0.02027765       0.15870871       0.07988545
Si       1.11010014       3.02816461       6.72276569      -0.27116555      -0.11034168      -0.17453098
Si       0.76764486       2.87369538       2.23069868       0.27116555       0.11034168      -0.17453098
Si       0.38411843       4.66850880       3.93070832      -0.05817890      -0.09761518      -0.02396578
Si       1.49362656       1.23335120       8.42277534       0.05817890       0.09761518      -0.02396578
Si       2.28769725       4.05244180       9.31111750       0.15017783      -0.18872501       0.01024984
Si      -0.40995226       1.84941820       4.81905049      -0.15017782       0.18872501       0.01024984
Si       3.17109348      -0.40549688       2.71184443       0.02086633      -0.01310682       0.16080973
Si      -1.29334848       6.30735688       7.20391144      -0.02086633       0.01310682       0.16080973
12
Lattice="3.823872770403693 -1.1143898016647011 -1.2951201859458596e-14 -1.961359970600989 6.962087749849353 -8.9360477793619e-14 5.70214740308831e-14 1.2182693168926092e-13 8.996928300942882" Properties=species:S:1:pos:R:3:forces:R:3 unique_starting_index=57 config_type=initial n_minim_iter=15 energy=-1953.6634736969436 stress="-0.002196762218794992 -7.411543051317057e-05 -1.7923597680545523e-11 -7.411543051317057e-05 -0.0012138748876395107 -1.514843133317784e-11 -1.7923597680545523e-11 -1.514843133317784e-11 0.0017609441958812808" free_energy=-1953.6634736969436 pbc="T T T"
Si      -0.07567607       3.24607438      -0.08211796      -0.26823253      -0.22208282      -0.06068784
Si       1.93818887       2.60162357       4.41634619       0.26823253       0.22208282      -0.06068785
Si       0.63231046       5.82008080       6.02479514       0.09464151      -0.08934488      -0.21163454
Si       1.23020234       0.02761714       1.52633099      -0.09464151       0.08934488      -0.21163455
Si       1.09724437       2.97299132       6.70746863      -0.29358799       0.00834036      -0.13241958
Si       0.76526844       2.87470663       2.20900448       0.29358799      -0.00834036      -0.13241958
Si       0.37163790       4.62386435       3.92427184      -0.09214282       0.00120102       0.14885217
Si       1.49087491       1.22383360       8.42273599       0.09214281      -0.00120102       0.14885217
Si       2.27261381       3.99747911       9.34387677       0.27673057      -0.00949123      -0.01871738
Si      -0.41010101       1.85021883       4.84541262      -0.27673057       0.00949123      -0.01871738
Si       3.17328103      -0.40518238       2.71882673       0.08608454       0.08036843       0.27460717
Si      -1.31076822       6.25288032       7.21729088      -0.08608454      -0.08036843       0.27460717
12
Lattice="3.849048587558341 -1.1366394801773374 -1.4354424702421578e-14 -1.9958542901848015 7.032208964574515 -9.331217140148572e-14 5.0744215985969154e-14 1.1466180640999268e-13 8.880543173411189" Properties=species:S:1:pos:R:3:forces:R:3 unique_starting_index=57 config_type=initial n_minim_iter=16 energy=-1953.7277950571374 stress="0.0012829941323766216 0.00029815071372968246 -1.2953336573522092e-11 0.00029815071372968246 0.004401267068518132 -2.3515613593783516e-11 -1.2953336573522092e-11 -2.3515613593783516e-11 -0.0022470839753451137" free_energy=-1953.7277950571374 pbc="T T T"
Si      -0.10245801       3.25723261      -0.09835046      -0.19677634      -0.18272898      -0.02833486
Si       1.95565231       2.63833688       4.34192113       0.19677634       0.18272898      -0.02833486
Si       0.62334089       5.85651515       5.96179429      -0.01823457       0.10821664      -0.21384927
Si       1.22985341       0.03905434       1.52152270       0.01823457      -0.10821664      -0.21384928
Si       1.03318701       2.99110898       6.59251331      -0.21840037      -0.06195737      -0.06816260
Si       0.82000729       2.90446050       2.15224172       0.21840037       0.06195737      -0.06816260
Si       0.36227784       4.65751320       3.87862276      -0.01987615       0.03063536       0.04756015
Si       1.49091647       1.23805628       8.31889434       0.01987615      -0.03063536       0.04756015
Si       2.29723074       4.00126044       9.23197759       0.24505717       0.13782462       0.08905972
Si      -0.44403644       1.89430905       4.79170601      -0.24505717      -0.13782462       0.08905972
Si       3.19814456      -0.40911278       2.70011109      -0.08906991       0.00114394       0.17372686
Si      -1.34495026       6.30468226       7.14038268       0.08906991      -0.00114394       0.17372686
12