14
Lattice="5.279165236091802 -0.44078720392918747 8.843233198049635e-15 -0.6304410457902397 4.446701532937935 -1.9778835393686652e-14 -2.3844145334063185e-14 7.700613304037058e-14 18.072632217300242" Properties=species:S:1:pos:R:3:forces:R:3 unique_starting_index=0 config_type=initial n_minim_iter=1 energy=-2270.3841053561077 stress="-0.00135092323443431 0.00019140051582529726 -3.3280312601211045e-13 0.00019140051582529726 -0.0003977472705576417 -2.9384998065948993e-12 -3.3280312601211045e-13 -2.9384998065948993e-12 -0.0003563680045966378" free_energy=-2270.3841053561077 pbc="T T T"
Si       1.32050559       0.98677673      13.82723150      -0.22804142      -0.24276414      -0.65932919
Si       1.00385651       1.01618043       4.79091539       0.22804142       0.24276414      -0.65932919
Si       3.32821860       3.01913760       4.24540072       0.22804142       0.24276414       0.65932919
Si       3.64486769       2.98973390      13.28171682      -0.22804142      -0.24276414       0.65932919
Si       4.17937185       0.74174736       5.84891944      -0.05705825      -0.30737298      -0.81479864
Si       3.42415548       0.82042260      14.88523555       0.05705825       0.30737298      -0.81479864
Si       0.46935234       3.26416696      12.22371278       0.05705825       0.30737298       0.81479864
Si       1.22456871       3.18549173       3.18739667      -0.05705825      -0.30737298       0.81479864
Si       2.13334242       0.88870012       6.93657434       0.04390450       0.21111756      -0.12766885
Si       0.19101968       1.11425704      15.97289044      -0.04390450      -0.21111756      -0.12766885
Si       2.51538177       3.11721421      11.13605788      -0.04390450      -0.21111756       0.12766885
Si       4.45770451       2.89165728       2.09974177       0.04390450       0.21111756       0.12766885
Si       2.63958262      -0.22039360       0.00000000      -0.00000000      -0.00000000      -0.00000000
Si      -0.31522052       2.22335077       9.03631611       0.00000000       0.00000000       0.00000000
14
Lattice="5.322561991297152 -0.447922033803784 8.930889726309542e-15 -0.6406868743948749 4.458036100836352 -1.9840648983230528e-14 -2.3895090016075018e-14 7.717066202246407e-14 18.111245658399845" Properties=species:S:1:pos:R:3:forces:R:3 unique_starting_index=0 config_type=initial n_minim_iter=2 energy=-2270.4422621943236 stress="0.00823036755033889 7.66160878623924e-05 9.925823065001374e-12 7.66160878623924e-05 0.0038978515143162076 1.7394938509136492e-12 9.925823065001374e-12 1.7394938509136492e-12 0.005447740055894137" free_energy=-2270.4422621943236 pbc="T T T"
Si       1.32681631       0.98413658      13.84733523      -0.15198181      -0.23112679      -0.54978284
Si       1.01412124       1.02092046       4.79171241       0.15198181       0.23112679      -0.54978284
Si       3.35505880       3.02597749       4.26391042       0.15198181       0.23112679       0.54978284
Si       3.66775387       2.98919361      13.31953325      -0.15198181      -0.23112679       0.54978284
Si       4.21165436       0.73430034       5.84975122      -0.05832719      -0.27883552      -0.73447485
Si       3.45184519       0.82283466      14.90537405       0.05832719       0.27883552      -0.73447485
Si       0.47022075       3.27581373      12.26149444       0.05832719       0.27883552       0.73447485
Si       1.23002993       3.18727940       3.20587161      -0.05832719      -0.27883552       0.73447485
Si       2.15027881       0.89138436       6.94956707       0.12742053       0.20960900      -0.20573529
Si       0.19065875       1.11367267      16.00518990      -0.12742053      -0.20960899      -0.20573529
Si       2.53159631       3.11872971      11.16167858      -0.12742053      -0.20960899       0.20573529
Si       4.49121637       2.89644139       2.10605575       0.12742053       0.20960900       0.20573529
Si       2.66128100      -0.22396102       0.00000000       0.00000000       0.00000000      -0.00000000
Si      -0.32034344       2.22901805       9.05562283      -0.00000000      -0.00000000       0.00000000
14
Lattice="5.3542246400393765 -0.4981352458561171 9.18661861131021e-15 -0.6898643811491427 4.420894406349249 -1.9747273395849992e-14 -2.3329057502950172e-14 7.534262522767904e-14 17.682222210948968" Properties=species:S:1:pos:R:3:forces:R:3 unique_starting_index=0 config_type=initial n_minim_iter=3 energy=-2270.9453419221277 stress="0.013791906672346615 0.0006876493266075344 -3.505076450308308e-12 0.0006876493266075344 -2.7513393463522708e-05 6.848846145817824e-13 -3.505076450308308e-12 6.848846145817824e-13 -0.0038817016951575595" free_energy=-2270.9453419221277 pbc="T T T"
Si       1.29301819       0.92787581      13.43142449      -0.09129356      -0.02397776      -0.20577959
Si       1.03916194       1.03350377       4.59031338       0.09129356       0.02397776      -0.20577959
Si       3.37134207       2.99488335       4.25079772       0.09129356       0.02397776       0.20577959
Si       3.62519832       2.88925539      13.09190883      -0.09129356      -0.02397776       0.20577959
Si       4.21790307       0.64200770       5.60158268      -0.05202519      -0.05618561      -0.13182224
Si       3.46850170       0.82123664      14.44269378       0.05202519       0.05618561      -0.13182224
Si       0.44645719       3.28075146      12.08063954       0.05202519       0.05618561       0.13182224
Si       1.19585856       3.10152252       3.23952843      -0.05202519      -0.05618561       0.13182224
Si       2.15943462       0.88965167       6.76615507       0.30780717       0.26826960      -0.31844077
Si       0.17274551       1.07172791      15.60726618      -0.30780717      -0.26826960      -0.31844077
Si       2.50492564       3.03310749      10.91606714      -0.30780717      -0.26826960       0.31844077
Si       4.49161475       2.85103125       2.07495603       0.30780717       0.26826960       0.31844077
Si       2.67711232      -0.24906762       0.00000000      -0.00000000      -0.00000000      -0.00000000
Si      -0.34493219       2.21044720       8.84111111      -0.00000000       0.00000000       0.00000000
14
Lattice="5.267415981577098 -0.5275625797702176 9.19747518822849e-15 -0.7023471502832578 4.444098865207144 -1.9862615011962267e-14 -2.362068938142982e-14 7.628446830564972e-14 17.903264131670408" Properties=species:S:1:pos:R:3:forces:R:3 unique_starting_index=0 config_type=initial n_minim_iter=4 energy=-2271.0453429031286 stress="0.004685159326718594 0.00036420222782729977 -4.148651147461492e-12 0.00036420222782729977 0.0062277677299057916 -8.623774371898001e-13 -4.148651147461492e-12 -8.623774371898001e-13 0.0013537631226214152" free_energy=-2271.0453429031286 pbc="T T T"
Si       1.25588279       0.91461000      13.56889682      -0.12538498       0.03018532       0.13129903
Si       1.02665163       1.04365814       4.61726475       0.12538498      -0.03018532       0.13129903
Si       3.30918605       3.00192628       4.33436732       0.12538498      -0.03018532      -0.13129903
Si       3.53841720       2.87287815      13.28599938      -0.12538498       0.03018532      -0.13129903
Si       4.14125199       0.60940537       5.63464343      -0.04041699       0.05652007       0.08966971
Si       3.40869841       0.82130019      14.58627549       0.04041699      -0.05652007       0.08966971
Si       0.42381684       3.30713092      12.26862070       0.04041699      -0.05652007      -0.08966971
Si       1.15637042       3.09523609       3.31698864      -0.04041699       0.05652007      -0.08966972
Si       2.12233758       0.89366840       6.84299728       0.26667205       0.20560326      -0.32508525
Si       0.16019684       1.06459975      15.79462934      -0.26667205      -0.20560326      -0.32508525
Si       2.44273125       3.02286789      11.06026685      -0.26667205      -0.20560326       0.32508526
Si       4.40487199       2.85193654       2.10863479       0.26667205       0.20560326       0.32508525
Si       2.63370799      -0.26378129       0.00000000       0.00000000      -0.00000000      -0.00000000
Si      -0.35117358       2.22204943       8.95163207      -0.00000000      -0.00000000       0.00000000
14
Lattice="5.260929171966157 -0.5303994712209869 9.201004591615568e-15 -0.7062915739502399 4.416198768150098 -1.974893886617799e-14 -2.3699984624305103e-14 7.654055716674205e-14 17.963365835505385" Properties=species:S:1:pos:R:3:forces:R:3 unique_starting_index=0 config_type=initial n_minim_iter=5 energy=-2271.056116676735 stress="0.005135264557866684 0.0011513423681892012 1.9882094571132792e-12 0.0011513423681892012 -0.000547285213444036 7.38267855879434e-14 1.9882094571132792e-12 7.38267855879434e-14 0.002701605298291886" free_energy=-2271.056116676735 pbc="T T T"
Si       1.25161609       0.90635691      13.61202332      -0.14232640       0.09010096       0.15899271
Si       1.02570271       1.03654274       4.63034040       0.14232640      -0.09010097       0.15899270
Si       3.30302151       2.97944239       4.35134252       0.14232640      -0.09010097      -0.15899270
Si       3.52893489       2.84925656      13.33302543      -0.14232640       0.09010097      -0.15899271
Si       4.13462780       0.59947684       5.65042932      -0.05420316       0.12917258       0.14323844
Si       3.40362017       0.81302334      14.63211224       0.05420317      -0.12917258       0.14323844
Si       0.42000980       3.28632246      12.31293652       0.05420316      -0.12917258      -0.14323844
Si       1.15101743       3.07277596       3.33125360      -0.05420316       0.12917258      -0.14323844
Si       2.11970548       0.88712435       6.86415470       0.28432480       0.22003267      -0.32233048
Si       0.15761332       1.05577530      15.84583762      -0.28432480      -0.22003267      -0.32233048
Si       2.43493212       2.99867494      11.09921113      -0.28432480      -0.22003267       0.32233048
Si       4.39702428       2.83002400       2.11752821       0.28432480       0.22003267       0.32233048
Si       2.63046459      -0.26519974       0.00000000      -0.00000000      -0.00000000       0.00000000
Si      -0.35314579       2.20809938       8.98168292       0.00000000       0.00000000       0.00000000
14
Lattice="5.178941907032922 -0.6306299752730286 9.51990928683796e-15 -0.7829961007928463 4.391404780277351 -1.9744493733783967e-14 -2.3763607892916586e-14 7.674603242360348e-14 18.011588991251518" Properties=species:S:1:pos:R:3:forces:R:3 unique_starting_index=0 config_type=initial n_minim_iter=6 energy=-2271.121970249239 stress="-0.007738213749865137 0.0019336632268255724 -1.1628259489490762e-11 0.0019336632268255724 0.0025043405610429815 -1.0589128024924026e-12 -1.1628259489490762e-11 -1.0589128024924026e-12 -0.002783088885385136" free_energy=-2271.121970249239 pbc="T T T"
Si       1.20305643       0.87881949      13.65874563      -0.13822706       0.04373039      -0.02166342
Si       0.99491647       1.00156791       4.65295113       0.13822706      -0.04373039      -0.02166342
Si       3.19288937       2.88195532       4.35284337       0.13822706      -0.04373039       0.02166342
Si       3.40102934       2.75920689      13.35863786      -0.13822706       0.04373039       0.02166342
Si       4.04698868       0.51882545       5.67579164       0.10818485       0.18423465      -0.01127434
Si       3.32992613       0.73093198      14.68158613      -0.10818485      -0.18423465      -0.01127434
Si       0.34895713       3.24194936      12.33579736      -0.10818485      -0.18423465       0.01127434
Si       1.06601968       3.02984283       3.33000286       0.10818485       0.18423465       0.01127434
Si       2.07690566       0.84685298       6.86703246       0.01747539       0.04849550      -0.18124388
Si       0.12106724       1.03353442      15.87282696      -0.01747539      -0.04849550      -0.18124388
Si       2.31904014       2.91392182      11.14455653      -0.01747539      -0.04849550       0.18124388
Si       4.27487857       2.72724038       2.13876203       0.01747539       0.04849550       0.18124388
Si       2.58947095      -0.31531499       0.00000000       0.00000000      -0.00000000       0.00000000
Si      -0.39149805       2.19570239       9.00579450      -0.00000000       0.00000000       0.00000000
14
Lattice="5.178494544343961 -0.7019801999144679 9.823337024662286e-15 -0.8443638935853762 4.3755703804205215 -1.9757990199891034e-14 -2.3804305414723983e-14 7.687746757193051e-14 18.042435613492586" Properties=species:S:1:pos:R:3:forces:R:3 unique_starting_index=0 config_type=initial n_minim_iter=7 energy=-2271.1430554277963 stress="-0.009252079021796396 -0.00048109390362493907 2.0071585070372585e-12 -0.00048109390362493907 0.0010435507081985773 -2.6605344497367263e-12 2.0071585070372585e-12 -2.6605344497367263e-12 -0.005038789690477884" free_energy=-2271.1430554277963 pbc="T T T"
Si       1.18409527       0.85787259      13.68413333      -0.09437344       0.07960164      -0.05402286
Si       0.98297006       0.97892250       4.66291552       0.09437344      -0.07960164      -0.05402286
Si       3.15003538       2.81571759       4.35830228       0.09437344      -0.07960164       0.05402286
Si       3.35116059       2.69466768      13.37952009      -0.09437344       0.07960164       0.05402286
Si       4.03173177       0.46012842       5.68735664       0.08845233       0.25108543      -0.03594888
Si       3.31382810       0.67468647      14.70857445      -0.08845233      -0.25108543      -0.03594888
Si       0.30239888       3.21346176      12.35507897      -0.08845233      -0.25108543       0.03594888
Si       1.02030256       2.99890371       3.33386116       0.08845233       0.25108543       0.03594888
Si       2.06592370       0.81569658       6.87129520       0.00624662      -0.00052698      -0.11433548
Si       0.10114163       1.02109851      15.89251301      -0.00624662       0.00052698      -0.11433548
Si       2.26820695       2.85789360      11.17114041      -0.00624662       0.00052698       0.11433547
Si       4.23298902       2.65249167       2.14992260       0.00624662      -0.00052698       0.11433547
Si       2.58924727      -0.35099010       0.00000000      -0.00000000      -0.00000000      -0.00000000
Si      -0.42218195       2.18778519       9.02121781       0.00000000      -0.00000000      -0.00000000
14
Lattice="5.2195246164644455 -0.7222140092560043 9.963684838211422e-15 -0.8675810613444638 4.3603101544844485 -1.9723599112920802e-14 -2.3940711641457804e-14 7.731799986596883e-14 18.145824497152343" Properties=species:S:1:pos:R:3:forces:R:3 unique_starting_index=0 config_type=initial n_minim_iter=8 energy=-2271.1730241709934 stress="-0.0025083461793230467 -0.000690037314221663 1.300720503568163e-12 -0.000690037314221663 -0.0006717913127045123 5.717762500848007e-12 1.300720503568163e-12 5.717762500848007e-12 -0.001599169600341211" free_energy=-2271.1730241709934 pbc="T T T"
Si       1.18880284       0.85319211      13.76896848      -0.05361725       0.04244578      -0.06535573
Si       0.98716894       0.96585596       4.69605624       0.05361725      -0.04244578      -0.06535573
Si       3.16314071       2.78490404       4.37685601       0.05361725      -0.04244578       0.06535573
Si       3.36477462       2.67224018      13.44976826      -0.05361725       0.04244578       0.06535573
Si       4.06069563       0.44790639       5.72797698       0.06079976       0.22562692      -0.13988418
Si       3.33480076       0.64892767      14.80088923      -0.06079976      -0.22562692      -0.13988418
Si       0.29124792       3.19018976      12.41784752      -0.06079976      -0.22562692       0.13988418
Si       1.01714279       2.98916847       3.34493527       0.06079976       0.22562692       0.13988418
Si       2.08063294       0.80277035       6.90647535       0.07458984       0.03540222      -0.05868366
Si       0.09533884       1.01627772      15.97938760      -0.07458984      -0.03540222      -0.05868366
Si       2.27131062       2.83532579      11.23934914      -0.07458984      -0.03540222       0.05868366
Si       4.25660471       2.62181842       2.16643689       0.07458984       0.03540222       0.05868366
Si       2.60976231      -0.36110700       0.00000000      -0.00000000      -0.00000000      -0.00000000
Si      -0.43379053       2.18015508       9.07291225       0.00000000       0.00000000      -0.00000000
14
Lattice="5.244436578008509 -0.7194311830996055 9.984695045569152e-15 -0.8683641480162012 4.358488599379907 -1.971687076915502e-14 -2.3974232925382577e-14 7.742625891293534e-14 18.171231901248266" Properties=species:S:1:pos:R:3:forces:R:3 unique_starting_index=0 config_type=initial n_minim_iter=9 energy=-2271.1856790641286 stress="0.001938997634056112 -0.00044499250393532263 -1.5270006924056742e-11 -0.00044499250393532263 -0.00158761374491184 -4.1982436329401384e-13 -1.5270006924056742e-11 -4.1982436329401384e-13 0.00032535786315345493" free_energy=-2271.1856790641286 pbc="T T T"
Si       1.19167717       0.85310031      13.78170222      -0.02019187       0.07616270      -0.00962106
Si       0.99635905       0.96642840       4.69608627       0.02019187      -0.07616270      -0.00962106
Si       3.18439526       2.78595711       4.38952968       0.02019187      -0.07616270       0.00962106
Si       3.37971338       2.67262902      13.47514563      -0.02019187       0.07616270       0.00962106
Si       4.08133262       0.45262358       5.72657166       0.04493532       0.26380615      -0.07268287
Si       3.35114018       0.64747395      14.81218761      -0.04493532      -0.26380615      -0.07268287
Si       0.29473981       3.18643384      12.44466025      -0.04493532      -0.26380615       0.07268287
Si       1.02493225       2.99158347       3.35904429       0.04493532       0.26380615       0.07268287
Si       2.09445130       0.80657496       6.91158544       0.14808718       0.07234656      -0.06321539
Si       0.09358492       1.01295375      15.99720139      -0.14808718      -0.07234656      -0.06321539
Si       2.28162113       2.83248246      11.25964646      -0.14808718      -0.07234656       0.06321539
Si       4.28248751       2.62610367       2.17403051       0.14808718       0.07234656       0.06321539
Si       2.62221829      -0.35971559       0.00000000       0.00000000       0.00000000       0.00000000
Si      -0.43418207       2.17924430       9.08561595       0.00000000      -0.00000000      -0.00000000
14
Lattice="5.26690046704853 -0.7276412725482517 1.0049315376539885e-14 -0.8791039403617583 4.344814964338301 -1.9672777989529296e-14 -2.4212254922965113e-14 7.81949655851845e-14 18.351640297593278" Properties=species:S:1:pos:R:3:forces:R:3 unique_starting_index=0 config_type=initial n_minim_iter=10 energy=-2271.2092203534885 stress="0.005917749039507021 -0.000615480267860518 -2.947709712647578e-12 -0.000615480267860518 -0.003610903427499807 -5.207560944745074e-13 -2.947709712647578e-12 -5.207560944745074e-13 0.006214593323049004" free_energy=-2271.2092203534885 pbc="T T T"
Si       1.18068380       0.85332751      13.90753049       0.02861671       0.07923935       0.01782367
Si       1.01321446       0.95525934       4.73171034      -0.02861671      -0.07923935       0.01782367
Si       3.20711273       2.76384619       4.44410981      -0.02861671      -0.07923935      -0.01782367
Si       3.37458206       2.66191435      13.61992996       0.02861671       0.07923935      -0.01782367
Si       4.09870382       0.46587837       5.76294252       0.07115593       0.21043107      -0.01454932
Si       3.36209491       0.61506720      14.93876267      -0.07115593      -0.21043107      -0.01454932
Si       0.28909271       3.15129532      12.58869778      -0.07115593      -0.21043107       0.01454932
Si       1.02570162       3.00210649       3.41287763       0.07115593       0.21043107       0.01454932
Si       2.12031598       0.81280520       6.95766809       0.21562710       0.22340513       0.08970964
Si       0.07358228       0.99578164      16.13348824      -0.21562710      -0.22340513       0.08970964
Si       2.26748055       2.80436849      11.39397220      -0.21562710      -0.22340513      -0.08970964
Si       4.31421424       2.62139205       2.21815206       0.21562710       0.22340513      -0.08970964
Si       2.63345023      -0.36382064       0.00000000      -0.00000000       0.00000000      -0.00000000
Si      -0.43955197       2.17240748       9.17582015      -0.00000000       0.00000000       0.00000000
14
Lattice="5.289800224744861 -0.6560851934428495 9.774633097991662e-15 -0.819904293215125 4.364718309238492 -1.9679479538788234e-14 -2.3977245145388873e-14 7.743598706260449e-14 18.17351500863445" Properties=species:S:1:pos:R:3:forces:R:3 unique_starting_index=0 config_type=initial n_minim_iter=11 energy=-2271.2751220038167 stress="0.00508871049132193 0.0012550946857679943 -8.677642151694832e-12 0.0012550946857679943 0.00014874592939529183 5.126935555343386e-12 -8.677642151694832e-12 5.126935555343386e-12 0.004198074505711516" free_energy=-2271.2751220038167 pbc="T T T"
Si       1.17526896       0.88354310      13.74111687       0.16693838       0.08960151       0.11190217
Si       1.05967901       0.97077346       4.65435937      -0.16693838      -0.08960151       0.11190217
Si       3.29462697       2.82509002       4.43239814      -0.16693838      -0.08960151      -0.11190217
Si       3.41021693       2.73785966      13.51915564       0.16693838       0.08960151      -0.11190217
Si       4.13799665       0.56929310       5.65649244       0.27718909       0.12056967       0.10575682
Si       3.38675154       0.62893826      14.74324995      -0.27718909      -0.12056967       0.10575682
Si       0.33189928       3.13934001      12.51702257      -0.27718909      -0.12056967      -0.10575682
Si       1.08314439       3.07969486       3.43026506       0.27718909       0.12056967      -0.10575682
Si       2.18137931       0.88067836       6.85794266       0.15490134       0.39090797       0.10010808
Si       0.05356866       0.97363820      15.94470017      -0.15490134      -0.39090797       0.10010808
Si       2.28851663       2.82795476      11.31557234      -0.15490134      -0.39090797      -0.10010808
Si       4.41632727       2.73499492       2.22881484       0.15490134       0.39090797      -0.10010808
Si       2.64490011      -0.32804260       0.00000000       0.00000000      -0.00000000      -0.00000000
Si      -0.40995215       2.18235915       9.08675750      -0.00000000      -0.00000000      -0.00000000
14
Lattice="5.294872412150908 -0.6509235990960549 9.759331926365231e-15 -0.8164090651572992 4.361763441460738 -1.9662277635752806e-14 -2.370139747776892e-14 7.65451200638503e-14 17.964436705552085" Properties=species:S:1:pos:R:3:forces:R:3 unique_starting_index=0 config_type=initial n_minim_iter=12 energy=-2271.3327984509847 stress="-0.0020640934826680964 0.0013895733081448107 -6.707688418096658e-12 0.0013895733081448107 0.004142513718187761 2.7066328418807523e-12 -6.707688418096658e-12 2.7066328418807523e-12 -0.0014140644893603637" free_energy=-2271.3327984509847 pbc="T T T"
Si       1.15164813       0.90060655      13.56564950       0.29430966       0.01145653       0.03709660
Si       1.08758355       0.95481337       4.58343115      -0.29430966      -0.01145653       0.03709660
Si       3.32681522       2.81023329       4.39878720      -0.29430966      -0.01145654      -0.03709660
Si       3.39087980       2.75602647      13.38100556       0.29430965       0.01145653      -0.03709660
Si       4.15820476       0.63078824       5.55561405       0.52714142      -0.11369583       0.02781975
Si       3.37589932       0.57370808      14.53783240      -0.52714142       0.11369583       0.02781975
Si       0.32025859       3.08005160      12.40882265      -0.52714142       0.11369583      -0.02781975
Si       1.10256402       3.13713176       3.42660430       0.52714142      -0.11369583      -0.02781975
Si       2.23234986       0.92803792       6.74047652      -0.08141714       0.46404808       0.24075571
Si       0.00688182       0.92738200      15.72269488       0.08141714      -0.46404808       0.24075571
Si       2.24611349       2.78280192      11.22396018       0.08141714      -0.46404808      -0.24075571
Si       4.47158153       2.78345784       2.24174183      -0.08141714       0.46404808      -0.24075571
Si       2.64743621      -0.32546180       0.00000000      -0.00000000      -0.00000000       0.00000000
Si      -0.40820453       2.18088172       8.98221835      -0.00000000      -0.00000000      -0.00000000
14
Lattice="5.287700936395463 -0.7196937810101383 1.0042894829980785e-14 -0.8756048451660247 4.336297585867046 -1.9631869542701645e-14 -2.361619664118487e-14 7.626995872486223e-14 17.89985886631242" Properties=species:S:1:pos:R:3:forces:R:3 unique_starting_index=0 config_type=initial n_minim_iter=13 energy=-2271.389757653281 stress="-0.00593247892721241 -0.0024202226615341917 -4.720708999044796e-13 -0.0024202226615341917 -0.0040683981517620794 -1.7895994929223604e-12 -4.720708999044796e-13 -1.7895994929223604e-12 -0.006558138722307102" free_energy=-2271.389757653281 pbc="T T T"
Si       1.14494718       0.88355855      13.53044149       0.23181702       0.00069843      -0.18444401
Si       1.06110086       0.92474335       4.58051206      -0.23181702      -0.00069843      -0.18444401
Si       3.26714891       2.73304525       4.36941738      -0.23181702      -0.00069843       0.18444401
Si       3.35099523       2.69186046      13.31934681       0.23181702       0.00069843       0.18444401
Si       4.15405910       0.57397564       5.55135006       0.34273155      -0.11055281       0.04428862
Si       3.33968988       0.51463248      14.50127949      -0.34273155       0.11055281       0.04428862
Si       0.25803699       3.04262817      12.34850881      -0.34273155       0.11055281      -0.04428862
Si       1.07240621       3.10197132       3.39857937       0.34273155      -0.11055281      -0.04428862
Si       2.21564339       0.90700747       6.72247049      -0.00058580       0.42963536       0.09695830
Si      -0.00959534       0.90129443      15.67239993       0.00058580      -0.42963536       0.09695830
Si       2.19645270       2.70959633      11.17738837       0.00058580      -0.42963536      -0.09695830
Si       4.42169143       2.71530937       2.22745894      -0.00058580       0.42963536      -0.09695830
Si       2.64385047      -0.35984689       0.00000000       0.00000000      -0.00000000       0.00000000
Si      -0.43780242       2.16814879       8.94992943       0.00000000       0.00000000      -0.00000000
14
Lattice="5.337690181098517 -0.7038871835763061 1.004149746136499e-14 -0.8691292106128284 4.325893462347206 -1.9578994716286524e-14 -2.360302703361171e-14 7.622742666767784e-14 17.889876983096237" Properties=species:S:1:pos:R:3:forces:R:3 unique_starting_index=0 config_type=initial n_minim_iter=14 energy=-2271.563573061019 stress="-0.0024583015827147284 -0.001164793979372686 -2.8844170020040424e-12 -0.001164793979372686 0.0052544676224359575 -2.166739284353377e-12 -2.8844170020040424e-12 -2.166739284353377e-12 0.00035032208795247156" free_energy=-2271.563573061019 pbc="T T T"
Si       1.15435970       0.90868503      13.50539530       0.12772696      -0.11028144      -0.18274202
Si       1.07992079       0.90231811       4.56045680      -0.12772696       0.11028144      -0.18274202
Si       3.31420127       2.71332125       4.38448169      -0.12772696       0.11028144       0.18274202
Si       3.38864018       2.71968817      13.32942018       0.12772696      -0.11028144       0.18274202
Si       4.25827664       0.65357207       5.51326277       0.16618383      -0.29124119       0.12920665
Si       3.31369403       0.45354389      14.45820126      -0.16618383       0.29124119       0.12920665
Si       0.21028433       2.96843421      12.37661421      -0.16618383       0.29124119      -0.12920665
Si       1.15486694       3.16846239       3.43167572       0.16618383      -0.29124119      -0.12920665
Si       2.29617336       1.00448741       6.69018642      -0.03435496       0.39885208      -0.03835424
Si      -0.06189287       0.80651573      15.63512491       0.03435496      -0.39885208      -0.03835424
Si       2.17238761       2.61751887      11.19969056       0.03435496      -0.39885208       0.03835424
Si       4.53045384       2.81549055       2.25475207      -0.03435496       0.39885208       0.03835424
Si       2.66884509      -0.35194359       0.00000000      -0.00000000      -0.00000000       0.00000000
Si      -0.43456461       2.16294673       8.94493849       0.00000000       0.00000000       0.00000000
14
Lattice="5.38529116036719 -0.6958106604001779 1.006988640014006e-14 -0.8709756753269995 4.290384107659988 -1.9430128149099502e-14 -2.3434441758942112e-14 7.568297016030581e-14 17.76209804098401" Properties=species:S:1:pos:R:3:forces:R:3 unique_starting_index=0 config_type=initial n_minim_iter=15 energy=-2271.667439514384 stress="-0.0025668372921683067 0.0012164601992132832 -1.2293280762367207e-11 0.0012164601992132832 0.009154992082729524 -9.80650882572284e-12 -1.2293280762367207e-11 -9.80650882572284e-12 0.004672842175713205" free_energy=-2271.667439514384 pbc="T T T"
Si       1.16370008       0.92107095      13.38830777       0.02595139      -0.18523014      -0.25524007
Si       1.09345766       0.87621577       4.50725875      -0.02595139       0.18523014      -0.25524007
Si       3.35061541       2.67350249       4.37379027      -0.02595139       0.18523014       0.25524007
Si       3.42085782       2.71835768      13.25483929       0.02595139      -0.18523014       0.25524007
Si       4.35915846       0.70586048       5.44265085       0.05651195      -0.42492253       0.25352421
Si       3.28329045       0.39561559      14.32369987      -0.05651196       0.42492253       0.25352421