14
Lattice="6.985451187548 1.3276425521997512 -0.8876355077646938 -1.6561762812271241 6.914929091654566 0.8876348447204905 -4.18257410653787 -3.139856075487148 4.950217076651839" Properties=species:S:1:pos:R:3:forces:R:3 unique_starting_index=10 config_type=initial n_minim_iter=1 energy=-2278.543921942638 stress="0.00142007843967773 0.00014458587589890812 -0.0006371408506893677 0.00014458587589890812 0.001550220910169771 0.0004119466763589246 -0.0006371408506893677 0.0004119466763589246 0.0035416567937468246" free_energy=-2278.543921942638 pbc="T T T"
Si       1.88059514       4.61868172       2.52993668      -0.02694196      -0.02746077       0.02578152
Si      -0.74258541       0.47059173       2.42027974      -0.01398449      -0.03583849      -0.02578152
Si       0.49022188       2.59213888       2.50418602       0.10033358       0.04185418      -0.05741636
Si       3.30929257       6.61357513       2.44603007      -0.00301033       0.10867171       0.05741635
Si      -0.66477453      -2.48271581       4.45157069       0.02694196       0.02746077      -0.02578153
Si      -0.84447105       3.47758770       0.49864606       0.01398449       0.03583849       0.02578152
Si       0.72559873      -0.45617297       4.47732135      -0.10033358      -0.04185418       0.05741636
Si       0.43292587       5.57717594       0.47289506       0.00301033      -0.10867171      -0.05741635
Si       3.95477870       6.11669456      -0.00000049       0.03129397       0.04840110      -0.00000000
Si      -2.86172237      -1.09694869       4.95021691      -0.08953862      -0.13848573       0.00000001
Si      -0.21256026       6.07405652       2.91892562      -0.03129397      -0.04840110       0.00000000
Si      -2.90790820       1.90527204       2.91892596       0.08953862       0.13848573      -0.00000001
Si       2.77045047       1.21128802       2.03129061      -0.04106151      -0.06350816       0.00000001
Si       2.62794426       4.06453396      -0.00000033       0.04106151       0.06350816      -0.00000001
14
Lattice="6.976227718618081 1.3253072304163551 -0.8815541581286502 -1.6545205198767643 6.905559749482589 0.8815534960259869 -4.174329687044096 -3.1368877453379636 4.933901206071162" Properties=species:S:1:pos:R:3:forces:R:3 unique_starting_index=10 config_type=initial n_minim_iter=2 energy=-2278.5460323471902 stress="-0.0012908743858882213 0.0003603251847293053 -0.00036664995426532716 0.0003603251847293053 -0.0009665441043440215 0.0002370593699098356 -0.00036664995426532716 0.0002370593699098356 -4.0295755334964923e-05" free_energy=-2278.5460323471902 pbc="T T T"
Si       1.87900239       4.61126085       2.52168982      -0.03167801      -0.02199311       0.04226545
Si      -0.74045444       0.46906207       2.41221073      -0.00705481      -0.03791337      -0.04226545
Si       0.49104281       2.58787044       2.49566790       0.08584285       0.04716429      -0.06217913
Si       3.30573996       6.60383562       2.43823232       0.00777902       0.09763684       0.06217912
Si      -0.66110266      -2.48078861       4.43838442       0.03167801       0.02199311      -0.04226545
Si      -0.84354387       3.47299069       0.49551646       0.00705481       0.03791337       0.04226545
Si       0.72685692      -0.45739820       4.46440634      -0.08584285      -0.04716429       0.06217913
Si       0.43196893       5.56908412       0.46949421      -0.00777902      -0.09763684      -0.06217912
Si       3.94927814       6.10818707      -0.00000049       0.04530381       0.07006955      -0.00000001
Si      -2.85568358      -1.09739171       4.93390104      -0.10274078      -0.15890496       0.00000001
Si      -0.21156925       6.06473267       2.90772702      -0.04530381      -0.07006955       0.00000001
Si      -2.90264441       1.90255673       2.90772735       0.10274078       0.15890496      -0.00000001
Si       2.76786558       1.20836372       2.02617335      -0.03812863      -0.05897199       0.00000000
Si       2.62436383       4.05899627      -0.00000033       0.03812863       0.05897199      -0.00000001
14
Lattice="6.993025225594929 1.3191907171628556 -0.8672309143519715 -1.6669919595617257 6.918367214172508 0.8672302517110785 -4.173049625309513 -3.1424593728300367 4.913277154509755" Properties=species:S:1:pos:R:3:forces:R:3 unique_starting_index=10 config_type=initial n_minim_iter=3 energy=-2278.5487544992543 stress="0.0005132638977795473 0.0003355462848003723 0.0005126970732518354 0.0003355462848003723 0.0008152904518720077 -0.0003314869563585778 0.0005126970732518354 -0.0003314869563585778 -0.0010596902427817778" free_energy=-2278.5487544992543 pbc="T T T"
Si       1.88234188       4.61304141       2.51184528      -0.03051824      -0.00633774       0.04816787
Si      -0.73892122       0.46726648       2.40143121       0.00674540      -0.03043074      -0.04816787
Si       0.49525428       2.58942686       2.48393700       0.07736045       0.02942549      -0.08135480
Si       3.31103700       6.60943417       2.42933916      -0.00491584       0.08262164       0.08135479
Si      -0.65087875      -2.48896665       4.42445449       0.03051824       0.00633774      -0.04816787
Si      -0.84959125       3.48007693       0.48882233      -0.00674540       0.03043074       0.04816787
Si       0.73620884      -0.46535210       4.45236278      -0.07736045      -0.02942549       0.08135480
Si       0.42648380       5.57546718       0.46091372       0.00491584      -0.08262164      -0.08135479
Si       3.95326781       6.11435771      -0.00000049       0.03502250       0.05416787      -0.00000000
Si      -2.85517743      -1.10416032       4.91327699      -0.08298129      -0.12834376       0.00000001
Si      -0.21574701       6.07054363       2.89025337      -0.03502250      -0.05416787       0.00000000
Si      -2.90638467       1.90904436       2.89025370       0.08298129       0.12834376      -0.00000001
Si       2.77729735       1.20312747       2.02302295      -0.02112450      -0.03267241       0.00000000
Si       2.62721540       4.06340667      -0.00000033       0.02112450       0.03267241      -0.00000000
14
Lattice="6.9954207022224315 1.298005138082998 -0.8660048935257983 -1.6872942816518421 6.91185700738364 0.8660042331127938 -4.167334598905403 -3.1265176790867164 4.911606907049613" Properties=species:S:1:pos:R:3:forces:R:3 unique_starting_index=10 config_type=initial n_minim_iter=4 energy=-2278.55161651941 stress="0.000765119199932885 -0.0024784478636484023 0.0007756494476404391 -0.0024784478636484023 -0.0014657423872510825 -0.0005014996635571652 0.0007756494476404391 -0.0005014996635571652 0.000244986777163196" free_energy=-2278.55161651941 pbc="T T T"
Si       1.87061718       4.59971078       2.51254090      -0.01229026       0.02235640       0.02714133
Si      -0.74055058       0.46704544       2.39906535       0.02543086      -0.00203238      -0.02714133
Si       0.49208152       2.58511878       2.48052747       0.06544236      -0.00985652      -0.07049724
Si       3.29621874       6.59301876       2.43107845      -0.03584602       0.05563198       0.07049723
Si      -0.64281391      -2.48308811       4.42186652       0.01229026      -0.02235640      -0.02714133
Si      -0.85973226       3.47808978       0.48974006      -0.02543086       0.00203238       0.02714133
Si       0.73572175      -0.46849611       4.45387995      -0.06544236       0.00985653       0.07049724
Si       0.41162485       5.56197859       0.45772630       0.03584602      -0.05563198      -0.07049723
Si       3.94140210       6.09600552      -0.00000049       0.05758249       0.08906048      -0.00000001
Si      -2.85728330      -1.10031488       4.91160674      -0.08978627      -0.13886875       0.00000001
Si      -0.23355852       6.05899184       2.88880524      -0.05758249      -0.08906048       0.00000001
Si      -2.91033414       1.91893241       2.88880557       0.08978627       0.13886875      -0.00000001
Si       2.77561260       1.19162770       2.02280084      -0.00001756      -0.00002716      -0.00000000
Si       2.61952526       4.05151265      -0.00000033       0.00001756       0.00002716      -0.00000000
14
Lattice="6.998159586902504 1.298095867333631 -0.8769323442042188 -1.6883355942928522 6.914391843411306 0.87693168358001 -4.17856993438398 -3.121114988000481 4.9054362130589935" Properties=species:S:1:pos:R:3:forces:R:3 unique_starting_index=10 config_type=initial n_minim_iter=5 energy=-2278.5587284389826 stress="0.0010403686212606417 5.5034768403185965e-05 -0.0004935988423442793 5.5034768403185965e-05 0.0010899057343965643 0.00031913856547372915 -0.0004935988423442793 0.00031913856547372915 -0.001084098135812206" free_energy=-2278.5587284389826 pbc="T T T"
Si       1.86240498       4.60294172       2.51468959       0.03495950       0.10647796      -0.01037501
Si      -0.74546929       0.46628538       2.39074596       0.08275012       0.07557870       0.01037499
Si       0.49810722       2.59348663       2.46850992      -0.00353331      -0.10255829      -0.00543895
Si       3.29183868       6.60997608       2.43692530      -0.09207320      -0.04531239       0.00543897
Si      -0.64881209      -2.47620047       4.40499806      -0.03495950      -0.10647796       0.01037501
Si      -0.86052748       3.48347498       0.50043782      -0.08275012      -0.07557870      -0.01037499
Si       0.71548567      -0.46674539       4.45117773       0.00353331       0.10255829       0.00543895
Si       0.41198855       5.55227199       0.45425782       0.09207320       0.04531239      -0.00543897
Si       3.94804515       6.10628005      -0.00000049       0.03782937       0.05850914      -0.00000000
Si      -2.88018919      -1.11296256       4.90543605      -0.02829958      -0.04376980       0.00000000
Si      -0.24421793       6.05596803       2.89118361      -0.03782937      -0.05850914       0.00000000
Si      -2.90437751       1.94160793       2.89118394       0.02829958       0.04376980      -0.00000000
Si       2.76817228       1.18943732       2.01425177       0.06291392       0.09730640      -0.00000001
Si       2.62399055       4.05841892      -0.00000033      -0.06291392      -0.09730640       0.00000001
14
Lattice="6.983020074763473 1.3040612283276511 -0.8705974455970326 -1.6766824404802025 6.903034274511617 0.8705967854065803 -4.165428819577271 -3.125788274067124 4.916297971905168" Properties=species:S:1:pos:R:3:forces:R:3 unique_starting_index=10 config_type=initial n_minim_iter=6 energy=-2278.5610059202504 stress="-5.876198981475533e-05 0.00023564972498148177 0.00038677421223864863 0.00023564972498148177 0.00015334726150874602 -0.0002500707473308864 0.00038677421223864863 -0.0002500707473308864 0.0002889010188436845" free_energy=-2278.5610059202504 pbc="T T T"
Si       1.86680961       4.59776540       2.52032909       0.04437707       0.08145274      -0.00427256
Si      -0.73885615       0.46350431       2.39596822       0.05606451       0.07389617       0.00427255
Si       0.50358693       2.58717987       2.47340239      -0.00672163      -0.08177014      -0.00528428
Si       3.29349337       6.60231924       2.44289459      -0.07180791      -0.03968829       0.00528429
Si      -0.64368957      -2.47909556       4.41881865      -0.04437707      -0.08145274       0.00427256
Si      -0.85561507       3.47689258       0.49747899      -0.05606451      -0.07389617      -0.00427255
Si       0.71953310      -0.46851003       4.46574535       0.00672163       0.08177014       0.00528428
Si       0.41837304       5.54517315       0.45055196       0.07180790       0.03968829      -0.00528429
Si       3.94623264       6.10347671      -0.00000049       0.03557143       0.05501688      -0.00000000
Si      -2.86884987      -1.12042261       4.91629781      -0.02781612      -0.04302205       0.00000000
Si      -0.23436622       6.04401568       2.89344704      -0.03557143      -0.05501688       0.00000000
Si      -2.89105017       1.93503123       2.89344738       0.02781612       0.04302205      -0.00000000
Si       2.76691949       1.18969114       2.02285009       0.06007365       0.09291346      -0.00000001
Si       2.62162937       4.05476697      -0.00000033      -0.06007365      -0.09291346       0.00000001
14
Lattice="6.966922619536788 1.295080674250369 -0.8821955240899657 -1.6782653770009457 6.884669289424326 0.8821948660992275 -4.1611916015581025 -3.109139425466625 4.931607362855866" Properties=species:S:1:pos:R:3:forces:R:3 unique_starting_index=10 config_type=initial n_minim_iter=7 energy=-2278.5652885228233 stress="-0.0017853350617530017 -0.0004002083203844874 -5.6490118051875414e-05 -0.0004002083203844874 -0.002145564255817103 3.652426745944457e-05 -5.6490118051875414e-05 3.652426745944457e-05 0.001461913829812167" free_energy=-2278.5652885228233 pbc="T T T"
Si       1.85809739       4.59248089       2.52881086       0.00541981      -0.00211224      -0.02333120
Si      -0.73586237       0.47003966       2.40279584      -0.00415047       0.00407548       0.02333120
Si       0.49896336       2.57560825       2.47889057       0.03436346      -0.00596735       0.02614781
Si       3.27139553       6.58265725       2.45271580      -0.01954456       0.02888714      -0.02614781
Si      -0.64993055      -2.47383721       4.42750193      -0.00541981       0.00211224       0.02333120
Si      -0.86170180       3.46266277       0.50410511       0.00415047      -0.00407548      -0.02333120
Si       0.70920348      -0.45696456       4.47742222      -0.03436346       0.00596735      -0.02614781
Si       0.41969753       5.52979515       0.45418449       0.01954456      -0.02888714       0.02614781
Si       3.93734307       6.08972757      -0.00000049       0.03222048       0.04983410      -0.00000000
Si      -2.87401545      -1.11831668       4.93160720      -0.04522087      -0.06994128       0.00000001
Si      -0.24625000       6.02272482       2.90690078      -0.03222048      -0.04983410       0.00000000
Si      -2.88474033       1.94187969       2.90690111       0.04522087       0.06994128      -0.00000001
Si       2.76048693       1.19274818       2.02470575       0.02243189       0.03469448      -0.00000000
Si       2.60887151       4.03503492      -0.00000032      -0.02243189      -0.03469448       0.00000000
14
Lattice="6.983491077082648 1.2774457847831024 -0.8770839423026722 -1.7011464632523379 6.892540694124709 0.8770832850973223 -4.164054709724657 -3.1003657978763797 4.909382571696242" Properties=species:S:1:pos:R:3:forces:R:3 unique_starting_index=10 config_type=initial n_minim_iter=8 energy=-2278.5694725850194 stress="1.536947733554043e-05 -0.00013691074810053946 0.000251674327129064 -0.00013691074810053946 -0.0001078645241923405 -0.00016272124496776567 0.000251674327129064 -0.00016272124496776567 1.7968314102323827e-05" free_energy=-2278.5694725850194 pbc="T T T"
Si       1.85171400       4.59463047       2.52027234      -0.01349777      -0.02269798      -0.04399325
Si      -0.73414550       0.47387445       2.38910957      -0.01515882      -0.02162401       0.04399326
Si       0.50302782       2.57226078       2.46123321       0.02855419       0.00291422       0.05135332
Si       3.25749915       6.58399998       2.44814837      -0.00906128       0.02723467      -0.05135333
Si      -0.64429206      -2.47896640       4.40525905       0.01349777       0.02269798       0.04399325
Si      -0.87786893       3.46470963       0.50412319       0.01515882       0.02162401      -0.04399326
Si       0.70439412      -0.45659671       4.46429818      -0.02855419      -0.00291422      -0.05135332
Si       0.41283103       5.52457058       0.44508373       0.00906128      -0.02723467       0.05135333
Si       3.93991144       6.09369997      -0.00000049       0.00239994       0.00371189      -0.00000000
Si      -2.89055825      -1.13070088       4.90938241      -0.01200093      -0.01856135       0.00000000
Si      -0.26958126       6.01487059       2.89323260      -0.00239994      -0.00371189      -0.00000000
Si      -2.88551089       1.96891916       2.89323292       0.01200093       0.01856135      -0.00000000
Si       2.76770456       1.18888201       2.01614915       0.02209900       0.03417963      -0.00000000
Si       2.60377209       4.02714785      -0.00000032      -0.02209900      -0.03417963       0.00000000
14
Lattice="6.988553148398497 1.277406621120517 -0.8902076323699234 -1.7032596711218062 6.897140744334146 0.8902069747976894 -4.17691661696411 -3.095283613038662 4.912667404772445" Properties=species:S:1:pos:R:3:forces:R:3 unique_starting_index=10 config_type=initial n_minim_iter=9 energy=-2278.570593849496 stress="0.0004890503305113703 0.0005017696732160782 -0.0007386640429642525 0.0005017696732160782 0.0009406954666201726 0.00047758669993053807 -0.0007386640429642525 0.00047758669993053807 -0.00042780974345873373" free_energy=-2278.570593849496 pbc="T T T"
Si       1.84723332       4.60055576       2.51881479      -0.01380227      -0.01931455      -0.03842833
Si      -0.73976522       0.47730245       2.39385196      -0.01194850      -0.02051311       0.03842833
Si       0.49929124       2.57586827       2.46677345       0.02958559       0.00231814       0.04005824
Si       3.25240931       6.59171618       2.44589296      -0.01002813       0.02793058      -0.04005824
Si      -0.65436156      -2.47386733       4.40508201       0.01380227       0.01931455       0.03842833
Si      -0.87899955       3.46726297       0.50758506       0.01194850       0.02051311      -0.03842833
Si       0.69358052      -0.44917985       4.45712334      -0.02958559      -0.00231814      -0.04005824
Si       0.41411940       5.52739660       0.45554340       0.01002813      -0.02793058       0.04005824
Si       3.94250070       6.09770467      -0.00000049      -0.00903757      -0.01397804       0.00000000
Si      -2.90325903      -1.12536949       4.91266725      -0.02177357      -0.03367629       0.00000000
Si      -0.27597199       6.02140812       2.90143686       0.00903757       0.01397804      -0.00000000
Si      -2.89242236       1.97465130       2.90143718       0.02177357       0.03367629      -0.00000000
Si       2.76695205       1.19627149       2.01122972      -0.00350053      -0.00541413       0.00000000
Si       2.60283632       4.02570054      -0.00000032       0.00350053       0.00541413      -0.00000000
14
Lattice="6.981657446723185 1.2667280559982643 -0.8916759896871755 -1.7101674693003808 6.886470000501322 0.8916753338323102 -4.170622590416516 -3.0842160317230753 4.916675980039151" Properties=species:S:1:pos:R:3:forces:R:3 unique_starting_index=10 config_type=initial n_minim_iter=10 energy=-2278.572840185438 stress="-0.00025156286469053916 -4.9362519931930896e-05 3.7010148103751424e-05 -4.9362519931930896e-05 -0.00029599428276610475 -2.3929080599451224e-05 3.7010148103751424e-05 -2.3929080599451224e-05 -0.00023178536592873475" free_energy=-2278.572840185438 pbc="T T T"
Si       1.83844902       4.59016331       2.51518548       0.02946373      -0.00161517      -0.01589286
Si      -0.73934300       0.47609449       2.40148984      -0.01356492       0.02620522       0.01589285
Si       0.50455645       2.56840295       2.47355036      -0.01396581      -0.01996499       0.00898306
Si       3.23593131       6.58317201       2.44312463      -0.01247452      -0.02092919      -0.00898306
Si      -0.64993670      -2.46822478       4.41399000      -0.02946373       0.00161517       0.01589286
Si      -0.88317954       3.46333201       0.50268565       0.01356492      -0.02620522      -0.01589285
Si       0.68395587      -0.44646441       4.45562512       0.01396581       0.01996499      -0.00898306
Si       0.41303613       5.50945255       0.46105020       0.01247452       0.02092919       0.00898306
Si       3.93627131       6.08806992      -0.00000049      -0.02328158      -0.03600867       0.00000000
Si      -2.90912529      -1.13310972       4.91667582      -0.02590704      -0.04006936       0.00000000
Si      -0.28730386       6.00455464       2.90417533       0.02328158       0.03600867      -0.00000000
Si      -2.88401984       1.98832020       2.90417565       0.02590704       0.04006936      -0.00000000
Si       2.76739491       1.19761625       2.01249983      -0.02677974      -0.04141913       0.00000000
Si       2.59174000       4.00853831      -0.00000032       0.02677974       0.04141913      -0.00000000
14
Lattice="6.984628755075691 1.2681727059294865 -0.8952374961656754 -1.7100695248315965 6.889772438441766 0.8952368399289472 -4.174345838164415 -3.0851745111937667 4.9249145608901275" Properties=species:S:1:pos:R:3:forces:R:3 unique_starting_index=10 config_type=initial n_minim_iter=11 energy=-2278.573646911237 stress="0.0007997011631556855 7.902991628118484e-05 9.22603670692148e-05 7.902991628118484e-05 0.0008708363114092678 -5.9651382935490706e-05 9.22603670692148e-05 -5.9651382935490706e-05 0.0010120205928625876" free_energy=-2278.573646911237 pbc="T T T"
Si       1.84043029       4.59197714       2.51510466       0.02439039      -0.01008770      -0.00334731
Si      -0.74222533       0.47768715       2.40980924      -0.01920893       0.01810165       0.00334731
Si       0.50463285       2.56860071       2.48206093      -0.00421075      -0.00628599      -0.01274330
Si       3.23542630       6.58711145       2.44285265      -0.00400411      -0.00641960       0.01274331
Si      -0.65371525      -2.46719369       4.42464794      -0.02439039       0.01008771       0.00334731
Si      -0.88134255       3.46409811       0.50026630       0.01920893      -0.01810165      -0.00334731
Si       0.68208220      -0.44381726       4.45769168       0.00421075       0.00628599       0.01274330
Si       0.41556505       5.51261895       0.46722223       0.00400411       0.00641960      -0.01274331
Si       3.93670792       6.08874521      -0.00000049      -0.01751638      -0.02709187       0.00000000
Si      -2.91424616      -1.13622985       4.92491440      -0.01217217      -0.01882620       0.00000000
Si      -0.28571656       6.01098519       2.91007537       0.01751638       0.02709187      -0.00000000
Si      -2.88366755       1.99284060       2.91007569       0.01217217       0.01882620      -0.00000000
Si       2.76738541       1.19842613       2.01483836      -0.00694908      -0.01074785       0.00000000
Si       2.59367548       4.01153184      -0.00000032       0.00694908       0.01074785      -0.00000000
14
Lattice="6.98295727566914 1.265360716695691 -0.8967631415834612 -1.7119478059828719 6.887094158130323 0.8967624857883779 -4.174060389705842 -3.0814663771341966 4.923392552010515" Properties=species:S:1:pos:R:3:forces:R:3 unique_starting_index=10 config_type=initial n_minim_iter=12 energy=-2278.574046583346 stress="0.00030147615952795954 -1.601667524466815e-05 1.8065871201629186e-05 -1.601667524466815e-05 0.0002870594841102949 -1.1680566810498771e-05 1.8065871201629186e-05 -1.1680566810498771e-05 0.00038393925554081884" free_energy=-2278.574046583346 pbc="T T T"
Si       1.83870463       4.58966574       2.51348468       0.01672141      -0.01325272      -0.00057914
Si      -0.74333943       0.47887304       2.40990722      -0.01894774       0.00980934       0.00057914
Si       0.50398209       2.56689825       2.48151981      -0.00344855       0.00084026      -0.01161782
Si       3.23087658       6.58403719       2.44187176       0.00218153      -0.00279990       0.01161782
Si      -0.65505947      -2.46484379       4.42322209      -0.01672141       0.01325272       0.00057914
Si      -0.88191230       3.46205458       0.50017014       0.01894775      -0.00980934      -0.00057914
Si       0.67966307      -0.44207629       4.45518696       0.00344855      -0.00084026       0.01161782
Si       0.41488116       5.50934530       0.46820494      -0.00218153       0.00279990      -0.01161782
Si       3.93401122       6.08457434      -0.00000049      -0.00983430      -0.01521031       0.00000000
Si      -2.91710375      -1.13738293       4.92339240      -0.00719817      -0.01113312       0.00000000
Si      -0.28825348       6.00880815       2.91007719       0.00983430       0.01521031      -0.00000000
Si      -2.88220837       1.99684417       2.91007751       0.00719817       0.01113312      -0.00000000
Si       2.76548274       1.19700328       2.01331454       0.00465493       0.00719960      -0.00000000
Si       2.59222281       4.00928506      -0.00000032      -0.00465493      -0.00719960       0.00000000
14
Lattice="6.981621726189182 1.264312485449364 -0.8971733800282371 -1.7123555768037653 6.885446067131967 0.8971727244500496 -4.1735252552149875 -3.0799006337982893 4.92223255197321" Properties=species:S:1:pos:R:3:forces:R:3 unique_starting_index=10 config_type=initial n_minim_iter=13 energy=-2278.574176885304 stress="-5.0205170898541505e-05 -1.0333875077408108e-05 -5.301265576414001e-06 -1.0333875077408108e-05 -5.950673460321326e-05 3.427557619133841e-06 -5.301265576414001e-06 3.427557619133841e-06 -6.883141247223579e-05" free_energy=-2278.574176885304 pbc="T T T"
Si       1.83846149       4.58805675       2.51241059       0.01017312      -0.01315957       0.00147700
Si      -0.74417176       0.47955673       2.40982131      -0.01617535       0.00387616      -0.00147700
Si       0.50382611       2.56594181       2.48084256      -0.00320448       0.00499824      -0.00922216
Si       3.22886023       6.58237185       2.44138901       0.00587304      -0.00087088       0.00922216
Si      -0.65598890      -2.46343253       4.42235106      -0.01017312       0.01315957      -0.00147700
Si      -0.88145212       3.46065564       0.49988117       0.01617535      -0.00387616       0.00147700
Si       0.67864648      -0.44131759       4.45391909       0.00320448      -0.00499824       0.00922216
Si       0.41478204       5.50759907       0.46831281      -0.00587305       0.00087088      -0.00922216
Si       3.93242468       6.08212051      -0.00000049      -0.00445194      -0.00688564       0.00000000
Si      -2.91848922      -1.13878770       4.92223240      -0.00311617      -0.00481966       0.00000000
Si      -0.28878241       6.00785041       2.90970231       0.00445194       0.00688564      -0.00000000
Si      -2.88065991       1.99909943       2.90970263       0.00311617       0.00481966      -0.00000000
Si       2.76439710       1.19620191       2.01252942       0.01355101       0.02095880      -0.00000000
Si       2.59160075       4.00832294      -0.00000032      -0.01355101      -0.02095880       0.00000000
14
Lattice="6.980129285902087 1.2633157929910286 -0.8978015119567043 -1.7126519605496764 6.883676058583227 0.897800856601074 -4.172974766620014 -3.0782949179546297 4.92191136644202" Properties=species:S:1:pos:R:3:forces:R:3 unique_starting_index=10 config_type=initial n_minim_iter=14 energy=-2278.574307908736 stress="-0.00033339436697333777 -2.2264043826228046e-05 -5.952184692212349e-05 -2.2264043826228046e-05 -0.0003534343238867792 3.8484132079279445e-05 -5.952184692212349e-05 3.8484132079279445e-05 -0.0004330680978712543" free_energy=-2278.574307908736 pbc="T T T"
Si       1.83928544       4.58545250       2.51132467      -0.00260418      -0.00677324       0.00385288
Si      -0.74633425       0.48084501       2.41058604      -0.00510778      -0.00515453      -0.00385288
Si       0.50372395       2.56491043       2.48029584      -0.00284623       0.00825617      -0.00212421
Si       3.22672330       6.58069441       2.44161454       0.00869694       0.00079288       0.00212421
Si      -0.65807495      -2.46099308       4.42264113       0.00260418       0.00677324      -0.00385288
Si      -0.87960978       3.45859354       0.49926991       0.00510778       0.00515453       0.00385288
Si       0.67748654      -0.44045101       4.45366996       0.00284623      -0.00825617       0.00212421
Si       0.41480999       5.50573598       0.46824075      -0.00869694      -0.00079288      -0.00212421
Si       3.93037383       6.07894853      -0.00000049      -0.00031925      -0.00049377       0.00000000
Si      -2.92082712      -1.14164934       4.92191121       0.00094451       0.00146083      -0.00000000
Si      -0.28884053       6.00748186       2.90985578       0.00031925       0.00049377       0.00000000
Si      -2.87809167       2.00279297       2.90985610      -0.00094451      -0.00146083      -0.00000000
Si       2.76411937       1.19680531       2.01205476       0.01866194       0.02886365      -0.00000000
Si       2.59006588       4.00594903      -0.00000032      -0.01866194      -0.02886366       0.00000000
14
Lattice="6.98053189599219 1.2658944360623656 -0.8961753931762667 -1.7104657193386206 6.885101485990552 0.8961747374985435 -4.172378804853401 -3.0815191922542824 4.923728837411107" Properties=species:S:1:pos:R:3:forces:R:3 unique_starting_index=10 config_type=initial n_minim_iter=15 energy=-2278.5745092115903 stress="1.617273603355626e-05 4.678218393918222e-05 1.5274729143583534e-05 4.678218393918222e-05 5.828156913991876e-05 -9.875962953830843e-06 1.5274729143583534e-05 -9.875962953830843e-06 1.549195165856401e-05" free_energy=-2278.5745092115903 pbc="T T T"
Si       1.84281191       4.58511533       2.51196293      -0.00748168       0.00627992       0.00470370
Si      -0.74749304       0.48069816       2.41176525       0.00879720      -0.00424526      -0.00470370
Si       0.50438654       2.56585209       2.48089006      -0.00327753       0.00237546       0.00237842
Si       3.23049489       6.58246489       2.44283780       0.00351130      -0.00201389      -0.00237842
Si      -0.65856454      -2.46119994       4.42554214       0.00748168      -0.00627992      -0.00470370
Si      -0.87641268       3.45884198       0.49818637      -0.00879720       0.00424526       0.00470370
Si       0.67986083      -0.44193671       4.45661501       0.00327753      -0.00237546      -0.00237842
Si       0.41566557       5.50807117       0.46711317      -0.00351130       0.00201389       0.00237842