6
Lattice="7.45470553783475 -2.4754678864672963e-06 -2.4754679090737e-06 3.7273547425074027 5.943332754194894 -1.2081836971846659e-06 3.7273547425074014 -1.2672848554479857e-06 5.943332754194882" Properties=species:S:1:pos:R:3:forces:R:3 unique_starting_index=132 config_type=initial n_minim_iter=1 energy=-974.015566041748 stress="-0.0027837683871989637 8.936354575585063e-10 8.936353905067842e-10 8.936354575585063e-10 -9.264545583161713e-05 3.2740631383964405e-13 8.936353905067842e-10 3.2740631383964405e-13 -9.264545559832729e-05" free_energy=-974.015566041748 pbc="T T T"
Si      11.18206106       5.03299701       4.39317091      -0.00000011      -0.08596650      -0.24098877
Si       3.72735321       0.91033200       1.55015815       0.00000011       0.08596650       0.24098877
Si       7.45470735       1.55015689       5.03299827       0.00000005       0.24098877      -0.08596650
Si       7.45470693       4.39317212       0.91033078      -0.00000005      -0.24098877       0.08596650
Si       5.39016517      -0.00000179      -0.00000180      -0.22006457       0.00000007       0.00000007
Si       5.79189436       5.94333207      -0.00000190       0.22006457      -0.00000007      -0.00000007
6
Lattice="7.489772691933147 -2.4871125601991825e-06 -2.487112582923191e-06 3.744888319864872 5.944261085315546 -1.2140014199893494e-06 3.744888319864871 -1.2731118065605363e-06 5.944261085315534" Properties=species:S:1:pos:R:3:forces:R:3 unique_starting_index=132 config_type=initial n_minim_iter=2 energy=-974.0184114427212 stress="0.0010662290452597705 3.137506855232464e-10 3.1375045526756753e-10 3.137506855232464e-10 0.002011066607386707 -1.9881517808534577e-13 3.1375045526756753e-10 -1.9881517808534577e-13 0.002011066607159205" free_energy=-974.0184114427212 pbc="T T T"
Si      11.23466179       5.03323268       4.39231400      -0.00000003      -0.00326898      -0.09613550
Si       3.74488679       0.91102464       1.55194337       0.00000003       0.00326898       0.09613550
Si       7.48977450       1.55194210       5.03323395       0.00000003       0.09613550      -0.00326898
Si       7.48977408       4.39231522       0.91102342      -0.00000003      -0.09613550       0.00326898
Si       5.41410515      -0.00000180      -0.00000181      -0.31448354       0.00000010       0.00000010
Si       5.82055511       5.94426040      -0.00000191       0.31448354      -0.00000010      -0.00000010
6
Lattice="7.5369059045011815 -2.5027639837769997e-06 -2.5027640066683286e-06 3.7684549118688406 5.901257671123978 -1.2220409464206317e-06 3.76845491186884 -1.2807236989639015e-06 5.9012576711239655" Properties=species:S:1:pos:R:3:forces:R:3 unique_starting_index=132 config_type=initial n_minim_iter=3 energy=-974.026227938831 stress="0.0010058492850966334 -3.5734669014763354e-10 -3.573470214680645e-10 -3.5734669014763354e-10 -7.027841903478867e-05 -1.9655148289625355e-13 -3.573470214680645e-10 -1.9655148289625355e-13 -7.02784193461472e-05" free_energy=-974.026227938831 pbc="T T T"
Si      11.30536159       4.99557372       4.35581035      -0.00000017      -0.15046709      -0.36964054
Si       3.76845339       0.90568017       1.54544358       0.00000017       0.15046709       0.36964054
Si       7.53690770       1.54544230       4.99557499       0.00000007       0.36964054      -0.15046709
Si       7.53690727       4.35581158       0.90567894      -0.00000007      -0.36964054       0.15046709
Si       5.44048465      -0.00000181      -0.00000181       0.14953173      -0.00000005      -0.00000005
Si       5.86487541       5.90125697      -0.00000193      -0.14953173       0.00000005       0.00000005
6
Lattice="7.918647478279083 -2.629528079266573e-06 -2.629528103299313e-06 3.9593255156920635 5.349967446349412 -1.2881640230518677e-06 3.959325515692063 -1.3413646588494056e-06 5.34996744634941" Properties=species:S:1:pos:R:3:forces:R:3 unique_starting_index=132 config_type=initial n_minim_iter=4 energy=-974.4684631801452 stress="-0.01903061919330786 4.270676017568138e-09 4.270675616985571e-09 4.270676017568138e-09 -0.006169766730861602 -1.1196423025550906e-13 4.270675616985571e-09 -1.1196423025550906e-13 -0.006169766731471568" free_energy=-974.4684631801452 pbc="T T T"
Si      11.87797359       4.49219901       3.83764411      -0.00000040      -0.16835973      -1.02842238
Si       3.95932413       0.85776447       1.51231941       0.00000040       0.16835973       1.02842238
Si       7.91864908       1.51231807       4.49220034       0.00000029       1.02842238      -0.16835973
Si       7.91864864       3.83764540       0.85776317      -0.00000029      -1.02842238       0.16835973
Si       5.62745129      -0.00000187      -0.00000188       2.15308038      -0.00000071      -0.00000071
Si       6.25052091       5.34996668      -0.00000206      -2.15308038       0.00000072       0.00000072
6
Lattice="7.940365029133193 -2.6367397790990254e-06 -2.6367398025372017e-06 3.970184283247578 5.3262628194648 -1.2918877248345915e-06 3.970184283247579 -1.3448526536608978e-06 5.326262819464796" Properties=species:S:1:pos:R:3:forces:R:3 unique_starting_index=132 config_type=initial n_minim_iter=5 energy=-974.4718415242687 stress="-0.02059080101651558 3.9986859799482196e-09 3.998685793165241e-09 3.9986859799482196e-09 -0.008549027493511257 -1.4223696430485543e-13 3.998685793165241e-09 -1.4223696430485543e-13 -0.008549027491087184" free_energy=-974.4718415242687 pbc="T T T"
Si      11.91054990       4.47081037       3.81583552      -0.00000034      -0.12624147      -0.91069849
Si       3.97018290       0.85544847       1.51042336       0.00000034       0.12624147       0.91069849
Si       7.94036662       1.51042202       4.47081171       0.00000026       0.91069849      -0.12624147
Si       7.94036618       3.81583681       0.85544717      -0.00000026      -0.91069849       0.12624147
Si       5.63963680      -0.00000187      -0.00000188       2.07134176      -0.00000069      -0.00000069
Si       6.27091172       5.32626205      -0.00000206      -2.07134176       0.00000069       0.00000069
6
Lattice="8.171832004357094 -2.7136025147091616e-06 -2.71360253800582e-06 4.0859177640094275 5.305634154873016 -1.330421334376959e-06 4.0859177640094275 -1.3831817782680738e-06 5.305634154873009" Properties=species:S:1:pos:R:3:forces:R:3 unique_starting_index=132 config_type=initial n_minim_iter=6 energy=-974.5923291671536 stress="0.0014100484735299385 -1.4656245700752835e-10 -1.4656261462896082e-10 -1.4656245700752835e-10 0.0009686841677125288 -4.793470270824848e-13 -1.4656261462896082e-10 -4.793470270824848e-13 0.0009686841693214727" free_energy=-974.5923291671536 pbc="T T T"
Si      12.25775034       4.45751549       3.79531373       0.00000018       0.31014464       0.22586148
Si       4.08591638       0.84811456       1.51031636      -0.00000018      -0.31014464      -0.22586148
Si       8.17183358       1.51031499       4.45751687       0.00000003      -0.22586148       0.31014464
Si       8.17183314       3.79531507       0.84811323      -0.00000003       0.22586148      -0.31014464
Si       5.83232960      -0.00000194      -0.00000194      -0.23369724       0.00000008       0.00000008
Si       6.42541935       5.30563338      -0.00000211       0.23369724      -0.00000008      -0.00000008
6
Lattice="8.147271908635439 -2.7054468967414548e-06 -2.705446919995506e-06 4.073637719641121 5.3161516492567635 -1.3262912500325908e-06 4.073637719641121 -1.3791562478152576e-06 5.3161516492567555" Properties=species:S:1:pos:R:3:forces:R:3 unique_starting_index=132 config_type=initial n_minim_iter=7 energy=-974.5966893072734 stress="4.512591475765976e-05 1.8083495111038542e-10 1.808352914356541e-10 1.8083495111038542e-10 0.0005896978123175755 -2.689808043492856e-13 1.808352914356541e-10 -2.689808043492856e-13 0.0005896978131463838" free_energy=-974.5966893072734 pbc="T T T"
Si      12.22091020       4.46952371       3.80668720       0.00000007       0.20813357       0.00638324
Si       4.07363633       0.84662385       1.50946041      -0.00000007      -0.20813357      -0.00638324
Si       8.14727349       1.50945903       4.46952508       0.00000007      -0.00638324       0.20813357
Si       8.14727305       3.80668853       0.84662252      -0.00000007       0.00638324      -0.20813357
Si       5.81667962      -0.00000193      -0.00000194      -0.04139176       0.00000001       0.00000001
Si       6.40422920       5.31615087      -0.00000211       0.04139176      -0.00000001      -0.00000001
6
Lattice="8.148279458725797 -2.7057814711587833e-06 -2.7057814942387638e-06 4.074141495125623 5.3174746396770765 -1.326451951747305e-06 4.0741414951256205 -1.3793301185730788e-06 5.317474639677067" Properties=species:S:1:pos:R:3:forces:R:3 unique_starting_index=132 config_type=initial n_minim_iter=8 energy=-974.6006865209694 stress="-0.0007000943437474322 -2.3831626601042094e-10 -2.383158206126341e-10 -2.3831626601042094e-10 -0.001417768970212974 -9.233143186131657e-13 -2.383158206126341e-10 -9.233143186131657e-13 -0.0014177689703615127" free_energy=-974.6006865209694 pbc="T T T"
Si      12.22242153       4.48053957       3.80961072      -0.00000008       0.04368644      -0.29158803
Si       4.07414010       0.83693098       1.50785988       0.00000008      -0.04368644       0.29158803
Si       8.14828104       1.50785850       4.48054095       0.00000011       0.29158803       0.04368644
Si       8.14828059       3.80961205       0.83692965      -0.00000011      -0.29158803      -0.04368644
Si       5.81990627      -0.00000193      -0.00000194       0.06702587      -0.00000002      -0.00000002
Si       6.40251387       5.31747387      -0.00000211      -0.06702587       0.00000002       0.00000002
6
Lattice="8.519025191989169 -2.8288942012866213e-06 -2.8288942247459035e-06 4.259514362048211 5.318350625651789 -1.3880034888038682e-06 4.259514362048212 -1.4408913115760059e-06 5.318350625651776" Properties=species:S:1:pos:R:3:forces:R:3 unique_starting_index=132 config_type=initial n_minim_iter=9 energy=-975.0595363813328 stress="0.023148286958768548 -2.677539963778089e-09 -2.677539843408724e-09 -2.677539963778089e-09 0.015085052816538148 -4.532661353545821e-13 -2.677539843408724e-09 -4.532661353545821e-13 0.015085052819842753" free_energy=-975.0595363813328 pbc="T T T"
Si      12.77854015       4.75259332       3.64554913       0.00000026       0.66001192       0.11008076
Si       4.25951291       0.56575304       1.67279727      -0.00000026      -0.66001192      -0.11008076
Si       8.51902690       1.67279583       4.75259475       0.00000018      -0.11008076       0.66001192
Si       8.51902616       3.64555052       0.56575164      -0.00000018       0.11008076      -0.66001192
Si       5.97438190      -0.00000198      -0.00000199      -0.58143786       0.00000019       0.00000019
Si       6.80415680       5.31834978      -0.00000224       0.58143786      -0.00000019      -0.00000019
