12
Lattice="3.9655493492302925 -0.13534327898375376 0.5979442645189612 -0.8585826778552276 8.963159801311175 -1.3819848922152267 1.220349441168528 -5.544230606032934 7.560785191147601" Properties=species:S:1:pos:R:3:forces:R:3 unique_starting_index=276 config_type=initial n_minim_iter=1 energy=-1953.709925968391 stress="-0.0003640147240362689 -0.0005786362882091162 0.002157904626959589 -0.0005786362882091162 -0.00199223364316781 -0.0012653301541475839 0.002157904626959589 -0.0012653301541475839 -0.0024983530016281547" free_energy=-1953.709925968391 pbc="T T T"
Si       1.05477227      -0.57831043       4.85803288       0.04759976      -0.06162947       0.03854692
Si       3.27254384       3.86189635       1.91871169      -0.04759976       0.06162947      -0.03854692
Si       2.76282057      -3.79268176       6.78501258      -0.07281322       0.01308504       0.03366685
Si       1.56449554       7.07626768      -0.00826802       0.07281322      -0.01308504      -0.03366685
Si       1.00359320       1.99304333       2.31194464       0.11314449      -0.15846257      -0.09350201
Si       3.32372291       1.29054259       4.46479992      -0.11314449       0.15846257       0.09350201
Si       1.45344508       4.84005586       0.72914924      -0.00326819       0.22134594      -0.02175397
Si       2.87387104      -1.55646994       6.04759533       0.00326819      -0.22134594       0.02175397
Si       1.01602984       1.67261517       5.84419824      -0.10759812      -0.12303703       0.01938471
Si       3.31128628       1.61097075       0.93254632       0.10759812       0.12303703      -0.01938471
Si       2.15848644      -0.04152187       2.76090961      -0.01989549       0.30394226       0.16411500
Si       2.16882967       3.32510779       4.01583495       0.01989549      -0.30394226      -0.16411500
12
Lattice="3.9656526905782203 -0.1319779201691571 0.5891735965233185 -0.8490771087602975 8.982097380494917 -1.3701698727212075 1.1972277605949173 -5.545166442921684 7.572020613971129" Properties=species:S:1:pos:R:3:forces:R:3 unique_starting_index=276 config_type=initial n_minim_iter=2 energy=-1953.7145750917432 stress="0.0015919407262122117 0.00021535547534010552 -9.970405146944429e-05 0.00021535547534010552 0.0014977426955514815 0.00022310964112202288 -9.970405146944429e-05 0.00022310964112202288 0.0013534820379907202" free_energy=-1953.7145750917432 pbc="T T T"
Si       1.04236954      -0.57183045       4.86932412       0.02382089      -0.01251175       0.01545739
Si       3.27143380       3.87678347       1.92170022      -0.02382089       0.01251175      -0.01545739
Si       2.74326270      -3.78942893       6.79272279      -0.09110405      -0.03037574      -0.00032983
Si       1.57054064       7.09438194      -0.00169845       0.09110405       0.03037574       0.00032983
Si       0.99997010       2.00128918       2.31890532       0.05845031      -0.16423304      -0.05218677
Si       3.31383324       1.30366384       4.47211902      -0.05845031       0.16423304       0.05218678
Si       1.45555347       4.85503640       0.73487827      -0.04517574       0.20919509      -0.07758273
Si       2.85824987      -1.55008339       6.05614607       0.04517574      -0.20919509       0.07758273
Si       1.00180071       1.68570244       5.86194122      -0.11556804      -0.13901356       0.00010523
Si       3.31200264       1.61925058       0.92908312       0.11556804       0.13901356      -0.00010523
Si       2.15208793      -0.03429546       2.76442913      -0.01093941       0.24790845       0.14990798
Si       2.16171541       3.33924848       4.02659521       0.01093941      -0.24790845      -0.14990798
12
Lattice="3.9449437921764257 -0.13050214879468022 0.5771541343809967 -0.839830913409861 8.961921412984353 -1.3564199864330644 1.1689658008950905 -5.524992579444737 7.556089215976599" Properties=species:S:1:pos:R:3:forces:R:3 unique_starting_index=276 config_type=initial n_minim_iter=3 energy=-1953.7188108705743 stress="-0.0028983610339730222 0.0010775106004959915 -0.0020626860519950187 0.0010775106004959915 -0.002758676244334334 0.0021194523831643435 -0.0020626860519950187 0.0021194523831643435 -0.001652385515840411" free_energy=-1953.7188108705743 pbc="T T T"
Si       1.02394037      -0.56555911       4.86215488      -0.00085040      -0.03186934      -0.02376326
Si       3.25013831       3.87198579       1.91466849       0.00085040       0.03186934       0.02376326
Si       2.70831786      -3.77390080       6.77520383      -0.08490197      -0.10708142      -0.07227078
Si       1.56576082       7.08032749       0.00161953       0.08490197       0.10708142       0.07227078
Si       0.99034556       1.99656716       2.31503569       0.00044166      -0.12541447      -0.06348477
Si       3.28373312       1.30985952       4.46178767      -0.00044166       0.12541447       0.06348477
Si       1.44649200       4.85046085       0.73437392      -0.06724597       0.17332408      -0.09834365
Si       2.82758668      -1.54403416       6.04244944       0.06724597      -0.17332408       0.09834366
Si       0.97805874       1.68623534       5.85630658      -0.12118837      -0.11576072      -0.00516168
Si       3.29601994       1.62019135       0.92051678       0.12118837       0.11576072       0.00516168
Si       2.13353141      -0.02530329       2.75916644       0.02145917       0.06609998       0.10349540
Si       2.14054727       3.33172997       4.01765692      -0.02145917      -0.06609998      -0.10349540
12
Lattice="3.9414669589509175 -0.14420340765945655 0.5826707887403436 -0.8649162673545852 8.995999686598953 -1.395480286807541 1.1900433600362386 -5.574447134783374 7.594809853665436" Properties=species:S:1:pos:R:3:forces:R:3 unique_starting_index=276 config_type=initial n_minim_iter=4 energy=-1953.733624725033 stress="-0.0024315789079872876 -0.0002956982191871569 -0.0002398449898146293 -0.0002956982191871569 -0.0006038524828321266 0.0006336024721413458 -0.0002398449898146293 0.0006336024721413458 0.0008782533783702903" free_energy=-1953.733624725033 pbc="T T T"
Si       1.03002409      -0.59065857       4.87602865       0.09225722      -0.08118663       0.02434760
Si       3.23656996       3.86800771       1.90597171      -0.09225722       0.08118663      -0.02434760
Si       2.71812197      -3.82127541       6.80639580       0.00087491      -0.15208812      -0.11415749
Si       1.54847208       7.09862455      -0.02439544      -0.00087491       0.15208812       0.11415749
Si       0.98857816       1.98323588       2.30989283      -0.04020554      -0.16844511      -0.07056002
Si       3.27801589       1.29411327       4.47210753       0.04020554       0.16844511       0.07056002
Si       1.43026511       4.86736642       0.71480222       0.02338689       0.12268120      -0.03142769
Si       2.83632894      -1.59001728       6.06719813      -0.02338689      -0.12268120       0.03142769
Si       0.97246666       1.65912394       5.86297445      -0.07552595      -0.12482673       0.00379519
Si       3.29412739       1.61822521       0.91902591       0.07552595       0.12482673      -0.00379519
Si       2.13353296      -0.03205971       2.77378146      -0.00266216      -0.04158713       0.03274490
Si       2.13306110       3.30940886       4.00821890       0.00266216       0.04158713      -0.03274490
12
Lattice="3.966468003531388 -0.150144295650968 0.5756880075418773 -0.8737158173430526 9.031552928482823 -1.4378881725455794 1.1913152000354919 -5.633917046628189 7.5907291355072815" Properties=species:S:1:pos:R:3:forces:R:3 unique_starting_index=276 config_type=initial n_minim_iter=5 energy=-1953.7455256471253 stress="0.0018948411365825903 0.0004826930089396281 -0.0008376568328093616 0.0004826930089396281 -0.0006941313635182194 -0.0016951481563001129 -0.0008376568328093616 -0.0016951481563001129 0.0002288321993778947" free_energy=-1953.7455256471253 pbc="T T T"
Si       1.03480898      -0.62366472       4.85813166       0.07269712      -0.18383481       0.10079673
Si       3.24925841       3.87115631       1.87039731      -0.07269712       0.18383481      -0.10079673
Si       2.72387359      -3.87757942       6.79127746       0.02912006      -0.18206050      -0.10363136
Si       1.56019380       7.12507101      -0.06274849      -0.02912006       0.18206050       0.10363136
Si       0.99430219       1.96169559       2.28173539      -0.14484797      -0.20233171      -0.03787006
Si       3.28976519       1.28579599       4.44679358       0.14484797       0.20233171       0.03787006
Si       1.43410320       4.89391300       0.67772142      -0.02774964       0.00539021       0.14426366
Si       2.84996418      -1.64642141       6.05080755       0.02774964      -0.00539021      -0.14426366
Si       0.96135058       1.61973874       5.82733988      -0.05679873      -0.11432767       0.03311018
Si       3.32271681       1.62775285       0.90118909       0.05679873       0.11432767      -0.03311018
Si       2.14323556      -0.03432452       2.76922060      -0.03444123      -0.17353774      -0.00896271
Si       2.14083182       3.28181611       3.95930837       0.03444123       0.17353774       0.00896271
12
Lattice="3.963893340101582 -0.1596206761186803 0.5831966394956108 -0.8976124737497737 9.083777942531096 -1.4232929862426005 1.2211205810865986 -5.658258702783481 7.565106703664451" Properties=species:S:1:pos:R:3:forces:R:3 unique_starting_index=276 config_type=initial n_minim_iter=6 energy=-1953.7541180267904 stress="0.00020387130290731512 -0.00032097383896905027 0.001656776150716635 -0.00032097383896905027 0.0028679133960834613 0.00030345315766703006 0.001656776150716635 0.00030345315766703006 -0.0004217537578091052" free_energy=-1953.7541180267904 pbc="T T T"
Si       1.05023758      -0.62806315       4.84913157       0.09401031      -0.17270656       0.17003923
Si       3.23716387       3.89396172       1.87587879      -0.09401031       0.17270656      -0.17003923
Si       2.74244698      -3.90325280       6.77042777       0.13126470      -0.21415379      -0.15177158
Si       1.54495447       7.16915136      -0.04541741      -0.13126470       0.21415379       0.15177158
Si       0.99419606       1.96082953       2.27605368      -0.10307988      -0.18359491      -0.08665045
Si       3.29320539       1.30506904       4.44895667       0.10307988       0.18359491       0.08665045
Si       1.42058867       4.93176297       0.68451707       0.01862901      -0.05502319       0.14974772
Si       2.86681277      -1.66586441       6.04049329      -0.01862901       0.05502319      -0.14974772
Si       0.96263708       1.62535654       5.81701763       0.00478592      -0.13741515       0.02107322
Si       3.32476437       1.64054203       0.90799273      -0.00478592       0.13741515      -0.02107322
Si       2.14649020      -0.02775449       2.77400336       0.00786437      -0.25181635      -0.07910684
Si       2.14091124       3.29365305       3.95100700      -0.00786437       0.25181635       0.07910684
12
Lattice="3.959240973216438 -0.20046458615949894 0.5782718549297192 -0.9825462080801385 9.082929765519157 -1.454392796676595 1.258707687705838 -5.683936098375131 7.616961897042493" Properties=species:S:1:pos:R:3:forces:R:3 unique_starting_index=276 config_type=initial n_minim_iter=7 energy=-1953.7957284542372 stress="0.0008552191396297308 3.562440278665031e-05 0.0027685084004722667 3.562440278665031e-05 -0.0006656462750934771 0.0020281773995261955 0.0027685084004722667 0.0020281773995261955 0.0036146148333265314" free_energy=-1953.7957284542372 pbc="T T T"
Si       1.06159048      -0.68009267       4.89038692       0.20914042      -0.20270447       0.13919994
Si       3.17381197       3.87862176       1.85045403      -0.20914042       0.20270447      -0.13919994
Si       2.75680047      -3.97908373       6.79024116       0.23135806      -0.10107399      -0.03117585
Si       1.47860198       7.17761281      -0.04940021      -0.23135806       0.10107399       0.03117585
Si       0.96462606       1.88650727       2.25982272      -0.18070197      -0.12319962      -0.07144643
Si       3.27077640       1.31202181       4.48101823       0.18070197       0.12319962       0.07144643
Si       1.36163725       4.94662915       0.67260881       0.07960542      -0.28185889       0.01865033
Si       2.87376520      -1.74810007       6.06823214      -0.07960542       0.28185889      -0.01865033
Si       0.90731718       1.55486934       5.84412174       0.04977312      -0.04184381       0.05824248
Si       3.32808527       1.64365974       0.89671921      -0.04977312       0.04184381      -0.05824248
Si       2.13534744      -0.04416382       2.80536305       0.03035228      -0.39641625       0.08522896
Si       2.10005501       3.24269290       3.93547791      -0.03035228       0.39641625      -0.08522896
12
Lattice="3.93345288401516 -0.2668115673992752 0.540158155428019 -1.0998009776998041 9.18342870749857 -1.523435017422077 1.2651157875537913 -5.8185105985010495 7.62461745787737" Properties=species:S:1:pos:R:3:forces:R:3 unique_starting_index=276 config_type=initial n_minim_iter=8 energy=-1953.8321571840247 stress="-0.000998935702922145 -0.0009794809880268546 0.00103116914246216 -0.0009794809880268546 0.0036963931909634114 0.0010354830693835592 0.00103116914246216 0.0010354830693835592 0.00143625268333548" free_energy=-1953.8321571840247 pbc="T T T"
Si       1.04496873      -0.78859158       4.88990178       0.23097691      -0.11794135      -0.00598946
Si       3.05379896       3.88669812       1.75143881      -0.23097691       0.11794135       0.00598946
Si       2.73536659      -4.16204480       6.74557498       0.20745769       0.39258983       0.07978966
Si       1.36340111       7.26015134      -0.10423438      -0.20745769      -0.39258983      -0.07978967
Si       0.90004420       1.79513327       2.19795850      -0.20457295      -0.17753006       0.00922654
Si       3.19872350       1.30297327       4.44338210       0.20457295       0.17753006      -0.00922654
Si       1.26434724       5.00060807       0.61489773       0.10264295      -0.23513077      -0.13221395
Si       2.83442046      -1.90250153       6.02644286      -0.10264295       0.23513077       0.13221395
Si       0.79380519       1.44732769       5.80277128       0.07512199       0.07275856       0.19714988
Si       3.30496250       1.65077885       0.83856931      -0.07512199      -0.07275856      -0.19714987
Si       2.09397230      -0.09822159       2.80043673      -0.13078370      -0.33016164       0.34549468
Si       2.00479539       3.19632814       3.84090387       0.13078370       0.33016164      -0.34549468
12
Lattice="3.9383332861413485 -0.2586974291363374 0.5370303013621097 -1.083860912103139 9.125440994498376 -1.5204224084325488 1.2504401201423934 -5.779117243982675 7.626037019499893" Properties=species:S:1:pos:R:3:forces:R:3 unique_starting_index=276 config_type=initial n_minim_iter=9 energy=-1953.856292766764 stress="3.492923208903595e-05 0.00019207868581170377 0.00022723413738115605 0.00019207868581170377 -0.0005127901550166738 0.00028836805578818283 0.00022723413738115605 0.00028836805578818283 0.00030744921709153805" free_energy=-1953.856292766764 pbc="T T T"
Si       1.04294950      -0.78269383       4.89172664       0.15558766      -0.08227090      -0.05308803
Si       3.06196299       3.87032015       1.75091828      -0.15558766       0.08227090       0.05308803
Si       2.73290392      -4.12495993       6.74657999       0.10582228       0.47270148       0.17188592
Si       1.37200857       7.21258625      -0.10393508      -0.10582228      -0.47270148      -0.17188592
Si       0.89638546       1.79048634       2.20195865      -0.12171985      -0.20492992       0.02724338
Si       3.20852704       1.29713998       4.44068626       0.12171985       0.20492992      -0.02724338
Si       1.27734735       4.95887941       0.61864067       0.00408468      -0.12689622      -0.17504748
Si       2.82756514      -1.87125309       6.02400424      -0.00408468       0.12689622       0.17504748
Si       0.79840609       1.44762000       5.80830510       0.00289599       0.06807976       0.17791161
Si       3.30650640       1.64000633       0.83433981      -0.00289599      -0.06807976      -0.17791161
Si       2.09385640      -0.10972117       2.79869046      -0.17260256      -0.10247734       0.44060774
Si       2.01105609       3.19734749       3.84395445       0.17260256       0.10247734      -0.44060774
12
Lattice="3.940293223618734 -0.29362079981762856 0.49486223807923646 -1.1386145737774565 9.053103221418722 -1.6025253419152379 1.212926675298192 -5.8090292776932895 7.662669839913762" Properties=species:S:1:pos:R:3:forces:R:3 unique_starting_index=276 config_type=initial n_minim_iter=10 energy=-1953.9349499546029 stress="0.003431753545966822 0.00010599189299095066 -0.0030019399973997864 0.00010599189299095066 -0.00849874056802969 0.000831798318144671 -0.0030019399973997864 0.000831798318144671 -0.0056106791605247605" free_energy=-1953.9349499546029 pbc="T T T"
Si       1.02981747      -0.87425840       4.89546568      -0.28414713       0.03557170      -0.20353566
Si       2.98478785       3.82471154       1.65954105       0.28414713      -0.03557170       0.20353566
Si       2.71133461      -4.16315128       6.74351299      -0.16895750       0.48031040       0.24145757
Si       1.30327072       7.11360442      -0.18850626       0.16895750      -0.48031040      -0.24145758
Si       0.83348105       1.68551602       2.16152225      -0.02932204      -0.28005618       0.11473029
Si       3.18112427       1.26493713       4.39348448       0.02932204       0.28005618      -0.11473029
Si       1.23562262       4.88314791       0.54786548      -0.35567286       0.03283801      -0.15829657
Si       2.77898270      -1.93269477       6.00714126       0.35567286      -0.03283801       0.15829658
Si       0.71437975       1.34382076       5.79925396      -0.15978543       0.03481358       0.19050581
Si       3.30022558       1.60663238       0.75575277       0.15978543      -0.03481358      -0.19050581
Si       2.05058826      -0.19210636       2.82090191      -0.34157071       0.13200853       0.51910963
Si       1.96401706       3.14255950       3.73410482       0.34157071      -0.13200853      -0.51910963
12
Lattice="3.8580553268524413 -0.32794024751990014 0.4348869550908018 -1.1234717383817348 9.076496635149208 -1.9554031227951936 1.0668164884206282 -6.0871441948956555 7.96072755490965" Properties=species:S:1:pos:R:3:forces:R:3 unique_starting_index=276 config_type=initial n_minim_iter=11 energy=-1954.1024272258092 stress="-0.008955069660563895 0.0025554878739147526 -0.006700171198808776 0.0025554878739147526 -0.016849911298981588 0.0024186999100990814 -0.006700171198808776 0.0024186999100990814 -0.015325443944836883" free_energy=-1954.1024272258092 pbc="T T T"
Si       0.98673379      -1.15333843       4.99852438      -1.39810434       0.19594798      -0.66740704
Si       2.81466628       3.81475062       1.44168701       1.39810434      -0.19594798       0.66740704
Si       2.57134118      -4.38719021       6.92189970      -0.57812256       0.40501506      -0.13117926
Si       1.23005890       7.04860240      -0.48168831       0.57812256      -0.40501506       0.13117926
Si       0.72089482       1.44594632       2.08961933      -0.19394124      -0.19371413       0.29770179
Si       3.08050526       1.21546587       4.35059206       0.19394124       0.19371413      -0.29770179
Si       1.17364257       4.84491717       0.31919645      -1.07551099       0.44509145      -0.08270770
Si       2.62775751      -2.18350498       6.12101494       1.07551099      -0.44509145       0.08270770
Si       0.54620418       1.04701325       5.86314352      -0.28861282       0.06879060       0.02659890
Si       3.25519590       1.61439895       0.57706787       0.28861282      -0.06879060      -0.02659890
Si       1.90974494      -0.37031185       2.95772433      -0.37305909       0.08305083       0.68833156
Si       1.89165514       3.03172404       3.48248706       0.37305909      -0.08305083      -0.68833156
12
Lattice="3.845388731791348 -0.340684989582443 0.4181269686947602 -1.109521570716887 9.135893383083584 -2.1685951005030013 1.0122725229279108 -6.276315071038155 8.160039174952425" Properties=species:S:1:pos:R:3:forces:R:3 unique_starting_index=276 config_type=initial n_minim_iter=12 energy=-1954.206532919684 stress="-0.008636780065213576 0.0009060821263277669 -0.005673637866123642 0.0009060821263277669 -0.0164355029403862 -0.00030366166984722987 -0.005673637866123642 -0.00030366166984722987 -0.013649742454440622" free_energy=-1954.206532919684 pbc="T T T"
Si       0.97538100      -1.30521170       5.07004326      -1.67079838       0.18585920      -0.54406152
Si       2.77275868       3.82410503       1.33952779       1.67079838      -0.18585920       0.54406152
Si       2.52570371      -4.52582491       7.05684216      -0.60165608       0.17254344      -0.32429200
Si       1.22243598       7.04471823      -0.64727111       0.60165608      -0.17254344       0.32429200
Si       0.68159572       1.32915506       2.06743688      -0.23432458      -0.05627265       0.34482946
Si       3.06654397       1.18973827       4.34213417       0.23432458       0.05627265      -0.34482946
Si       1.15723247       4.85726155       0.19004698      -1.19541193       0.47445306       0.07981785
Si       2.59090722      -2.33836823       6.21952406       1.19541193      -0.47445306      -0.07981785
Si       0.48457907       0.88854515       5.91859027      -0.31131031       0.18117083      -0.13778818
Si       3.26356062       1.63034817       0.49098077       0.31131031      -0.18117083       0.13778818
Si       1.85630301      -0.46356041       3.05590669      -0.24254887       0.03297382       0.43479244
Si       1.89183667       2.98245374       3.35366436       0.24254887      -0.03297382      -0.43479244
12
Lattice="3.8577426252870954 -0.2947996351585488 0.44343658251841633 -1.0032825809437105 9.232549474055228 -2.23970671682861 0.9820288859712822 -6.369203981746311 8.259376826753234" Properties=species:S:1:pos:R:3:forces:R:3 unique_starting_index=276 config_type=initial n_minim_iter=13 energy=-1954.3438179666496 stress="-0.0009838501271417187 0.0017284626446015666 0.002824675796458811 0.0017284626446015666 -0.003133602661613169 -0.0015564473939187417 0.002824675796458811 -0.0015564473939187417 -0.001706342923090019" free_energy=-1954.3438179666496 pbc="T T T"
Si       0.97182193      -1.30970211       5.10150190      -1.22290602      -0.10103078      -0.07420949
Si       2.86466700       3.87824796       1.36160479       1.22290601       0.10103078       0.07420949
Si       2.51125265      -4.53709895       7.15659017      -0.31543229      -0.17603259      -0.53184201
Si       1.32523628       7.10564481      -0.69348348       0.31543229       0.17603259       0.53184201
Si       0.71499843       1.35540551       2.09241544      -0.03935908      -0.09678452       0.22052945
Si       3.12149050       1.21314034       4.37069125       0.03935908       0.09678452      -0.22052945
Si       1.21821105       4.92054761       0.16117264      -0.84655953       0.22385535       0.47019014
Si       2.61827788      -2.35200176       6.30193405       0.84655953      -0.22385535      -0.47019014
Si       0.53971588       0.89793678       5.96080394      -0.29627506       0.02320865      -0.20551598
Si       3.29677305       1.67060908       0.50230275       0.29627506      -0.02320865       0.20551598
Si       1.86565678      -0.45440578       3.10797753      -0.10501444      -0.16777053       0.12484818
Si       1.97083215       3.02295164       3.35512916       0.10501444       0.16777053      -0.12484818
12
Lattice="3.8631319141188576 -0.3254726193901137 0.4199035879575087 -1.058252549764811 9.330824695118833 -2.266038187038691 0.9745101471912792 -6.456086256479303 8.287412875449556" Properties=species:S:1:pos:R:3:forces:R:3 unique_starting_index=276 config_type=initial n_minim_iter=14 energy=-1954.440074361917 stress="0.005199039523592568 -0.0038309590166060816 0.0017321660850741528 -0.0038309590166060816 0.00664569543707765 -2.5004007863246187e-05 0.0017321660850741528 -2.5004007863246187e-05 0.009664735590903743" free_energy=-1954.440074361917 pbc="T T T"
Si       0.93554911      -1.35757260       5.11742396      -0.89437614      -0.06957163      -0.01415430
Si       2.84384040       3.90683842       1.32385432       0.89437614       0.06957163       0.01415430
Si       2.49001550      -4.63122528       7.14906917      -0.13918046      -0.19987346      -0.43834917
Si       1.28937402       7.18049110      -0.70779089       0.13918046       0.19987346       0.43834917
Si       0.68937269       1.31864989       2.08330978      -0.22983104       0.09342436       0.27920575
Si       3.09001682       1.23061593       4.35796850       0.22983104      -0.09342436      -0.27920575
Si       1.15958412       4.98990153       0.14042649      -0.40005169      -0.07076082       0.27046344
Si       2.61980539      -2.44063571       6.30085179       0.40005169       0.07076082      -0.27046345
Si       0.47102833       0.86234232       5.96861545      -0.14471414       0.07660806      -0.10145372
Si       3.30836118       1.68692350       0.47266283       0.14471414      -0.07660806       0.10145372
Si       1.84363465      -0.47132462       3.12668053      -0.04169903      -0.29784653       0.07230050
Si       1.93575486       3.02059044       3.31459774       0.04169903       0.29784653      -0.07230050
12
Lattice="3.841860366083908 -0.2896028007798604 0.38986694324663995 -0.9599601759915594 9.393998356384134 -2.2659589827750173 0.8671514394121062 -6.500294314970109 8.233600341095087" Properties=species:S:1:pos:R:3:forces:R:3 unique_starting_index=276 config_type=initial n_minim_iter=15 energy=-1954.555478065315 stress="-0.00102143943946752 -0.0017680646516728294 0.0018912361069396656 -0.0017680646516728294 0.011387481478140376 -0.00026819321315754973 0.0018912361069396656 -0.00026819321315754973 0.008987087766153574" free_energy=-1954.555478065315 pbc="T T T"
Si       0.85213337      -1.35782372       5.07221844      -0.47012590      -0.03383943       0.01696714
Si       2.89691826       3.96192496       1.28528986       0.47012590       0.03383943      -0.01696714
Si       2.39003541      -4.64072483       7.07535186      -0.13591025      -0.13225111      -0.43306010
Si       1.35901622       7.24482607      -0.71784355       0.13591025       0.13225111       0.43306010
Si       0.68076197       1.33268331       2.07025830      -0.13459303       0.15600875       0.18357550
Si       3.06828966       1.27141793       4.28725000       0.13459303      -0.15600875      -0.18357550
Si       1.17199953       5.04412167       0.12830506       0.04683339      -0.06076717       0.14881623
Si       2.57705210      -2.44002043       6.22920324      -0.04683339       0.06076717      -0.14881623
Si       0.43487893       0.87609636       5.91332458      -0.16401066       0.02946321      -0.02790741
Si       3.31417269       1.72800488       0.44418373       0.16401067      -0.02946321       0.02790741
Si       1.80785674      -0.46453701       3.10246603      -0.02423518      -0.24403986       0.11185337
Si       1.94119489       3.06863825       3.25504227       0.02423518       0.24403986      -0.11185337
12
Lattice="3.8686938658632615 -0.2666778434409816 0.3571163644008736 -0.9137320762944773 9.351362031595784 -2.201384849755386 0.8037637715837185 -6.440505802657836 8.095600527589323" Properties=species:S:1:pos:R:3:forces:R:3 unique_starting_index=276 config_type=initial n_minim_iter=16 energy=-1954.6309369423273 stress="0.0012578463790751838 -0.0017949175363593441 0.002357952712361463 -0.0017949175363593441 0.006466838359808662 0.002436173748788177 0.002357952712361463 0.002436173748788177 0.002938506783211454" free_energy=-1954.6309369423273 pbc="T T T"
Si       0.78867500      -1.32345035       4.99071296      -0.08760135      -0.04252621       0.10462986
Si       2.97005056       3.96762873       1.26061908       0.08760135       0.04252621      -0.10462986
Si       2.34377250      -4.57992950       6.93379784      -0.22492758      -0.13723973      -0.28849956
Si       1.41495306       7.22410788      -0.68246579       0.22492758       0.13723973       0.28849956
Si       0.67643617       1.34615334       2.05273477      -0.00891468       0.20266338       0.15651776
Si       3.08228939       1.29802505       4.19859728       0.00891468      -0.20266338      -0.15651775
Si       1.18337271       5.03528068       0.14511806       0.51121702      -0.14764640       0.06356841
Si       2.57535285      -2.39110230       6.10621398      -0.51121702       0.14764640      -0.06356841
Si       0.40556834       0.90900394       5.82759072      -0.22439016       0.01119111       0.16024812
Si       3.35315722       1.73517445       0.42374133       0.22439016      -0.01119111      -0.16024812
Si       1.79958093      -0.44926672       3.05465101       0.00449651      -0.10781410       0.13454653
Si       1.95914463       3.09344510       3.19668103      -0.00449651       0.10781410      -0.13454653
12
Lattice="3.8624349926248276 -0.24170688835339837 0.3168115799746162 -0.8329094115623746 9.31291948282562 -2.2696456968085927 0.6863348125787204 -6.471815054900739 8.113351800729776" Properties=species:S:1:pos:R:3:forces:R:3 unique_starting_index=276 config_type=initial n_minim_iter=17 energy=-1954.6596521456875 stress="-0.0021645200551623682 0.0016502311717121764 -9.469341523453395e-06 0.0016502311717121764 -0.00028470031208455805 -0.0022405920419291273 -9.469341523453395e-06 -0.0022405920419291273 -0.0014990643983968032" free_energy=-1954.6596521456875 pbc="T T T"
Si       0.71217380      -1.36559363       4.97734285      -0.02067338      -0.00717733       0.02542914