22
Lattice="5.511452298241791 1.1775566708831662 -0.301305762767564 3.9418526185764904 6.556895788379949 -0.8346044115581513 0.6308079436568053 -1.2171191033659716 13.642443634875741" Properties=species:S:1:pos:R:3:forces:R:3 unique_starting_index=40 config_type=initial n_minim_iter=1 energy=-3582.839043196199 stress="-4.5193035845021476e-05 -4.686734166625903e-07 -3.1633068859525734e-05 -4.686734166625903e-07 -0.00011498706555782005 -2.0478912223989475e-05 -3.1633068859525734e-05 -2.0478912223989475e-05 -8.543293162968312e-06" free_energy=-3582.839043196199 pbc="T T T"
Si       7.57095426       2.87071713      10.65323948      -0.01088389      -0.01141583       0.00350979
Si       1.25734316       2.02982524       3.81026078       0.00275160       0.00631082       0.00944615
Si       4.93360306       2.60486287       5.98201257       0.01274514       0.01751129       0.00551935
Si       3.76479446       2.27835638       9.40761388      -0.01049604      -0.00368641      -0.00599205
Si       3.67845262       0.62774035      12.39691151       0.00403288       0.00834424       0.00415246
Si       7.83911356       5.04252617       4.51483038       0.00541071       0.00442040       0.00209836
Si       6.83345439       3.18084488       1.16481331      -0.00526003      -0.00704570      -0.00185221
Si       5.39292031       4.78337565       6.99531697      -0.00076023      -0.01165106       0.00000337
Si       4.89691077       4.22869504       0.27710887      -0.00192890      -0.02005260       0.00350806
Si       6.04124670       4.29734854      11.97179885       0.00678356       0.00531013      -0.01273465
Si       6.00403963       1.50835187       9.55266752       0.00783142       0.00984393       0.00272194
Si       3.87705965       4.53470072       8.75257721       0.00736390       0.00968977      -0.00886744
Si       2.63483841       3.64747346       0.28192742      -0.00133572      -0.01129368      -0.00488640
Si       1.43020987       0.18661605       6.43876967      -0.00987998      -0.00041014      -0.00881563
Si       3.54154057      -0.86817884      14.20879101      -0.00891437      -0.00287763       0.00055456
Si       7.69326978       5.05956262       6.89646457       0.02708993       0.00202315       0.00155807
Si       4.37880562       3.16487456       3.70289489      -0.00018062      -0.00475403      -0.00092845
Si       6.30593283       6.51473527       3.36140275      -0.01436649      -0.01008306       0.00655007
Si       4.56970293       5.21208799       2.37702328      -0.00514767       0.00575890       0.00244246
Si       3.12256006       1.68380100       7.23156312      -0.02260260       0.01679434       0.00683107
Si       5.77375862       0.14150177      11.45791234       0.01996685      -0.00414875       0.00399399
Si       4.05932779       0.98376716       2.70933933      -0.00221944       0.00141195      -0.00881287
22
Lattice="5.511976042205566 1.1778442333004042 -0.3008784719432498 3.9421903384223214 6.558507277278894 -0.8340550466493064 0.6318102361598619 -1.2168142923858034 13.642687056687855" Properties=species:S:1:pos:R:3:forces:R:3 unique_starting_index=40 config_type=initial n_minim_iter=2 energy=-3582.83906557752 stress="0.00015770123000540014 -9.710982642201078e-06 2.3505228669152464e-05 -9.710982642201078e-06 0.00016310033772613575 1.2422364320462169e-05 2.3505228669152464e-05 1.2422364320462169e-05 0.00011445341943237899" free_energy=-3582.83906557752 pbc="T T T"
Si       7.57238294       2.87186246      10.65410666      -0.01108219      -0.01152000       0.00351191
Si       1.25774619       2.03053822       3.81055758       0.00410157       0.00691267       0.01061507
Si       4.93457010       2.60587823       5.98260912       0.01319115       0.01787572       0.00614767
Si       3.76576335       2.27933315       9.40812010      -0.00896248      -0.00153866      -0.00771841
Si       3.67969194       0.62849812      12.39744568       0.00343377       0.00943240       0.00471313
Si       7.84023074       5.04402339       4.51569145       0.00379024       0.00205322       0.00008222
Si       6.83418475       3.18166573       1.16543916      -0.00521897      -0.00659948      -0.00256456
Si       5.39393565       4.78483390       6.99603318       0.00126895      -0.01090426      -0.00276503
Si       4.89740710       4.22967050       0.27765879      -0.00129703      -0.01913854       0.00405195
Si       6.04270745       4.29899469      11.97256564       0.00737847       0.00532976      -0.01079784
Si       6.00533230       1.50921353       9.55334117       0.00606140       0.00857752       0.00353515
Si       3.87808814       4.53628280       8.75316507       0.00637348       0.00712740      -0.00643014
Si       2.63511450       3.64834587       0.28225242      -0.00112788      -0.01105767      -0.00606944
Si       1.43074476       0.18694987       6.43895157      -0.00899220       0.00054443      -0.00637598
Si       3.54282361      -0.86777295      14.20926425      -0.00923564      -0.00370623       0.00001361
Si       7.69464791       5.06115810       6.89735797       0.02516452      -0.00058031       0.00162433
Si       4.37949511       3.16581401       3.70340268       0.00019084      -0.00553773      -0.00139325
Si       6.30671955       6.51647443       3.36222508      -0.01552671      -0.00987077       0.00588499
Si       4.57029643       5.21353575       2.37762825      -0.00479577       0.00562830       0.00242550
Si       3.12325291       1.68463561       7.23202355      -0.02250038       0.01874520       0.00671451
Si       5.77522078       0.14203381      11.45855107       0.01889130      -0.00429948       0.00271937
Si       4.05990455       0.98414635       2.70966877      -0.00110646       0.00252652      -0.00792477
22
Lattice="5.510514742565043 1.1783242726514873 -0.2998160502183611 3.941287450304964 6.560172663916886 -0.832447961458155 0.6336282464380284 -1.2156185093437932 13.637509642309052" Properties=species:S:1:pos:R:3:forces:R:3 unique_starting_index=40 config_type=initial n_minim_iter=3 energy=-3582.839143332572 stress="-0.00018428027478625182 4.010976402658478e-05 0.0001285397766636804 4.010976402658478e-05 0.00019307250572794452 5.674793583262964e-05 0.0001285397766636804 5.674793583262964e-05 -0.00027557425826538776" free_energy=-3582.839143332572 pbc="T T T"
Si       7.57178437       2.87370761      10.65162446      -0.00938008      -0.00914490       0.00594895
Si       1.25815011       2.03166749       3.80979168       0.00579858       0.00687549       0.01444907
Si       4.93460483       2.60783029       5.98152499       0.01071024       0.01571015       0.00655533
Si       3.76599212       2.28097234       9.40520506      -0.00602806       0.00443556      -0.00662607
Si       3.68069283       0.63036761      12.39350717       0.00353329       0.00846263       0.00317110
Si       7.83915880       5.04615287       4.51573972       0.00230307       0.00016246      -0.00385311
Si       6.83253225       3.18265901       1.16630535      -0.00367059      -0.00813078      -0.00494454
Si       5.39374058       4.78666278       6.99469073       0.00866847      -0.00708271      -0.00964035
Si       4.89627462       4.23039826       0.27883833      -0.00118901      -0.01459712       0.00064529
Si       6.04325219       4.30171587      11.96909325       0.00917198       0.00287381      -0.00673371
Si       6.00541830       1.51110588       9.55087996       0.00437435       0.00570556      -0.00010260
Si       3.87873868       4.53872128       8.75071669       0.00177748       0.00319280       0.00408639
Si       2.63457207       3.64906923       0.28278924      -0.00345438      -0.00858878      -0.00672124
Si       1.43107578       0.18774323       6.43654411      -0.00512367       0.00027017       0.00078441
Si       3.54372465      -0.86639688      14.20435514      -0.00868034      -0.00634598       0.00084286
Si       7.69455013       5.06347506       6.89649333       0.01655958      -0.00004161       0.00466675
Si       4.37901239       3.16702575       3.70297157      -0.00094498      -0.00660348      -0.00523591
Si       6.30541655       6.51840840       3.36276889      -0.01409451      -0.00750727       0.00264688
Si       4.56951568       5.21539875       2.37803973      -0.00306262       0.00225400       0.00414678
Si       3.12296535       1.68641882       7.23012759      -0.02129467       0.01458805       0.00137732
Si       5.77592826       0.14342337      11.45520598       0.01518653      -0.00306198       0.00038207
Si       4.05922085       0.98489111       2.70913067      -0.00116066       0.00657393      -0.00584569
22
Lattice="5.511070440991216 1.1777971999904482 -0.3006506464265991 3.9414536590448903 6.558754409372657 -0.833062294282566 0.6317906590292481 -1.21518434086241 13.64008963009157" Properties=species:S:1:pos:R:3:forces:R:3 unique_starting_index=40 config_type=initial n_minim_iter=4 energy=-3582.8392971261746 stress="9.083959004174767e-06 4.9060945776382064e-05 -9.016010104013911e-05 4.9060945776382064e-05 6.762618966325538e-05 -7.331391857047644e-05 -9.016010104013911e-05 -7.331391857047644e-05 -4.766931758379154e-05" free_energy=-3582.8392971261746 pbc="T T T"
Si       7.57022023       2.87227847      10.65292019       0.00499633       0.00028582       0.00397422
Si       1.25783435       2.03170271       3.81103854       0.00304474       0.00030726       0.00363882
Si       4.93488294       2.60825755       5.98239815      -0.00436818       0.00190876       0.00444794
Si       3.76432048       2.28040108       9.40615738      -0.00372037       0.00237700       0.00533138
Si       3.67948348       0.63080662      12.39569086       0.01211794      -0.00090803      -0.00234541
Si       7.83932263       5.04508082       4.51563492       0.00476972       0.00516815      -0.00180367
Si       6.83259396       3.18129160       1.16545485      -0.00114733      -0.00835950       0.00601936
Si       5.39309228       4.78496330       6.99525308       0.02417148       0.00568064      -0.00777752
Si       4.89641029       4.22819935       0.27846385      -0.00332751      -0.00156282      -0.00431229
Si       6.04235911       4.30112752      11.96996632       0.00878166      -0.00865150       0.00529976
Si       6.00500233       1.51121882       9.55208428      -0.01079054      -0.00040874      -0.00335051
Si       3.87801364       4.53834176       8.75157277       0.00882330       0.00629802       0.01037553
Si       2.63450803       3.64760382       0.28219591      -0.00549681      -0.00311432      -0.00136504
Si       1.42973421       0.18774484       6.43719348      -0.00090295      -0.00422510       0.00521257
Si       3.54154170      -0.86639741      14.20665906      -0.00354656      -0.00512686      -0.00119788
Si       7.69561480       5.06231845       6.89695717      -0.01138050       0.00771367      -0.00323191
Si       4.37874836       3.16595760       3.70302794       0.00102860      -0.00117762      -0.00142119
Si       6.30432903       6.51634950       3.36299779      -0.00422849       0.00089366       0.00123608
Si       4.56906707       5.21456854       2.37810693      -0.00616773      -0.00668948      -0.00513790
Si       3.12078248       1.68711801       7.23150705      -0.00550916       0.00461520      -0.01023711
Si       5.77603377       0.14303608      11.45682865      -0.00134028       0.00462514      -0.00255920
Si       4.05909251       0.98468348       2.70859746      -0.00580736       0.00035064      -0.00079601
22
Lattice="5.510846079614758 1.1768610742541328 -0.2994895585786438 3.9404889854530842 6.556922185899684 -0.8313456727525081 0.6344171163157888 -1.2127128739860333 13.64190825862053" Properties=species:S:1:pos:R:3:forces:R:3 unique_starting_index=40 config_type=initial n_minim_iter=5 energy=-3582.8393223319385 stress="1.4808564256313062e-05 -1.2497033993130714e-05 3.0127313809451855e-05 -1.2497033993130714e-05 -3.4421755003236086e-05 2.15046934211931e-05 3.0127313809451855e-05 2.15046934211931e-05 9.391509824057352e-06" free_energy=-3582.8393223319385 pbc="T T T"
Si       7.57169316       2.87253483      10.65633815       0.00342928      -0.00126501       0.00699049
Si       1.25832787       2.03189130       3.81227133       0.00268026      -0.00017613       0.00080723
Si       4.93573506       2.60838148       5.98466039      -0.00330378       0.00090464       0.00227056
Si       3.76562304       2.28111839       9.40851026      -0.00173626      -0.00154512       0.00173833
Si       3.68174802       0.63243808      12.39823344       0.01005865       0.00085455      -0.00509297
Si       7.83956639       5.04402726       4.51855002       0.00496618       0.00690228      -0.00134329
Si       6.83233076       3.17995897       1.16741008      -0.00305213      -0.00989093       0.01065543
Si       5.39390003       4.78453838       6.99796600       0.02483374       0.00360790      -0.00805664
Si       4.89589092       4.22667209       0.28012321      -0.00232306       0.00016154       0.00171989
Si       6.04410745       4.30164301      11.97338840       0.00959567      -0.00649375       0.00351865
Si       6.00653948       1.51192681       9.55478010      -0.01160326       0.00269239      -0.00454151
Si       3.87914907       4.53863832       8.75426729       0.00594057       0.00859007       0.01005401
Si       2.63406002       3.64653239       0.28327319      -0.00471380       0.00005495      -0.00373326
Si       1.43078088       0.18861039       6.43834637      -0.00053508      -0.00197955       0.00391610
Si       3.54410563      -0.86430951      14.20914372      -0.00222415      -0.00741756       0.00202458
Si       7.69641112       5.06167641       6.90018760      -0.01152978       0.00979650      -0.00544493
Si       4.37902145       3.16541383       3.70485811       0.00143987      -0.00224428       0.00126475
Si       6.30395163       6.51486137       3.36579004      -0.00444022       0.00017979       0.00160293
Si       4.56876548       5.21347294       2.38015794      -0.00667047      -0.00676633      -0.00936041
Si       3.12162469       1.68785612       7.23338113      -0.00459203       0.00214929      -0.00611962
Si       5.77825704       0.14424588      11.45952658      -0.00150217       0.00234906      -0.00135514
Si       4.05939762       0.98449747       2.70979675      -0.00471801      -0.00046431      -0.00151517
22
Lattice="5.509156854224172 1.176395088039514 -0.29973049535129503 3.938708626527869 6.557210765492569 -0.8312113599593083 0.6337033153058038 -1.2118753105423077 13.6446880946498" Properties=species:S:1:pos:R:3:forces:R:3 unique_starting_index=40 config_type=initial n_minim_iter=6 energy=-3582.8393920783597 stress="-0.00025144345365171527 -2.6935682286724354e-05 -2.00263717328287e-05 -2.6935682286724354e-05 9.814249042605599e-05 3.213582357934296e-06 -2.00263717328287e-05 3.213582357934296e-06 0.00021313471771763545" free_energy=-3582.8393920783597 pbc="T T T"
Si       7.56862906       2.87253266      10.65892333       0.00433532       0.00006582       0.00492098
Si       1.25782664       2.03246743       3.81355455       0.00336256      -0.00114052      -0.00239362
Si       4.93389790       2.60917333       5.98621936      -0.00708240      -0.00165607       0.00132048
Si       3.76345760       2.28162422       9.41047618      -0.00589324       0.00395167      -0.00356344
Si       3.68074132       0.63333787      12.40060507       0.00458514      -0.00281830       0.00354224
Si       7.83697732       5.04459811       4.51945411       0.00446415       0.00730593      -0.00059117
Si       6.82969412       3.17895807       1.16804820      -0.00054605      -0.00831674       0.00995122
Si       5.39296264       4.78500546       6.99904306      -0.00034921       0.00104111       0.00137944
Si       4.89383445       4.22612938       0.28036993       0.00116886       0.00520969      -0.00012091
Si       6.04208467       4.30215927      11.97588819       0.00345516      -0.00877644       0.00552745
Si       6.00372843       1.51255998       9.55646537      -0.00894916       0.00072719      -0.00199142
Si       3.87769565       4.54011773       8.75669717       0.00987570       0.00131113       0.00088218
Si       2.63258073       3.64635923       0.28315319      -0.00848093      -0.00399800      -0.00079204
Si       1.42975488       0.18882716       6.43971763      -0.00025155      -0.00248708       0.00098954
Si       3.54209810      -0.86418712      14.21201047       0.00160995       0.00082437      -0.00234586
Si       7.69336929       5.06254878       6.90144438       0.00748376       0.00990600      -0.00640781
Si       4.37732573       3.16534888       3.70566490       0.00137292      -0.00182460       0.00105479
Si       6.30063729       6.51497153       3.36694797      -0.00224221       0.00242158       0.00101499
Si       4.56628226       5.21354029       2.38043786      -0.00468399      -0.00970549      -0.00993433
Si       3.11930496       1.68891213       7.23465279       0.00175269       0.00557133      -0.00117932
Si       5.77647238       0.14458994      11.46168743       0.00128775       0.00297907      -0.00267171
Si       4.05766256       0.98444473       2.70994956      -0.00627522      -0.00059165       0.00140833
22
Lattice="5.510759529412942 1.176080036794951 -0.29956962062409437 3.939677451082122 6.556328931486478 -0.8306015596553008 0.6339569320448851 -1.210984930850906 13.64089496964809" Properties=species:S:1:pos:R:3:forces:R:3 unique_starting_index=40 config_type=initial n_minim_iter=7 energy=-3582.839450109549 stress="1.3269385562092842e-05 -3.1748362233006673e-05 -2.191676341893824e-06 -3.1748362233006673e-05 7.593662139519314e-06 -5.55164447734302e-06 -2.191676341893824e-06 -5.55164447734302e-06 -2.2235078935927046e-05" free_energy=-3582.839450109549 pbc="T T T"
Si       7.57077315       2.87229663      10.65660492       0.00418699      -0.00174254       0.00033621
Si       1.25837803       2.03256825       3.81293460      -0.00000420      -0.00224509       0.00070246
Si       4.93538148       2.60952716       5.98502183      -0.00578410      -0.00873607       0.00152454
Si       3.76417144       2.28174467       9.40800353      -0.00349269       0.00585041       0.00060680
Si       3.68246121       0.63406766      12.39716709       0.00442063      -0.00719941       0.00251984
Si       7.83952619       5.04448521       4.51846912       0.00415970       0.00779835      -0.00481907
Si       6.83138959       3.17780801       1.16837267      -0.00178290      -0.00537494       0.00057813
Si       5.39564263       4.78467173       6.99699291      -0.01105644      -0.00004931       0.01253944
Si       4.89500547       4.22510801       0.28062860      -0.00027661       0.00046904      -0.00380463
Si       6.04441078       4.30192054      11.97283356      -0.00190718      -0.00744349       0.00371943
Si       6.00505370       1.51305593       9.55380170      -0.00826599       0.00763503      -0.00355810
Si       3.87924404       4.54058161       8.75491735       0.01022545      -0.00408159      -0.01149749
Si       2.63293847       3.64559082       0.28300914      -0.00475595      -0.00130921       0.00180349
Si       1.42994902       0.18899377       6.43802462      -0.00227995       0.00324408       0.00053421
Si       3.54288587      -0.86379850      14.20814410       0.00340858       0.00382448      -0.00271922
Si       7.69558117       5.06267182       6.89964548       0.01375522       0.01257056       0.00056803
Si       4.37860569       3.16485668       3.70483865       0.00280496       0.00023519       0.00134821
Si       6.30175901       6.51406746       3.36662616      -0.00079361       0.00139127      -0.00259262
Si       4.56703804       5.21271670       2.37970903      -0.00573493      -0.00474212      -0.00416531
Si       3.11945645       1.68959992       7.23257031       0.00574076       0.00298193      -0.00338426
Si       5.77858473       0.14511193      11.45855823       0.00189218       0.00150197       0.00525739
Si       4.05853347       0.98440743       2.70902955      -0.00445992      -0.00457854       0.00450250
22
Lattice="5.511058650120319 1.1769966953719924 -0.2994621867012757 3.9409330825895403 6.556562867328903 -0.8302830586504166 0.6339154703695984 -1.2101076180191987 13.641777479295307" Properties=species:S:1:pos:R:3:forces:R:3 unique_starting_index=40 config_type=initial n_minim_iter=8 energy=-3582.8394657338686 stress="1.0540791488231317e-05 0.000129621139568655 1.714946896058711e-05 0.000129621139568655 -2.693649660058135e-05 3.969772703351697e-05 1.714946896058711e-05 3.969772703351697e-05 3.6715206306307226e-05" free_energy=-3582.8394657338686 pbc="T T T"
Si       7.57160051       2.87390908      10.65769648       0.00209558      -0.00339246      -0.00310932
Si       1.25888552       2.03285938       3.81341034       0.00066776       0.00138879       0.00099969
Si       4.93595579       2.61055761       5.98572534      -0.00748667      -0.00730860       0.00108030
Si       3.76461526       2.28281611       9.40880537      -0.00682698       0.00554510      -0.00057827
Si       3.68303193       0.63527339      12.39810295       0.00332897      -0.00721447       0.00397736
Si       7.84079645       5.04603655       4.51904354       0.00221666       0.00527007      -0.00404147
Si       6.83200038       3.17863661       1.16883289       0.00002402      -0.00420191       0.00126813
Si       5.39688264       4.78566877       6.99783537      -0.01033185      -0.00093767       0.01250854
Si       4.89581314       4.22561482       0.28088923      -0.00303567       0.00115180      -0.00427773
Si       6.04560177       4.30314903      11.97398345      -0.00210476      -0.00634664       0.00561845
Si       6.00530398       1.51472618       9.55451238      -0.00309284       0.00684267      -0.00120507
Si       3.88054298       4.54152657       8.75572565       0.00857252      -0.00285098      -0.01100403
Si       2.63349481       3.64573179       0.28318771      -0.00303099      -0.00205657       0.00345620
Si       1.42998530       0.18957085       6.43851508       0.00166992       0.00369095       0.00097022
Si       3.54291686      -0.86244490      14.20909675       0.00274247       0.00303752      -0.00425079
Si       7.69693523       5.06440996       6.90041239       0.01123376       0.01493551       0.00024941
Si       4.37936152       3.16556719       3.70532269       0.00336175      -0.00062527       0.00160366
Si       6.30292383       6.51491035       3.36728407      -0.00248436      -0.00134686      -0.00453496
Si       4.56788647       5.21317771       2.38001857      -0.00139131      -0.00322444      -0.00292364
Si       3.11977472       1.69061938       7.23308095       0.00679184      -0.00016447      -0.00238788
Si       5.77898195       0.14677184      11.45949304       0.00316095       0.00099476       0.00208366
Si       4.05865896       0.98516657       2.70930858      -0.00608076      -0.00318684       0.00449753
22
Lattice="5.510625144538732 1.1751883376083356 -0.3003759814500387 3.9389836256871393 6.554424789030359 -0.8318053518067845 0.632475226453242 -1.2120842612026603 13.64268493067148" Properties=species:S:1:pos:R:3:forces:R:3 unique_starting_index=40 config_type=initial n_minim_iter=9 energy=-3582.8395967415404 stress="-1.787634935789794e-05 -3.235565906022064e-06 6.948449411597798e-05 -3.235565906022064e-06 -2.1012569896764885e-05 -9.214502403721473e-05 6.948449411597798e-05 -9.214502403721473e-05 2.0105774164305173e-06" free_energy=-3582.8395967415404 pbc="T T T"
Si       7.56961107       2.86863964      10.65777333       0.00247895      -0.00542941      -0.00666445
Si       1.25828176       2.03170581       3.81396396      -0.00308196       0.00267791      -0.00058100
Si       4.93358477       2.60756572       5.98587498       0.00106376      -0.00674700      -0.00580937
Si       3.76121160       2.28065717       9.40849493      -0.00720570       0.00636759       0.00015542
Si       3.68310918       0.63168007      12.39846178      -0.00760702      -0.00855547       0.00364427
Si       7.83985808       5.04416679       4.51675630      -0.00027043       0.00665345       0.00016236
Si       6.83000608       3.17368618       1.16863494      -0.00357318       0.00410918      -0.00918002
Si       5.39551813       4.78210189       6.99770795       0.00938673       0.00767486      -0.00172714
Si       4.89392500       4.22254078       0.27927108      -0.00138881      -0.01031256      -0.00520665
Si       6.04373827       4.29725858      11.97376696      -0.01215714      -0.00129528      -0.00359825
Si       6.00148105       1.51302692       9.55329487       0.00212124       0.00115971       0.00843557
Si       3.88050713       4.53907649       8.75419651       0.00370022       0.00129066       0.00934356
Si       2.63097696       3.64340512       0.28201418       0.00038674      -0.00252407       0.00999149
Si       1.42831514       0.18835286       6.43888502      -0.00043211      -0.00393206      -0.00042925
Si       3.54098581      -0.86581537      14.20929065       0.00647663       0.00734133      -0.00170240
Si       7.69639310       5.06329111       6.89866326      -0.00427233       0.00803564      -0.00720174
Si       4.37839715       3.16269861       3.70469745       0.00340039       0.00210075       0.00220046
Si       6.29896909       6.51113705       3.36574626      -0.00120003      -0.00418488      -0.00262299
Si       4.56422480       5.20941507       2.37738662      -0.00001651       0.00175176       0.00613880
Si       3.11745565       1.68991762       7.23193827       0.00284475      -0.00213683       0.00679226
Si       5.77846240       0.14367727      11.46000933       0.01120822       0.00234962      -0.00724082
Si       4.05653508       0.98286726       2.70889214      -0.00186242      -0.00639490       0.00509989
22
Lattice="5.510660599721537 1.1748276913303883 -0.3011345336489604 3.9387990379283746 6.554077125985852 -0.8312573026155117 0.6301003710112298 -1.209572614282657 13.641874773031072" Properties=species:S:1:pos:R:3:forces:R:3 unique_starting_index=40 config_type=initial n_minim_iter=10 energy=-3582.83961512923 stress="-1.1059401051750476e-05 -1.8069416584416512e-05 -2.2697505227376685e-05 -1.8069416584416512e-05 -1.3333343564830476e-06 3.033371850544746e-05 -2.2697505227376685e-05 3.033371850544746e-05 -2.1129182482915616e-05" free_energy=-3582.83961512923 pbc="T T T"
Si       7.56768030       2.87005384      10.65666929       0.00096822      -0.00243093      -0.00630246
Si       1.25755421       2.03238867       3.81409487      -0.00231869       0.00320427      -0.00084190
Si       4.93231029       2.60835154       5.98535676       0.00201755      -0.00420216      -0.00301968
Si       3.75918789       2.28235388       9.40791768      -0.00804644       0.00503573       0.00161676
Si       3.68112212       0.63366528      12.39753958      -0.00416042      -0.00606632       0.00333352
Si       7.83902177       5.04491168       4.51602520       0.00068537       0.00407887      -0.00016443
Si       6.82955327       3.17324272       1.16807128      -0.00277093       0.00359018      -0.01063277
Si       5.39425234       4.78315252       6.99750720       0.01061822       0.00331403      -0.00183098
Si       4.89360399       4.22215977       0.27909056      -0.00394100      -0.00930886      -0.00225221
Si       6.04149630       4.29893751      11.97312768      -0.01044944      -0.00215931      -0.00622886
Si       5.99945996       1.51473858       9.55210704       0.00259470       0.00179042       0.00767532
Si       3.87910188       4.54062840       8.75397406       0.00530606       0.00350841       0.00900197
Si       2.63055706       3.64318535       0.28222447       0.00143101      -0.00386954       0.00771229
Si       1.42705598       0.18948255       6.43847019      -0.00041299      -0.00293157      -0.00250099
Si       3.53851533      -0.86337404      14.20794876       0.00515497       0.00628003       0.00142649
Si       7.69520280       5.06465068       6.89789259      -0.00571343       0.00592281      -0.00768451
Si       4.37769309       3.16310097       3.70441569       0.00226061       0.00017095       0.00142202
Si       6.29784576       6.51137400       3.36570814      -0.00199027      -0.00343591      -0.00173406
Si       4.56330567       5.20946501       2.37729004       0.00075947       0.00213972       0.00418284
Si       3.11599528       1.69131322       7.23135034       0.00203898      -0.00222870       0.00710003
Si       5.77667083       0.14555898      11.45865124       0.00732385       0.00279869      -0.00657219
Si       4.05581969       0.98304091       2.70829801      -0.00135539      -0.00520081       0.00629381
22
Lattice="5.511228404979533 1.1750830510550867 -0.30182564707721654 3.939614058519336 6.55364680924613 -0.8329305308216103 0.6290175410517586 -1.2120206180262727 13.643635357727693" Properties=species:S:1:pos:R:3:forces:R:3 unique_starting_index=40 config_type=initial n_minim_iter=11 energy=-3582.8397081325757 stress="5.8250452091499836e-05 4.5857912220476354e-05 -5.223030518271475e-06 4.5857912220476354e-05 3.794193379755665e-05 1.766960477544092e-05 -5.223030518271475e-06 1.766960477544092e-05 7.466347533736786e-05" free_energy=-3582.8397081325757 pbc="T T T"
Si       7.56810588       2.86718411      10.65668109      -0.00067418      -0.00131181      -0.00235636
Si       1.25760526       2.03183886       3.81445840       0.00038800       0.00406319      -0.00614772
Si       4.93211326       2.60655481       5.98533063       0.00138090       0.00202516       0.00012957
Si       3.75727110       2.28144893       9.40836620       0.00275973       0.00282281       0.00269528
Si       3.68131871       0.63039580      12.39900861      -0.00111662      -0.00250001      -0.00567012