16
Lattice="8.276660052593277 1.3337316680867924e-31 6.520590857166056e-33 -1.2254993141137926e-31 7.605008908693042 -2.275834910904718e-16 -5.617695283225722e-33 2.1338671292164455e-16 7.130604443187457" Properties=species:S:1:pos:R:3:forces:R:3 unique_starting_index=48 config_type=initial n_minim_iter=1 energy=-2600.596141588634 stress="-0.0003284174208824425 -3.245712040444682e-12 2.926849200671285e-12 -3.245712040444682e-12 -0.0003992829863580942 -8.299839741395574e-13 2.926849200671285e-12 -8.299839741395574e-13 0.0015675063229313962" free_energy=-2600.596141588634 pbc="T T T"
Si       5.29816276       4.19989060       4.39298532       0.01480953       0.03250993       0.17833399
Si       2.97849729       3.40511831       4.39298532      -0.01480953      -0.03250993       0.17833399
Si       2.97849729       4.19989060       0.82768309      -0.01480953       0.03250993       0.17833399
Si       5.29816276       3.40511831       0.82768309       0.01480953      -0.03250993       0.17833399
Si       4.98826050       6.63823698       4.39507112       0.30302241      -0.13359048      -0.15580741
Si       3.28839955       0.96677193       4.39507112      -0.30302241       0.13359048      -0.15580740
Si       3.28839955       6.63823698       0.82976889      -0.30302241      -0.13359048      -0.15580741
Si       4.98826050       0.96677193       0.82976889       0.30302241       0.13359048      -0.15580740
Si       6.59672822       4.66086605       6.41451796       0.12753828      -0.26305805       0.07672048
Si       1.67993183       2.94414286       6.41451796      -0.12753828       0.26305805       0.07672048
Si       1.67993183       4.66086605       2.84921574      -0.12753828      -0.26305805       0.07672048
Si       6.59672822       2.94414286       2.84921574       0.12753828       0.26305805       0.07672048
Si       2.93341709       6.60594616       3.16370707      -0.32140831       0.18645855      -0.09924707
Si       5.34324296       0.99906274       3.16370707       0.32140831      -0.18645855      -0.09924707
Si       5.34324296       6.60594616       6.72900929       0.32140831       0.18645855      -0.09924707
Si       2.93341709       0.99906274       6.72900929      -0.32140831      -0.18645855      -0.09924707
16
Lattice="8.294107094130275 1.3370784790916071e-31 6.51959148419526e-33 -1.2281488972156098e-31 7.624503751102055 -2.2802726161231226e-16 -5.5742197877300985e-33 2.1138369990751557e-16 7.05929645847946" Properties=species:S:1:pos:R:3:forces:R:3 unique_starting_index=48 config_type=initial n_minim_iter=2 energy=-2600.6123593436146 stress="0.0012398201003367513 -2.2776268923383253e-12 3.171256934174415e-12 -2.2776268923383253e-12 0.0008867336339300495 -3.4537688615341803e-13 3.171256934174415e-12 -3.4537688615341803e-13 -0.003704477662447346" free_energy=-2600.6123593436146 pbc="T T T"
Si       5.30954320       4.21112231       4.35157642      -0.06744482       0.02433601       0.12374853
Si       2.98456390       3.41338144       4.35157642       0.06744482      -0.02433601       0.12374853
Si       2.98456390       4.21112231       0.82192819       0.06744482       0.02433601       0.12374853
Si       5.30954320       3.41338144       0.82192819      -0.06744482      -0.02433601       0.12374853
Si       5.00311368       6.65334025       4.34891565       0.25704198      -0.14685107      -0.23663386
Si       3.29099342       0.97116350       4.34891565      -0.25704198       0.14685107      -0.23663386
Si       3.29099342       6.65334025       0.81926742      -0.25704198      -0.14685107      -0.23663386
Si       5.00311368       0.97116350       0.81926742       0.25704198       0.14685107      -0.23663386
Si       6.61245982       4.66904621       6.35145608       0.16258872      -0.15049648       0.12168290
Si       1.68164728       2.95545754       6.35145608      -0.16258872       0.15049648       0.12168290
Si       1.68164728       4.66904621       2.82180785      -0.16258872      -0.15049648       0.12168290
Si       6.61245982       2.95545754       2.82180785       0.16258872       0.15049648       0.12168290
Si       2.93499945       6.62555051       3.13066550      -0.30153310       0.14742140      -0.00879757
Si       5.35910764       0.99895324       3.13066550       0.30153310      -0.14742140      -0.00879757
Si       5.35910764       6.62555051       6.66031373       0.30153310       0.14742140      -0.00879757
Si       2.93499945       0.99895324       6.66031373      -0.30153310      -0.14742140      -0.00879757
16
Lattice="8.200364923205376 1.3220921940641815e-31 6.456923939934572e-33 -1.2277704506795105e-31 7.622835554348699 -2.3089452069103285e-16 -5.596728493463926e-33 2.0987773103956404e-16 7.1000281324536285" Properties=species:S:1:pos:R:3:forces:R:3 unique_starting_index=48 config_type=initial n_minim_iter=3 energy=-2600.7623235354076 stress="0.004848709599964455 -3.9194482161225264e-12 -1.2229302071191294e-12 -3.9194482161225264e-12 0.004532743103624442 -4.469261349574457e-12 -1.2229302071191294e-12 -4.469261349574457e-12 0.000623649555542508" free_energy=-2600.7623235354076 pbc="T T T"
Si       5.24781924       4.21489510       4.40171064       0.11185781      -0.07564110       0.07376388
Si       2.95254568       3.40794045       4.40171064      -0.11185781       0.07564110       0.07376388
Si       2.95254568       4.21489510       0.85169657      -0.11185781      -0.07564110       0.07376388
Si       5.24781924       3.40794045       0.85169657       0.11185781       0.07564110       0.07376388
Si       4.99128368       6.63028408       4.34592491       0.01944099      -0.00237706      -0.08212646
Si       3.20908124       0.99255147       4.34592491      -0.01944099       0.00237706      -0.08212646
Si       3.20908124       6.63028408       0.79591084      -0.01944099      -0.00237705      -0.08212646
Si       4.99128368       0.99255147       0.79591084       0.01944099       0.00237705      -0.08212646
Si       6.55919626       4.63233127       6.40218198       0.09668123       0.16173681       0.15650342
Si       1.64116867       2.99050429       6.40218198      -0.09668123      -0.16173681       0.15650342
Si       1.64116867       4.63233127       2.85216792      -0.09668123       0.16173681       0.15650342
Si       6.55919626       2.99050429       2.85216792       0.09668123      -0.16173681       0.15650342
Si       2.85298930       6.65141088       3.13770860      -0.14569379      -0.01760994      -0.14814085
Si       5.34737562       0.97142468       3.13770860       0.14569379       0.01760994      -0.14814085
Si       5.34737562       6.65141088       6.68772267       0.14569379      -0.01760993      -0.14814085
Si       2.85298930       0.97142468       6.68772267      -0.14569379       0.01760993      -0.14814085
16
Lattice="8.109252897691269 1.3040272724048516e-31 6.374472935410504e-33 -1.2216079268979007e-31 7.565258510390594 -2.171560337642541e-16 -5.593998125754478e-33 2.2081072447172934e-16 7.084794705569986" Properties=species:S:1:pos:R:3:forces:R:3 unique_starting_index=48 config_type=initial n_minim_iter=4 energy=-2600.7900233989735 stress="0.0003667628372594925 1.9713446284040896e-12 -2.9938239789576716e-12 1.9713446284040896e-12 -0.004532333067895068 -3.427727215797467e-12 -2.9938239789576716e-12 -3.427727215797467e-12 -0.002908513231135141" free_energy=-2600.7900233989735 pbc="T T T"
Si       5.18956299       4.18408391       4.39971181       0.15623953      -0.15275939       0.06330306
Si       2.91968991       3.38117460       4.39971181      -0.15623953       0.15275939       0.06330306
Si       2.91968991       4.18408391       0.85731446      -0.15623953      -0.15275939       0.06330306
Si       5.18956299       3.38117460       0.85731446       0.15623953       0.15275939       0.06330306
Si       4.94850203       6.57412635       4.32840621       0.04059723       0.00703939      -0.01388821
Si       3.16075087       0.99113216       4.32840621      -0.04059723      -0.00703939      -0.01388821
Si       3.16075087       6.57412635       0.78600886      -0.04059723       0.00703939      -0.01388821
Si       4.94850203       0.99113216       0.78600886       0.04059723      -0.00703939      -0.01388821
Si       6.49268631       4.58781889       6.39301197       0.22021046       0.12292781       0.15970849
Si       1.61656659       2.97743962       6.39301197      -0.22021046      -0.12292781       0.15970849
Si       1.61656659       4.58781889       2.85061461      -0.22021046       0.12292781       0.15970849
Si       6.49268631       2.97743962       2.85061461       0.22021046      -0.12292781       0.15970849
Si       2.80699011       6.60883458       3.12715943      -0.12254352      -0.04983293      -0.20912333
Si       5.30226278       0.95642393       3.12715943       0.12254352       0.04983293      -0.20912333
Si       5.30226278       6.60883458       6.66955679       0.12254352      -0.04983293      -0.20912333
Si       2.80699011       0.95642393       6.66955679      -0.12254352       0.04983293      -0.20912333
16
Lattice="7.893117109300649 1.2725772630082524e-31 6.20533891874244e-33 -1.231693377375762e-31 7.647498138917378 -2.1374145380494977e-16 -5.6103163290753454e-33 2.2705942314046024e-16 7.106902885958503" Properties=species:S:1:pos:R:3:forces:R:3 unique_starting_index=48 config_type=initial n_minim_iter=5 energy=-2600.819184158692 stress="-0.0013134093832160665 -6.885013803626796e-12 4.973508735929263e-12 -6.885013803626796e-12 0.003286330339031131 2.3790913528145694e-12 4.973508735929263e-12 2.3790913528145694e-12 0.00010243271593160321" free_energy=-2600.819184158692 pbc="T T T"
Si       5.05399252       4.22941722       4.43032270       0.34482514      -0.05286227       0.06250922
Si       2.83912459       3.41808091       4.43032270      -0.34482514       0.05286227       0.06250922
Si       2.83912459       4.22941722       0.87687126      -0.34482514      -0.05286227       0.06250922
Si       5.05399252       3.41808091       0.87687126       0.34482514       0.05286227       0.06250922
Si       4.84314058       6.63291545       4.32471529       0.02995614       0.00183626       0.03057895
Si       3.04997653       1.01458269       4.32471529      -0.02995614      -0.00183626       0.03057895
Si       3.04997653       6.63291545       0.77126385      -0.02995614       0.00183626       0.03057895
Si       4.84314058       1.01458269       0.77126385       0.02995614      -0.00183626       0.03057895
Si       6.33557703       4.61920511       6.42492824       0.16595410       0.26029812       0.15779598
Si       1.55754008       3.02829303       6.42492824      -0.16595410      -0.26029812       0.15779598
Si       1.55754008       4.61920511       2.87147680      -0.16595410       0.26029812       0.15779598
Si       6.33557703       3.02829303       2.87147680       0.16595410      -0.26029812       0.15779598
Si       2.70110542       6.69626836       3.12526719      -0.09474184      -0.12352719      -0.25088415
Si       5.19201169       0.95122978       3.12526719       0.09474184       0.12352719      -0.25088415
Si       5.19201169       6.69626836       6.67871863       0.09474184      -0.12352719      -0.25088415
Si       2.70110542       0.95122978       6.67871863      -0.09474184       0.12352719      -0.25088415
16
Lattice="7.89517953569461 1.27091817100187e-31 6.221048143946034e-33 -1.2215886100215462e-31 7.573451445898585 -2.092849385302425e-16 -5.6374959895988294e-33 2.3041722053243197e-16 7.156867589098256" Properties=species:S:1:pos:R:3:forces:R:3 unique_starting_index=48 config_type=initial n_minim_iter=6 energy=-2600.853903079853 stress="0.0027932460896766824 -3.985642700416898e-12 -6.1682728928027875e-12 -3.985642700416898e-12 -0.0013776812681211168 8.082388101751557e-12 -6.1682728928027875e-12 8.082388101751557e-12 0.002075411031155038" free_energy=-2600.853903079853 pbc="T T T"
Si       5.06634722       4.18657215       4.47819131       0.31604955      -0.22255120       0.11231307
Si       2.82883232       3.38687929       4.47819131      -0.31604955       0.22255120       0.11231307
Si       2.82883232       4.18657215       0.89975751      -0.31604955      -0.22255120       0.11231307
Si       5.06634722       3.38687929       0.89975751       0.31604955       0.22255120       0.11231307
Si       4.86875564       6.55767459       4.34094541      -0.15504742       0.18592697       0.05397693
Si       3.02642389       1.01577685       4.34094541       0.15504742      -0.18592697       0.05397693
Si       3.02642389       6.55767459       0.76251161       0.15504742       0.18592697       0.05397693
Si       4.86875564       1.01577685       0.76251161      -0.15504742      -0.18592697       0.05397693
Si       6.35588563       4.56497351       6.48498160       0.11558736       0.20924385       0.09991990
Si       1.53929390       3.00847793       6.48498160      -0.11558736      -0.20924385       0.09991990
Si       1.53929390       4.56497351       2.90654780      -0.11558736       0.20924385       0.09991990
Si       6.35588563       3.00847793       2.90654780       0.11558736      -0.20924385       0.09991990
Si       2.67206382       6.64169264       3.12980907       0.06142034      -0.06819830      -0.26620991
Si       5.22311572       0.93175881       3.12980907      -0.06142034       0.06819830      -0.26620991
Si       5.22311572       6.64169264       6.70824287      -0.06142034      -0.06819830      -0.26620991
Si       2.67206382       0.93175881       6.70824287       0.06142034       0.06819830      -0.26620991
16
Lattice="6.7733054677065025 1.070572457710205e-31 5.764662944772219e-33 -1.2398857529300876e-31 7.58111199990151 -2.2189069925888684e-16 -5.3784961274381384e-33 2.222215855626997e-16 7.28091890849252" Properties=species:S:1:pos:R:3:forces:R:3 unique_starting_index=48 config_type=initial n_minim_iter=7 energy=-2601.999053082111 stress="-0.0007769237838536124 -4.3953229906973767e-13 -4.99530094372944e-12 -4.3953229906973767e-13 -0.005922174550143476 1.9540011612784338e-12 -4.99530094372944e-12 1.9540011612784338e-12 0.004489007279218283" free_energy=-2601.999053082111 pbc="T T T"
Si       4.50329691       4.11608551       4.70159232      -0.18884533       0.66214072       0.74852514
Si       2.27000856       3.46502649       4.70159232       0.18884533      -0.66214072       0.74852514
Si       2.27000856       4.11608551       1.06113286       0.18884533       0.66214072       0.74852514
Si       4.50329691       3.46502649       1.06113286      -0.18884533      -0.66214072       0.74852514
Si       4.29214665       6.53145188       4.33582469      -0.24181516       0.06017565      -0.87272547
Si       2.48115882       1.04966012       4.33582469       0.24181516      -0.06017565      -0.87272547
Si       2.48115882       6.53145188       0.69536523       0.24181517       0.06017565      -0.87272547
Si       4.29214665       1.04966012       0.69536523      -0.24181516      -0.06017565      -0.87272547
Si       5.60567957       4.59639610       6.74944760       1.45509633      -0.86598845      -0.69169851
Si       1.16762590       2.98471590       6.74944760      -1.45509632       0.86598845      -0.69169851
Si       1.16762590       4.59639610       3.10898815      -1.45509633      -0.86598845      -0.69169851
Si       5.60567957       2.98471590       3.10898815       1.45509632       0.86598845      -0.69169851
Si       2.12162596       6.67978804       2.96658147       0.21785378       0.82934369       0.81589884
Si       4.65167951       0.90132396       2.96658147      -0.21785378      -0.82934369       0.81589884
Si       4.65167951       6.67978804       6.60704093      -0.21785378       0.82934369       0.81589884
Si       2.12162596       0.90132396       6.60704093       0.21785378      -0.82934369       0.81589884
16
Lattice="6.640663280676646 1.0442516499533505e-31 5.848481958972199e-33 -1.2450130328080227e-31 7.586720267808177 -2.311101705211167e-16 -5.2291556502471294e-33 2.1398496278293117e-16 7.2893599107657785" Properties=species:S:1:pos:R:3:forces:R:3 unique_starting_index=48 config_type=initial n_minim_iter=8 energy=-2602.0315078405683 stress="-0.009359024567963708 -1.3857636432311455e-12 9.234133821409999e-13 -1.3857636432311455e-12 -0.0026071265667826247 1.743487558723643e-12 9.234133821409999e-13 1.743487558723643e-12 0.002661964737564441" free_energy=-2602.0315078405683 pbc="T T T"
Si       4.43020833       4.11322007       4.72787302      -0.17527192       0.75412519       0.74545679
Si       2.21045495       3.47350020       4.72787302       0.17527192      -0.75412519       0.74545679
Si       2.21045495       4.11322007       1.08319306       0.17527192       0.75412519       0.74545679
Si       4.43020833       3.47350020       1.08319306      -0.17527192      -0.75412519       0.74545679
Si       4.22685417       6.52847450       4.32577109      -0.30847010       0.06686727      -0.90668862
Si       2.41380911       1.05824577       4.32577109       0.30847010      -0.06686727      -0.90668862
Si       2.41380911       6.52847450       0.68109114       0.30847010       0.06686727      -0.90668862
Si       4.22685417       1.05824577       0.68109114      -0.30847010      -0.06686726      -0.90668862
Si       5.51573249       4.59447115       6.77505837       1.45980686      -0.79156351      -0.71389387
Si       1.12493079       2.99224912       6.77505837      -1.45980686       0.79156351      -0.71389387
Si       1.12493079       4.59447115       3.13037841      -1.45980686      -0.79156351      -0.71389387
Si       5.51573249       2.99224912       3.13037841       1.45980686       0.79156351      -0.71389387
Si       2.05498815       6.69430148       2.94648507       0.32516927       0.74876089       0.87512570
Si       4.58567513       0.89241878       2.94648507      -0.32516927      -0.74876089       0.87512570
Si       4.58567513       6.69430148       6.59116503      -0.32516927       0.74876089       0.87512570
Si       2.05498815       0.89241878       6.59116503       0.32516927      -0.74876089       0.87512570
16
Lattice="6.7024165348055185 1.0511036364390302e-31 6.007893783253111e-33 -1.248997697876283e-31 7.592790963462389 -2.3244273287046327e-16 -5.084277782836949e-33 2.1126591076919926e-16 7.235676141676369" Properties=species:S:1:pos:R:3:forces:R:3 unique_starting_index=48 config_type=initial n_minim_iter=9 energy=-2602.4053521020433 stress="-0.0031130664827570724 -8.553056285579956e-12 -8.282298110662571e-12 -8.553056285579956e-12 0.0012526269961463644 -2.5576139487698595e-12 -8.282298110662571e-12 -2.5576139487698595e-12 0.0006879152863209781" free_energy=-2602.4053521020433 pbc="T T T"
Si       4.45302370       4.13344200       4.70608030      -0.03326632       0.46148636       0.37019283
Si       2.24939284       3.45934896       4.70608030       0.03326632      -0.46148636       0.37019283
Si       2.24939284       4.13344200       1.08824223       0.03326632       0.46148636       0.37019283
Si       4.45302370       3.45934896       1.08824223      -0.03326632      -0.46148636       0.37019283
Si       4.28205656       6.52058461       4.26985916      -0.40930139       0.13464829      -0.43510554
Si       2.42035998       1.07220635       4.26985916       0.40930139      -0.13464829      -0.43510554
Si       2.42035998       6.52058461       0.65202109       0.40930139       0.13464829      -0.43510554
Si       4.28205656       1.07220635       0.65202109      -0.40930139      -0.13464829      -0.43510554
Si       5.57416092       4.56030061       6.71578813       1.26210668      -0.38737445      -0.41164011
Si       1.12825561       3.03249035       6.71578813      -1.26210668       0.38737445      -0.41164011
Si       1.12825561       4.56030061       3.09795006      -1.26210668      -0.38737445      -0.41164011
Si       5.57416092       3.03249035       3.09795006       1.26210667       0.38737445      -0.41164011
Si       2.06029519       6.72528788       2.94518680       0.33994727       0.16364959       0.47655282
Si       4.64212135       0.86750308       2.94518680      -0.33994727      -0.16364959       0.47655282
Si       4.64212135       6.72528788       6.56302488      -0.33994727       0.16364959       0.47655282
Si       2.06029519       0.86750308       6.56302488       0.33994727      -0.16364959       0.47655282
16
Lattice="6.739355735776592 1.0506313509542976e-31 6.0975587699060525e-33 -1.251522693802018e-31 7.57070165836497 -2.294735794161193e-16 -4.9958030626083515e-33 2.1225249475236894e-16 7.196621854892812" Properties=species:S:1:pos:R:3:forces:R:3 unique_starting_index=48 config_type=initial n_minim_iter=10 energy=-2602.584721469106 stress="0.0007664027635480573 1.0983022347223798e-11 7.520147412061198e-12 1.0983022347223798e-11 -0.0013997938377776065 -1.54476981001723e-11 7.520147412061198e-12 -1.54476981001723e-11 -0.001920307708070951" free_energy=-2602.584721469106 pbc="T T T"
Si       4.46876037       4.13611039       4.69377747       0.05860602       0.14076312       0.01211125
Si       2.27059536       3.43459126       4.69377747      -0.05860602      -0.14076312       0.01211125
Si       2.27059536       4.13611039       1.09546654      -0.05860602       0.14076312       0.01211125
Si       4.46876037       3.43459126       1.09546654       0.05860602      -0.14076312       0.01211125
Si       4.30998568       6.49733979       4.22794620      -0.44164577       0.11998890      -0.06202693
Si       2.42937005       1.07336187       4.22794620       0.44164577      -0.11998890      -0.06202693
Si       2.42937005       6.49733979       0.62963527       0.44164577       0.11998890      -0.06202693
Si       4.30998568       1.07336187       0.62963527      -0.44164577      -0.11998890      -0.06202693
Si       5.62474334       4.52126059       6.66977155       1.02849591      -0.19951266      -0.07918351
Si       1.11461239       3.04944106       6.66977155      -1.02849590       0.19951266      -0.07918351
Si       1.11461239       4.52126059       3.07146063      -1.02849590      -0.19951266      -0.07918351
Si       5.62474334       3.04944106       3.07146063       1.02849591       0.19951266      -0.07918351
Si       2.06681472       6.71981979       2.94482714       0.31077284      -0.21888183       0.12909919
Si       4.67254102       0.85088187       2.94482714      -0.31077284       0.21888183       0.12909919
Si       4.67254102       6.71981979       6.54313806      -0.31077284      -0.21888183       0.12909919
Si       2.06681472       0.85088187       6.54313806       0.31077284       0.21888183       0.12909919
16
Lattice="6.730222414192844 1.0346097002921955e-31 6.170870638742205e-33 -1.2638296408758397e-31 7.56419482570058 -2.189798781153673e-16 -4.9108987876659034e-33 2.213466120807109e-16 7.177806217500977" Properties=species:S:1:pos:R:3:forces:R:3 unique_starting_index=48 config_type=initial n_minim_iter=11 energy=-2602.7521017907216 stress="0.001214428499942726 -1.0322033108552635e-12 -1.6881406149808432e-12 -1.0322033108552635e-12 -0.0029631273497128133 3.808589535866136e-12 -1.6881406149808432e-12 3.808589535866136e-12 -0.00015156536227087117" free_energy=-2602.7521017907216 pbc="T T T"
Si       4.46891716       4.14979574       4.70173670       0.12509458      -0.22526418      -0.40958393
Si       2.26130525       3.41439908       4.70173670      -0.12509458       0.22526418      -0.40958393
Si       2.26130525       4.14979574       1.11283359      -0.12509458      -0.22526418      -0.40958393
Si       4.46891716       3.41439908       1.11283359       0.12509458       0.22526418      -0.40958393
Si       4.29015822       6.49857685       4.19467599      -0.32631143      -0.10990600       0.32876512
Si       2.44006420       1.06561797       4.19467599       0.32631143       0.10990600       0.32876511
Si       2.44006420       6.49857685       0.60577288       0.32631143      -0.10990600       0.32876511
Si       4.29015822       1.06561797       0.60577288      -0.32631143       0.10990600       0.32876512
Si       5.67613441       4.49446135       6.64189624       0.37255955      -0.07146512       0.30383444
Si       1.05408801       3.06973348       6.64189624      -0.37255955       0.07146512       0.30383444
Si       1.05408801       4.49446135       3.05299313      -0.37255955      -0.07146512       0.30383444
Si       5.67613441       3.06973348       3.05299313       0.37255955       0.07146512       0.30383444
Si       2.07059315       6.71543302       2.94955004       0.14788529      -0.51435371      -0.22301563
Si       4.65962927       0.84876180       2.94955004      -0.14788529       0.51435371      -0.22301563
Si       4.65962927       6.71543302       6.53845314      -0.14788529      -0.51435371      -0.22301563
Si       2.07059315       0.84876180       6.53845314       0.14788529       0.51435371      -0.22301563
16
Lattice="6.752083809629682 1.0384522164235338e-31 6.185805097736101e-33 -1.2738205958870606e-31 7.629361927507444 -2.2018127902219217e-16 -4.862981751654822e-33 2.2051558414477485e-16 7.122948921351233" Properties=species:S:1:pos:R:3:forces:R:3 unique_starting_index=48 config_type=initial n_minim_iter=12 energy=-2602.8605389793884 stress="0.0027324284012071776 -3.618125245976496e-12 7.448839366085311e-13 -3.618125245976496e-12 0.0022492179171449216 7.525999949459037e-12 7.448839366085311e-13 7.525999949459037e-12 -0.004504923676067061" free_energy=-2602.8605389793884 pbc="T T T"
Si       4.49212570       4.18538298       4.64631917       0.01512607      -0.12536054      -0.32520271
Si       2.25995811       3.44397895       4.64631917      -0.01512607       0.12536054      -0.32520271
Si       2.25995811       4.18538298       1.08484471      -0.01512607      -0.12536054      -0.32520271
Si       4.49212570       3.44397895       1.08484471       0.01512607       0.12536054      -0.32520271
Si       4.26208413       6.57126268       4.18095030      -0.03233584      -0.34285264       0.07900293
Si       2.48999968       1.05809925       4.18095030       0.03233584       0.34285264       0.07900293
Si       2.48999968       6.57126268       0.61947583       0.03233584      -0.34285264       0.07900293
Si       4.26208413       1.05809925       0.61947583      -0.03233584       0.34285264       0.07900293
Si       5.71774689       4.54896645       6.58292895       0.15606153      -0.13735363       0.21608277
Si       1.03433692       3.08039548       6.58292895      -0.15606153       0.13735363       0.21608277
Si       1.03433692       4.54896645       3.02145449      -0.15606153      -0.13735363       0.21608277
Si       5.71774689       3.08039548       3.02145449       0.15606153       0.13735363       0.21608277
Si       2.11498288       6.74004187       2.93636473      -0.18071457      -0.26484657       0.03011701
Si       4.63710093       0.88932006       2.93636473       0.18071457       0.26484657       0.03011701
Si       4.63710093       6.74004187       6.49783919       0.18071457      -0.26484657       0.03011701
Si       2.11498288       0.88932006       6.49783919      -0.18071457       0.26484657       0.03011701
16
Lattice="6.694338631342331 1.0293779002841454e-31 6.202716251486976e-33 -1.2686688243824977e-31 7.599698713795074 -2.239431785284108e-16 -4.866180399425427e-33 2.1783801148893016e-16 7.182193858580924" Properties=species:S:1:pos:R:3:forces:R:3 unique_starting_index=48 config_type=initial n_minim_iter=13 energy=-2602.891132616256 stress="-0.0012910431229607399 -1.6823865079616056e-12 6.726002882530468e-12 -1.6823865079616056e-12 0.0012623736659223132 5.370950669831503e-12 6.726002882530468e-12 5.370950669831503e-12 0.003260742958345779" free_energy=-2602.891132616256 pbc="T T T"
Si       4.46775702       4.16197905       4.68959968      -0.00876606      -0.10625272      -0.13027669
Si       2.22658161       3.43771966       4.68959968       0.00876606       0.10625272      -0.13027669
Si       2.22658161       4.16197905       1.09850275       0.00876606      -0.10625272      -0.13027669
Si       4.46775702       3.43771966       1.09850275      -0.00876606       0.10625272      -0.13027669
Si       4.22855340       6.53952257       4.21245210      -0.05886535      -0.22692664       0.04188588
Si       2.46578523       1.06017615       4.21245210       0.05886535       0.22692664       0.04188588
Si       2.46578523       6.53952257       0.62135517       0.05886535      -0.22692664       0.04188588
Si       4.22855340       1.06017615       0.62135517      -0.05886535       0.22692663       0.04188588
Si       5.68837722       4.53030936       6.65189101      -0.03995991      -0.13923288       0.01836120
Si       1.00596141       3.06938935       6.65189101       0.03995991       0.13923288       0.01836120
Si       1.00596141       4.53030936       3.06079408       0.03995991      -0.13923288       0.01836120
Si       5.68837722       3.06938935       3.06079408      -0.03995991       0.13923288       0.01836121
Si       2.08651492       6.70783445       2.94521741      -0.09295466      -0.13038342       0.07002960
Si       4.60782371       0.89186426       2.94521741       0.09295466       0.13038342       0.07002960
Si       4.60782371       6.70783445       6.53631434       0.09295466      -0.13038342       0.07002960
Si       2.08651492       0.89186426       6.53631434      -0.09295466       0.13038342       0.07002960
16