20
Lattice="3.790218905163024 0.4396865279530467 0.3503427831686889 1.584833313158348 12.587730718068691 -0.513534458097336 -1.1027152965218718 -6.787069881603299 8.65354559643405" Properties=species:S:1:pos:R:3:forces:R:3 unique_starting_index=474 config_type=initial n_minim_iter=1 energy=-3255.3415037999453 stress="0.00037956741703539415 -0.0005426962082516508 0.00037816721993868754 -0.0005426962082516508 0.0025120830178800998 0.000296840408220876 0.00037816721993868754 0.000296840408220876 0.0007080689988196852" free_energy=-3255.3415037999453 pbc="T T T"
Si       0.46798357      -3.17791224       5.70351692       0.22880313      -0.15256025       0.15666657
Si       2.42993724       5.67151715       1.91634023       0.18271392       0.01838156      -0.03420014
Si       4.17879823      11.07651407       2.69091447      -0.09962881      -0.16686546       0.16931040
Si       2.44183708       0.10276897       7.58275895      -0.12129019      -0.02175823       0.08618251
Si       3.20745718      -0.31838956       5.28667810      -0.24698058       0.18940203       0.04039779
Si       3.57762557      10.77754441      -0.18097101      -0.22875544       0.19354215       0.41961656
Si       3.93386719       7.33213205       2.71612646       0.08416869      -0.23737577       0.00889747
Si       1.18463732       0.69963698       4.26156355      -0.09819334       0.16774566      -0.10232045
Si       2.94685549       1.65787518       1.85333538       0.29196482       0.14346533      -0.26465271
Si       1.72931409       9.46914560       0.51931899      -0.03280574      -0.19917454      -0.11461461
Si       0.82772292      -5.16472225       7.21358524       0.47689619       0.22605462      -0.18645512
Si       0.34911123       0.32581473       8.79263492       0.04173250       0.02969047      -0.05781987
Si       2.56520422       9.34792501       2.87733318       0.08827990      -0.04551760       0.16493146
Si       2.19016924      -2.21844794       7.04300854      -0.16929811      -0.02552738      -0.02883017
Si      -1.24618620      -4.56424871       8.10147143      -0.15209206      -0.39614088       0.38754739
Si       1.43518102       4.08540289       5.31760200      -0.20770741      -0.00587137      -0.58784287
Si       1.25827553       0.02498841       1.79219882      -0.14112015       0.02176176       0.02836951
Si       4.46970705       5.04262252       3.43159966       0.11394556      -0.12906324       0.11837206
Si       3.09507448       5.12610282       6.54070951      -0.10907833       0.23876227      -0.15187394
Si      -0.90293034       2.09620132       3.72480117       0.09844548       0.15104884      -0.05168183
20
Lattice="3.7868379617380707 0.4418351019068436 0.3457431759130365 1.601101748935434 12.510208276050221 -0.52359849889281 -1.1192913666064626 -6.751911027453951 8.644157205666058" Properties=species:S:1:pos:R:3:forces:R:3 unique_starting_index=474 config_type=initial n_minim_iter=2 energy=-3255.352751471464 stress="-0.002726326504759179 0.0001857568522208458 -0.0003024742157101794 0.0001857568522208458 -0.003643346101621799 -0.0003431403698327922 -0.0003024742157101794 -0.0003431403698327922 -0.0029994503959173417" free_energy=-3255.352751471464 pbc="T T T"
Si       0.45915701      -3.16231294       5.69621329       0.20053619      -0.14263520       0.12514932
Si       2.43472783       5.63745144       1.90607780       0.14330039      -0.04919580      -0.05948094
Si       4.18677249      11.00869365       2.67482635      -0.08071993      -0.16242484       0.17429073
Si       2.43156613       0.09962898       7.56726495      -0.12430381       0.04571325       0.07658716
Si       3.19726925      -0.31472213       5.27459744      -0.21135543       0.20992847       0.06047268
Si       3.58769691      10.71526111      -0.18948955      -0.23670855       0.17152190       0.34423002
Si       3.93808842       7.28733051       2.70201268       0.12011484      -0.18569949       0.02741085
Si       1.17973740       0.69468156       4.25158447      -0.11569647       0.16782174      -0.07390085
Si       2.94639722       1.65090505       1.84422643       0.26965387       0.13510415      -0.27809260
Si       1.73995344       9.40961337       0.50887016      -0.00363295      -0.14139672      -0.09895977
Si       0.81596950      -5.13469890       7.20250941       0.41102779       0.22643454      -0.18391613
Si       0.34104902       0.31780065       8.77588237       0.04471476      -0.04686922      -0.05529960
Si       2.57338601       9.28952190       2.86372937       0.05384567      -0.05394183       0.16154501
Si       2.17716056      -2.20678368       7.02973317      -0.14656987      -0.03510507      -0.03111698
Si      -1.26002244      -4.54554999       8.09403339      -0.10033065      -0.35037374       0.39501356
Si       1.43297691       4.05734792       5.29982197      -0.22439164       0.00759358      -0.50954635
Si       1.25447054       0.02534898       1.78793416      -0.14169491       0.04793918       0.02353149
Si       4.46977031       5.01327820       3.41810959       0.12611855      -0.16143534       0.09751701
Si       3.09216177       5.09435111       6.52115338      -0.09604637       0.16901047      -0.13632676
Si      -0.90212213       2.07978966       3.71706515       0.11213852       0.14801000      -0.05910785
20
Lattice="3.8130876523799535 0.45056513300271267 0.3421338098323201 1.647565168985265 12.46972020469803 -0.5377511378348023 -1.1575924404970546 -6.736832897992865 8.698700140202474" Properties=species:S:1:pos:R:3:forces:R:3 unique_starting_index=474 config_type=initial n_minim_iter=3 energy=-3255.380252858519 stress="0.005756564315517853 0.002290091943272668 -0.001599111165600251 0.002290091943272668 -0.003231057735173429 -0.001000719217729495 -0.001599111165600251 -0.001000719217729495 0.001958676825063426" free_energy=-3255.380252858519 pbc="T T T"
Si       0.45092071      -3.15727616       5.73313921       0.09557279      -0.09559735       0.11293127
Si       2.46840126       5.62233921       1.90820255       0.03776970      -0.07841993      -0.01525127
Si       4.23972843      10.97454859       2.68020749      -0.08727435      -0.17112777       0.16360253
Si       2.43479002       0.10060077       7.60801228      -0.11250835       0.08758722       0.10672612
Si       3.20491252      -0.30375711       5.30095553      -0.17796718       0.25082946       0.06265588
Si       3.63636665      10.69102998      -0.19357787      -0.19175535       0.17166412       0.19165768
Si       3.98359530       7.26468129       2.70674966       0.12476986      -0.19546374      -0.02968913
Si       1.18123342       0.69641820       4.27086454      -0.11992070       0.12181542      -0.08686263
Si       2.97531856       1.65525285       1.84262161       0.13439425       0.02193877      -0.14925379
Si       1.77669609       9.37568383       0.49984758       0.00145727      -0.01054631      -0.03965240
Si       0.80838348      -5.11351365       7.24060782       0.20764708       0.28802955      -0.04489684
Si       0.33320992       0.31132284       8.82264548       0.04786609      -0.15645721      -0.09065118
Si       2.61458794       9.25980126       2.87343108       0.03816776      -0.01078743       0.18621131
Si       2.17201014      -2.19850990       7.06675211      -0.01905065      -0.11704340      -0.04726889
Si      -1.29570702      -4.54766804       8.15369695       0.08552690      -0.30630955       0.19032889
Si       1.44146273       4.04277571       5.31070664      -0.16464231       0.10719840      -0.33107389
Si       1.25705709       0.02819391       1.79680410      -0.01373957       0.16273719       0.07804437
Si       4.51204481       5.00174490       3.43008482       0.18308304      -0.09137631       0.00921875
Si       3.11570701       5.08497149       6.54593322      -0.18090510      -0.07641924      -0.12765344
Si      -0.90494187       2.07066934       3.73615809       0.11150882       0.09774811      -0.13912334
20
Lattice="3.7705896552682496 0.43914789066587495 0.360677824629565 1.5778628727367516 12.535885201018369 -0.4963553964835868 -1.082173476293422 -6.747036860369497 8.708566053511484" Properties=species:S:1:pos:R:3:forces:R:3 unique_starting_index=474 config_type=initial n_minim_iter=4 energy=-3255.435035291748 stress="-0.0029340582716579537 -0.0016176367307001189 -0.00031054839243662623 -0.0016176367307001189 -0.001256654404336853 0.0007663220466323014 -0.00031054839243662623 0.0007663220466323014 0.0016788880325045135" free_energy=-3255.435035291748 pbc="T T T"
Si       0.49621163      -3.17106378       5.75854909      -0.05678095      -0.15087540       0.03442976
Si       2.43722754       5.65039683       1.93984085       0.04072886      -0.07379156      -0.08966960
Si       4.15407557      11.01915781       2.75292655       0.12547608      -0.00195969       0.11464662
Si       2.43043410       0.11482597       7.65483733       0.07956142      -0.03676272       0.01067089
Si       3.17669630      -0.28829587       5.33799333      -0.30861406       0.15085700       0.07508985
Si       3.53724412      10.75272731      -0.12194778       0.09691802       0.35088410      -0.06061934
Si       3.92924938       7.28481250       2.75596652       0.07523282      -0.06786410      -0.01250643
Si       1.17553130       0.71963318       4.28818839      -0.03974725       0.09264799      -0.12694566
Si       2.96188709       1.66724075       1.84931547      -0.16734978      -0.10341256       0.36291116
Si       1.72074728       9.41523200       0.52977522      -0.19254655      -0.06402525       0.07032209
Si       0.87890824      -5.10933708       7.24606996      -0.05449326       0.08546353      -0.01526017
Si       0.36790056       0.33590167       8.85543971      -0.10411445      -0.08388626      -0.03951070
Si       2.56597791       9.30999091       2.93497544      -0.15482320      -0.16685739       0.17260646
Si       2.17618899      -2.20271125       7.09498729       0.18991651      -0.08508247       0.14356176
Si      -1.23655893      -4.57188439       8.19283460       0.46160281       0.12399877      -0.36098186
Si       1.41694101       4.07773893       5.31212441       0.07515305       0.20110155       0.03472340
Si       1.24200556       0.03234418       1.81176971       0.16591989       0.10813244       0.21309978
Si       4.46578099       5.01433366       3.48392090       0.08141680      -0.11859792      -0.15174842
Si       3.07994298       5.13371297       6.58951827      -0.42247972      -0.22501249      -0.08952589
Si      -0.88023203       2.10746282       3.74839540       0.10902294       0.06504242      -0.28529370
20
Lattice="3.782318273769865 0.45085212492473603 0.36470721979487847 1.6160803806419157 12.588093413130304 -0.5076573199339224 -1.0883211439104494 -6.787443882840123 8.661655429359714" Properties=species:S:1:pos:R:3:forces:R:3 unique_starting_index=474 config_type=initial n_minim_iter=5 energy=-3255.4472241750755 stress="-0.0005250351248745302 0.001141998432812566 0.0007882691535829497 0.001141998432812566 0.0008774354417616911 0.0004783611035694134 0.0007882691535829497 0.0004783611035694134 -0.0021991775961285195" free_energy=-3255.4472241750755 pbc="T T T"
Si       0.49964339      -3.19132915       5.72904490      -0.04016127      -0.14047621       0.12927651
Si       2.46385656       5.67514904       1.92364936       0.08539741      -0.01914272      -0.02886220
Si       4.20082240      11.06734027       2.72998337       0.03738025      -0.07618593       0.10930164
Si       2.45052526       0.11140117       7.61209121       0.10948457      -0.07796982       0.02711464
Si       3.19036606      -0.28557047       5.31174078      -0.25620744       0.19771615       0.01892978
Si       3.57558312      10.80661042      -0.12790201       0.03823229       0.24778100      -0.03042564
Si       3.96587352       7.31760193       2.73583806       0.03946287      -0.09932049      -0.00911729
Si       1.18732223       0.72123678       4.26121464      -0.07881281       0.08645407      -0.08073902
Si       2.97794062       1.67918382       1.84190442      -0.24559719      -0.20351872       0.32326706
Si       1.75110111       9.45350516       0.51656678      -0.12468013      -0.06614688       0.03273620
Si       0.88181115      -5.13398387       7.20865698       0.01037633       0.06904318      -0.01146089
Si       0.38516115       0.32513809       8.79980508      -0.14952558      -0.02546088      -0.04679345
Si       2.60330260       9.34680970       2.91075713      -0.02047135      -0.10416018       0.07128745
Si       2.18890525      -2.21561376       7.05853764       0.15737146      -0.08371528       0.15081279
Si      -1.23535428      -4.60524227       8.14546089       0.39656368       0.12176857      -0.40415766
Si       1.44076709       4.09122360       5.27321760       0.11346094       0.20299929       0.13010097
Si       1.24907243       0.03461269       1.80440467       0.18326520       0.18595275       0.22047067
Si       4.49904247       5.03936350       3.46294389       0.07544142      -0.07652508      -0.24342662
Si       3.11047693       5.15177309       6.54554024      -0.43570871      -0.17806255      -0.14097619
Si      -0.86863150       2.10898073       3.71814253       0.10472807       0.03896972      -0.21733873
20
Lattice="3.7950432224558153 0.43918615792774873 0.35777049110525133 1.5892249617996987 12.589473286160157 -0.5702750639356579 -1.0851398807133106 -6.828013797714324 8.6927643926314" Properties=species:S:1:pos:R:3:forces:R:3 unique_starting_index=474 config_type=initial n_minim_iter=6 energy=-3255.4726050780873 stress="0.0022388169105824313 -0.00040413229345262957 -0.0012013730073457893 -0.00040413229345262957 0.0014786979186490984 -0.002567082404526767 -0.0012013730073457893 -0.002567082404526767 -0.0009853916757232857" free_energy=-3255.4726050780873 pbc="T T T"
Si       0.50244502      -3.22522556       5.74476762      -0.10147142      -0.13997326       0.14647045
Si       2.45771693       5.65959219       1.89114106      -0.00408635      -0.04780031      -0.03834120
Si       4.18517415      11.04388895       2.67405637       0.02575558      -0.09559898       0.08888721
Si       2.45185017       0.06698382       7.60696312       0.00946868      -0.08266421       0.03120411
Si       3.18872290      -0.31413351       5.30863128      -0.21505757       0.23790459       0.00400998
Si       3.56101925      10.80864301      -0.18418207       0.00854363       0.12132179       0.00868616
Si       3.95986336       7.29253620       2.69429598       0.08434037      -0.05010719       0.01184103
Si       1.18247976       0.70063010       4.25176166      -0.10187257       0.06335007      -0.04858579
Si       2.97816981       1.65908540       1.83708409      -0.02990926      -0.13778960       0.04378454
Si       1.72799206       9.44680860       0.46945783      -0.10623536       0.02748567       0.00944221
Si       0.89094752      -5.16907401       7.22913674      -0.00868731       0.01477717      -0.07778576
Si       0.37177454       0.28011642       8.79316794      -0.06815641      -0.05280513      -0.02150535
Si       2.58300579       9.32495358       2.86519002       0.02811820      -0.09910977       0.03831100
Si       2.19827084      -2.25854527       7.06759579       0.21765304      -0.10616972       0.12470045
Si      -1.22740655      -4.64102570       8.15802148       0.34289941       0.06570879      -0.14861241
Si       1.43028625       4.06845029       5.24995105      -0.10584208       0.09309016      -0.03304350
Si       1.25565048       0.02701567       1.80784667       0.05001154       0.15783183       0.20828978
Si       4.50110193       5.00929125       3.42701873       0.09701967      -0.03656512      -0.21970816
Si       3.08884494       5.10850053       6.51085114      -0.20462576      -0.05187342      -0.03506371
Si      -0.87907328       2.09574692       3.70099526       0.08213398       0.11898663      -0.09298104
20
Lattice="3.8108323732105465 0.44630667217080894 0.3871046222678497 1.6157899165399343 12.519128992615586 -0.48512233132653937 -1.0473291649595033 -6.7380252956887094 8.707687645806429" Properties=species:S:1:pos:R:3:forces:R:3 unique_starting_index=474 config_type=initial n_minim_iter=7 energy=-3255.5183539146183 stress="0.00582335840772226 0.0010206478913182722 0.0014066244524810014 0.0010206478913182722 -0.0007776585452291484 0.00022362010200275694 0.0014066244524810014 0.00022362010200275694 0.0015808110000436852" free_energy=-3255.5183539146183 pbc="T T T"
Si       0.53485636      -3.18475307       5.78165630       0.13092084       0.02227130       0.05756147
Si       2.49622665       5.64081632       1.95161011       0.10378220       0.02487339      -0.07876031
Si       4.24018860      10.99878797       2.80272005       0.05301799      -0.10747878       0.11110889
Si       2.51033971       0.11473269       7.68382103       0.04895556      -0.03675949       0.10216883
Si       3.20664474      -0.25348424       5.37016005      -0.25122570       0.23987425      -0.05385026
Si       3.59087419      10.77810323      -0.08768317      -0.04952062      -0.00903211       0.13036981
Si       4.01198601       7.26492020       2.78495205      -0.06714190      -0.06260029      -0.12405362
Si       1.20642208       0.73583582       4.28590416      -0.08388103       0.01739094      -0.01210272
Si       2.99779966       1.65902389       1.89347223       0.16991159       0.03706968      -0.16308738
Si       1.74421431       9.39377050       0.54378276      -0.06412131       0.28662294      -0.01825805
Si       0.93896057      -5.08218052       7.24998159       0.34284856      -0.08495670       0.11443376
Si       0.42198220       0.32910915       8.85799080      -0.04961856      -0.09329444      -0.07278852
Si       2.62589998       9.28591855       2.97394395      -0.00552039      -0.06669642       0.07653115
Si       2.25595722      -2.20571563       7.12953699      -0.03525419      -0.04429888      -0.04771627
Si      -1.16145128      -4.56890318       8.16720973      -0.05535226      -0.18087745       0.10894219
Si       1.47412282       4.09503753       5.31377653      -0.23466891       0.01455592      -0.10166117
Si       1.27932449       0.05350654       1.84667313      -0.02125789       0.00576186       0.16669064
Si       4.55745310       5.00218124       3.49979025       0.07018821      -0.14430393      -0.04351670
Si       3.11896602       5.11824029       6.59946314      -0.03372548      -0.03149927      -0.15088699
Si      -0.84428093       2.11416731       3.71831526       0.03166330       0.21337746      -0.00112474
20
Lattice="3.7857900675918215 0.4603580215733365 0.3799705717115555 1.6452976791021725 12.576068315782189 -0.4737792397045948 -1.08237284503437 -6.757704855782668 8.741906325669609" Properties=species:S:1:pos:R:3:forces:R:3 unique_starting_index=474 config_type=initial n_minim_iter=8 energy=-3255.5552890986173 stress="0.0013403739197282106 0.0024874527813406166 -0.0018892812609228155 0.0024874527813406166 0.0012965287166452591 -0.0001666527051187076 -0.0018892812609228155 -0.0001666527051187076 0.0024730375103714174" free_energy=-3255.5552890986173 pbc="T T T"
Si       0.51554302      -3.20440127       5.81688712       0.08216810       0.08615621      -0.08886611
Si       2.50423547       5.67143456       1.95599596       0.03440009      -0.01521682      -0.07420626
Si       4.23994102      11.04920472       2.83770311       0.06336895      -0.15563984       0.11558778
Si       2.47451722       0.12981541       7.72094662       0.00402121      -0.15077122      -0.02531439
Si       3.14047972      -0.21296461       5.39128006      -0.19919444       0.26154641      -0.02065165
Si       3.59247207      10.85981795      -0.06360015      -0.13553500      -0.04615063      -0.02289542
Si       4.00925450       7.29526218       2.79684918      -0.07892509       0.00783790      -0.14132950
Si       1.17979373       0.76193716       4.29333104      -0.08266283      -0.02520129       0.05096039
Si       2.98363055       1.67551897       1.89985379       0.13590243       0.14880096      -0.24614826
Si       1.74958503       9.43199923       0.55252119       0.06279480       0.32186169      -0.00752509
Si       0.92357152      -5.07588517       7.26598187       0.36036177      -0.38596777       0.13493136
Si       0.39341061       0.33829828       8.89266940       0.02486001       0.01365641       0.00296296
Si       2.62962253       9.32608218       3.01077106      -0.00362867       0.01413344       0.08201773
Si       2.22045569      -2.20639812       7.16114604      -0.00081535       0.05935512      -0.02178015
Si      -1.16837892      -4.59448400       8.20158969      -0.10397262      -0.10367057       0.24253108
Si       1.45395050       4.13573724       5.31580634      -0.32938966      -0.09061737       0.02393680
Si       1.26921649       0.07176539       1.86961021       0.08181226      -0.11385537       0.13989550
Si       4.54633743       5.02815587       3.50392869       0.04048564      -0.10813196      -0.17620210
Si       3.06840489       5.15603119       6.61439608       0.09533174       0.01802651       0.00554285
Si      -0.82908872       2.13951803       3.72386772      -0.05138336       0.26384818       0.02655248
20
Lattice="3.7877134308284184 0.4389301912469245 0.4010462966040184 1.5720463357491918 12.566144509707673 -0.4609365850078702 -0.9956427851461163 -6.748835435715321 8.722112365661523" Properties=species:S:1:pos:R:3:forces:R:3 unique_starting_index=474 config_type=initial n_minim_iter=9 energy=-3255.5823226116277 stress="0.0007889634848981726 -0.00127122625050784 -0.00034112804561427874 -0.00127122625050784 4.101553038882153e-05 0.0003935166475367658 -0.00034112804561427874 0.0003935166475367658 -0.000676363850561957" free_energy=-3255.5823226116277 pbc="T T T"
Si       0.57686196      -3.21957896       5.82304785      -0.00064460       0.14964958      -0.07958482
Si       2.49649854       5.65430948       1.96206250       0.01126666      -0.00743876      -0.13855561
Si       4.19593915      11.01170477       2.87756178       0.21711962      -0.07050958       0.07468703
Si       2.51664158       0.11346517       7.73060932       0.04950270      -0.17514927      -0.01828452
Si       3.14324627      -0.20399107       5.40537630      -0.22513093       0.26239838      -0.11681483
Si       3.52173912      10.86223569      -0.02158160       0.01552780      -0.14795855      -0.08431209
Si       3.99305128       7.25714290       2.81498998      -0.10355020       0.13229903      -0.12017880
Si       1.18938799       0.76936576       4.28464080      -0.06879859      -0.07268786       0.11877264
Si       2.99523483       1.66030552       1.91164838       0.18711312       0.09929172      -0.14287811
Si       1.69124714       9.41687471       0.56030726      -0.06356615       0.44105529      -0.00460332
Si       1.02242686      -5.06811781       7.25226797       0.20062909      -0.56075936       0.19137361
Si       0.43764779       0.33418865       8.87665530      -0.00489378       0.02178979       0.03661069
Si       2.59524846       9.30204120       3.04002188      -0.05870030      -0.09092884      -0.01056243
Si       2.27589285      -2.22319981       7.16853388       0.11017506       0.03555673       0.00593198
Si      -1.08312261      -4.60201858       8.18874581       0.05162208       0.05719194       0.06189332
Si       1.44670282       4.13776075       5.29075743      -0.32930573      -0.15971532       0.21776320
Si       1.28187608       0.07382090       1.89046666      -0.02989031      -0.15444062       0.16239572
Si       4.55202092       4.98879685       3.51876056      -0.05841497      -0.11684332      -0.26445785
Si       3.05263679       5.14095919       6.60917312       0.16127292       0.02242886       0.03613938
Si      -0.81054752       2.16110285       3.69973062      -0.06133351       0.33477017       0.07466483
20
Lattice="3.7735398643421445 0.44259006043731497 0.41772571330647323 1.57880935113055 12.568018079020936 -0.49352135686105525 -0.961328424226222 -6.775218236144142 8.769685590561187" Properties=species:S:1:pos:R:3:forces:R:3 unique_starting_index=474 config_type=initial n_minim_iter=10 energy=-3255.604152702863 stress="-0.002563772925002063 -0.0003449443778901244 0.0016580269928121293 -0.0003449443778901244 -0.00026136330285837745 -0.001298049539837715 0.0016580269928121293 -0.001298049539837715 0.0007003676203032378" free_energy=-3255.604152702863 pbc="T T T"
Si       0.59964268      -3.23849720       5.85940620       0.12840496       0.06807505      -0.03597494
Si       2.50591267       5.64969936       1.95831153       0.01163498      -0.01373065      -0.15180421
Si       4.20777044      11.00083674       2.88107722       0.21990720      -0.09066724       0.07547222
Si       2.54033746       0.08903816       7.77125848       0.12477536      -0.15271609      -0.02331217
Si       3.13790823      -0.20212461       5.43867694      -0.21280392       0.24580101      -0.10634871
Si       3.51614947      10.87190220      -0.03384273       0.08235823      -0.16611045      -0.20061579
Si       3.99776100       7.24932842       2.81764429      -0.09695366       0.11557694      -0.12728299
Si       1.19889223       0.76163427       4.30137294      -0.06954711      -0.06922049       0.13526638
Si       2.99801320       1.66007651       1.92382063       0.13982891       0.09294479      -0.09587541
Si       1.69390193       9.42193293       0.54023256      -0.10815996       0.41454436      -0.02034566
Si       1.05760216      -5.09314343       7.29907679       0.22292748      -0.43569788       0.13804266
Si       0.47339722       0.30700269       8.90805329      -0.06878930       0.06269504       0.06593657
Si       2.60796194       9.29024734       3.04038330      -0.05362230      -0.05989362       0.02106572
Si       2.29722482      -2.24298205       7.21344196       0.03849883      -0.00474138       0.03224882
Si      -1.04181366      -4.63203457       8.23023550      -0.02593882       0.10271359       0.01394185
Si       1.45850899       4.12452447       5.29814108      -0.24532791      -0.07007536       0.17133537
Si       1.28576821       0.07074567       1.91187376       0.01085304      -0.12880683       0.17363027
Si       4.55727061       4.97631521       3.52876825      -0.07388541      -0.11697729      -0.18188717
Si       3.06749949       5.12464721       6.62602130       0.03482530      -0.08695094       0.10611549
Si      -0.78520415       2.16011142       3.69858038      -0.05898591       0.29323744       0.01039172
20
Lattice="3.753552492262549 0.4441271004184953 0.4216329080554879 1.5700699502207334 12.565369078547686 -0.4365666072243158 -0.951750093006485 -6.736021652938363 8.746511970451895" Properties=species:S:1:pos:R:3:forces:R:3 unique_starting_index=474 config_type=initial n_minim_iter=11 energy=-3255.6843084565676 stress="-0.0076338058055948725 0.00011030369342840716 0.0008232885400567865 0.00011030369342840716 -0.00012880268111466393 0.0006284752515760724 0.0008232885400567865 0.0006284752515760724 -0.001375845378774483" free_energy=-3255.6843084565676 pbc="T T T"
Si       0.61330283      -3.21962071       5.85945444       0.19607801      -0.09440992       0.13269125
Si       2.50854864       5.65290615       1.96622799      -0.03390958      -0.05488781      -0.15024888
Si       4.20586222      10.98905396       2.96385532       0.20468494      -0.10018920       0.06782083
Si       2.53684603       0.10267291       7.78556613       0.00536910      -0.12917590      -0.04221493
Si       3.06617531      -0.12380726       5.43859763      -0.04732253       0.18530078      -0.08130525
Si       3.48803523      10.88876898       0.02603239       0.02427641      -0.03483199      -0.27064675
Si       3.97688065       7.25223491       2.83938766      -0.09578573       0.15119639      -0.11594784
Si       1.17544079       0.79022556       4.30704563      -0.20390947       0.03540707       0.11449374
Si       3.00165915       1.67467001       1.92493875      -0.01361589       0.05622925       0.17586390
Si       1.66778714       9.45625826       0.58048088      -0.09556668       0.08068370      -0.04948831
Si       1.10683546      -5.09215728       7.29134192      -0.07459951      -0.13416890       0.06360112
Si       0.46639580       0.34281198       8.91325305       0.07102512       0.32417964       0.09885015
Si       2.59039145       9.28454143       3.10653246      -0.00521822       0.03549309      -0.01145038
Si       2.30033883      -2.21742433       7.22031713       0.05016324      -0.06039894       0.04209263
Si      -1.00805962      -4.60642227       8.22124732       0.21599428       0.13857527      -0.14074487
Si       1.41314300       4.15096673       5.31163500      -0.06990884      -0.06741900       0.17179671
Si       1.28626196       0.08005564       1.95234011       0.13544831      -0.16790554       0.04144572
Si       4.54413796       4.96361850       3.52224314      -0.10527290      -0.11491649      -0.07551299
Si       3.02883933       5.14853322       6.64192104      -0.10503409      -0.24480278       0.16175078
Si      -0.77107044       2.22265342       3.69539295      -0.05289597       0.19604129      -0.13284664
20
Lattice="3.7656920570800496 0.4384182007218966 0.43177876432658974 1.5582694024020383 12.527425627530468 -0.426357373032921 -0.9259288745083813 -6.7102986118375485 8.75787142263049" Properties=species:S:1:pos:R:3:forces:R:3 unique_starting_index=474 config_type=initial n_minim_iter=12 energy=-3255.7411861156465 stress="-0.005048921322463514 0.0002633117502426368 0.0005782568776659151 0.0002633117502426368 -0.00022633002462801844 0.0005739263873567463 0.0005782568776659151 0.0005739263873567463 -0.0007818577258924453" free_energy=-3255.7411861156465 pbc="T T T"