20
Lattice="6.851570000000001 -4.114028593505666e-31 -3.228150801961641e-31 3.4257850000000003 7.840488504239966 4.339255830492373e-13 3.425785000000001 1.6430481782542012 7.666397633116522" Properties=species:S:1:pos:R:3:forces:R:3 unique_starting_index=268 config_type=initial n_minim_iter=1 energy=-3131.335698283744 stress="-0.6538954752507967 -0.43470768814686345 -0.48292660786193115 0.11249378347578733 -2.337200516169939e-12 1.4992331451488285e-12" pbc="T T T"
Si       9.71068597       7.13423258       6.62135724      10.20261421       2.47895065      21.16051141
Si       6.28490097       7.09107245       4.87823921      10.20261421      -2.47895065     -21.16051141
Si      10.84402335       6.25592336       5.91134072     -10.20261421     -21.21014907       2.01047655
Si       7.41823835       7.96938166       5.58825573     -10.20261421      21.21014907      -2.01047655
Si       3.99245335       2.34930410       1.04504039     -10.20261421      -2.47895065     -21.16051141
Si       7.41823835       2.39246424       2.78815842     -10.20261421       2.47895065      21.16051141
Si       2.85911597       3.22761332       1.75505691      10.20261421      21.21014907      -2.01047655
Si       6.28490097       1.51415502       2.07814190      10.20261421     -21.21014907       2.01047655
Si       9.02297367       7.68125034       5.28426389      10.48060096       8.05477036     -22.77871402
Si       5.59718867       6.54405469       6.21533256      10.48060096      -8.05477036      22.77871402
Si      11.53173565       7.44869506       5.09626849     -10.48060096      20.58498056     -12.64941552
Si       8.10595065       6.77660997       6.40332796     -10.48060096     -20.58498057      12.64941552
Si       4.68016565       1.80228634       2.38213374     -10.48060096      -8.05477036      22.77871402
Si       8.10595065       2.93948200       1.45106507     -10.48060096       8.05477036     -22.77871402
Si       2.17140367       2.03484163       2.57012914      10.48060096     -20.58498057      12.64941552
Si       5.59718867       2.70692672       1.26306967      10.48060096      20.58498057     -12.64941552
Si       5.13867716       0.92361871       0.74664427       0.00000000       1.41062617       1.14033630
Si       8.56446216       8.55991797       6.91975337      -0.00000000      -1.41062617      -1.14033630
Si       8.56446216       3.81814963       3.08655455       0.00000000      -1.41062617      -1.14033630
Si       5.13867716       5.66538705       4.57984308       0.00000000       1.41062618       1.14033631
20
Lattice="7.038588188321005 1.6495801152087236e-17 -5.023149366260706e-17 3.5192940941605024 7.982205236163737 -0.037017250229917906 3.5192940941605033 1.6365509375137197 7.812724987990895" Properties=species:S:1:pos:R:3:forces:R:3 unique_starting_index=268 config_type=initial n_minim_iter=2 energy=-3145.9246400623283 stress="-0.5052135502580553 -0.34406162715588245 -0.39498514247605165 0.11880355137505832 -1.14492091129187e-12 1.6216665068378826e-12" pbc="T T T"
Si       9.97679375       7.23216476       6.72291255       8.03970027       2.14456300      17.43448615
Si       6.45749966       7.19596951       4.94064906       8.03970027      -2.14456300     -17.43448615
Si      11.13897011       6.33892962       6.00083007      -8.03970027     -17.49678271       1.55661576
Si       7.61967602       8.08920464       5.66273154      -8.03970027      17.49678271      -1.55661576
Si       4.10038192       2.38659142       1.05279519      -8.03970027      -2.14456300     -17.43448615
Si       7.61967602       2.42278667       2.83505868      -8.03970027       2.14456300      17.43448615
Si       2.93820556       3.27982656       1.77487767       8.03970027      17.49678271      -1.55661576
Si       6.45749966       1.52955153       2.11297620       8.03970027     -17.49678271       1.55661576
Si       9.27033844       7.79597107       5.35187786       8.15373643       6.53265953     -18.56101500
Si       5.75104435       6.63216319       6.31168375       8.15373643      -6.53265953      18.56101500
Si      11.84542542       7.56137082       5.16222933      -8.15373643      16.77990435     -10.27724324
Si       8.32613133       6.86676344       6.50133228      -8.15373643     -16.77990435      10.27724324
Si       4.80683723       1.82278510       2.42382988      -8.15373643      -6.53265953      18.56101500
Si       8.32613133       2.98659299       1.46402399      -8.15373643       6.53265953     -18.56101500
Si       2.23175025       2.05738535       2.61347841       8.15373643     -16.77990435      10.27724324
Si       5.75104435       2.75199274       1.27437546       8.15373643      16.77990435     -10.27724324
Si       5.27894079       0.93693106       0.75740584      -0.00000000       3.00387543       2.42830331
Si       8.79823488       8.68182512       7.01830190      -0.00000000      -3.00387543      -2.42830331
Si       8.79823488       3.87244703       3.13044803       0.00000000      -3.00387543      -2.42830331
Si       5.27894079       5.74630914       4.64525970       0.00000000       3.00387543       2.42830331
20
Lattice="8.028507114753246 -6.887413096889175e-17 8.28158695152362e-17 4.014253557376623 8.736034102309917 -0.3130524365097046 4.014253557376624 1.5246167955223024 8.607661546061031" Properties=species:S:1:pos:R:3:forces:R:3 unique_starting_index=268 config_type=initial n_minim_iter=3 energy=-3199.7623314838384 stress="-0.2263631714409167 -0.15008020196982502 -0.18989267096747892 0.09288170064921739 -1.9900000547597795e-13 3.307162590111239e-14" pbc="T T T"
Si      11.38568405       7.68589258       7.22037585       3.05832559       0.74554332      10.61130071
Si       7.37143049       7.70508377       5.22153782       3.05832559      -0.74554332     -10.61130071
Si      12.69983649       6.72027119       6.43977703      -3.05832559     -10.53192211       1.49470875
Si       8.68558294       8.67070516       6.00213664      -3.05832559      10.53192211      -1.49470875
Si       4.67132938       2.57475832       1.07423326      -3.05832559      -0.74554332     -10.61130071
Si       8.68558294       2.55556713       3.07307129      -3.05832559       0.74554332      10.61130071
Si       3.35717693       3.54037971       1.85483208       3.05832559      10.53192211      -1.49470875
Si       7.37143049       1.58994574       2.29247247       3.05832559     -10.53192211       1.49470875
Si      10.57995305       8.35350750       5.65609081       2.03310103       2.47314160      -8.67328624
Si       6.56569949       7.03746885       6.78582286       2.03310103      -2.47314160       8.67328624
Si      13.50556749       8.10991772       5.45917523      -2.03310103       7.96243375      -4.23579654
Si       9.49131393       7.28105862       6.98273843      -2.03310103      -7.96243375       4.23579654
Si       5.47706038       1.90714340       2.63851830      -2.03310103      -2.47314160       8.67328624
Si       9.49131393       3.22318205       1.50878625      -2.03310103       2.47314160      -8.67328624
Si       2.55144594       2.15073318       2.83543388       2.03310103      -7.96243375       4.23579654
Si       6.56569949       2.97959228       1.31187068       2.03310103       7.96243375      -4.23579654
Si       6.02137994       1.00141002       0.80952999      -0.00000000      -0.38319434      -0.30977053
Si      10.03563349       9.25924088       7.48507912      -0.00000000       0.38319434       0.30977053
Si      10.03563349       4.12891543       3.33777456      -0.00000000       0.38319434       0.30977053
Si       6.02137994       6.13173547       4.95683455      -0.00000000      -0.38319434      -0.30977053
20
Lattice="9.91042665865227 -2.544953773423532e-16 5.977427291357222e-16 4.955213329326134 10.114748603332094 -1.2602780333395265 4.955213329326137 0.8873460793386025 10.154262994693857" Properties=species:S:1:pos:R:3:forces:R:3 unique_starting_index=268 config_type=initial n_minim_iter=4 energy=-3236.4877470769675 stress="-0.005472882665248497 -0.023837361609663665 -0.019609610889699435 -0.009863258587580392 -2.4234671842834654e-13 4.1395603820577926e-13" pbc="T T T"
Si      14.06247893       8.13706582       7.89321254      -2.90876993       1.46827925       1.91765281
Si       9.10726560       8.36607621       5.44776490      -2.90876993      -1.46827925      -1.91765281
Si      15.66880005       7.07999230       7.03868472       2.90876993      -2.18276483      -1.03381526
Si      10.71358672       9.42314973       6.30229272       2.90876993       2.18276483       1.03381526
Si       5.75837339       2.86502886       1.00077242       2.90876993      -1.46827925      -1.91765281
Si      10.71358672       2.63601848       3.44622006       2.90876993       1.46827925       1.91765281
Si       4.15205227       3.92210239       1.85530024      -2.90876993       2.18276483       1.03381526
Si       9.10726560       1.57894495       2.59169224      -2.90876993      -2.18276483      -1.03381526
Si      13.06522002       9.07686245       5.90591430      -0.34681228      -0.28270817      -1.28573213
Si       8.11000669       7.42627957       7.43506315      -0.34681228       0.28270817       1.28573213
Si      16.66605897       8.82622117       5.70329835       0.34681228       1.31642778       0.00699362
Si      11.71084564       7.67692085       7.63767909       0.34681228      -1.31642778      -0.00699362
Si       6.75563231       1.92523223       2.98807067       0.34681228       0.28270817       1.28573212
Si      11.71084564       3.57581511       1.45892182       0.34681228      -0.28270817      -1.28573213
Si       3.15479336       2.17587351       3.19068661      -0.34681228      -1.31642778      -0.00699362
Si       8.11000669       3.32517383       1.25630587      -0.34681228       1.31642778       0.00699362
Si       7.43281950       1.07303629       0.86743197      -0.00000000      -1.91930251      -1.55154524
Si      12.38803283       9.92905839       8.02655299      -0.00000000       1.91930251       1.55154524
Si      12.38803283       4.42801105       3.57956051       0.00000000       1.91930251       1.55154524
Si       7.43281950       6.57408363       5.31442445      -0.00000000      -1.91930251      -1.55154524
20
Lattice="10.002293003712854 6.258436672110862e-17 2.0184913588421138e-16 5.001146501856425 10.509235711038379 -1.128340845564161 5.001146501856429 1.0990222098303486 10.512342197447357" Properties=species:S:1:pos:R:3:forces:R:3 unique_starting_index=268 config_type=initial n_minim_iter=5 energy=-3238.250128617198 stress="0.005333777561174369 -0.007830607605169952 -0.005763007541457525 -0.004823669945230996 -4.087224843445847e-13 -2.641082940531203e-13" pbc="T T T"
Si      14.18276955       8.61099252       8.30509510      -2.57772050       1.04444934       1.17504146
Si       9.18162305       8.80139437       5.77090693      -2.57772050      -1.04444934      -1.17504146
Si      15.82410846       7.48718427       7.39661959       2.57772050      -1.36782493      -0.77501730
Si      10.82296196       9.92520262       6.67938244       2.57772050       1.36782493       0.77501730
Si       5.82181546       2.99726541       1.07890625       2.57772050      -1.04444934      -1.17504146
Si      10.82296196       2.80686356       3.61309443       2.57772050       1.04444934       1.17504146
Si       4.18047654       4.12107366       1.98738177      -2.57772050       1.36782493       0.77501730
Si       9.18162305       1.68305531       2.70461891      -2.57772050      -1.36782493      -0.77501730
Si      13.18513033       9.55231129       6.25798125      -0.70123998      -0.11461600      -0.08302828
Si       8.18398383       7.86007559       7.81802078      -0.70123998       0.11461600       0.08302828
Si      16.82174768       9.29158162       6.04720995       0.70123998       0.10520357       0.09467170
Si      11.82060118       8.12080527       8.02879207       0.70123998      -0.10520357      -0.09467170
Si       6.81945468       2.05594663       3.12602010       0.70123998       0.11461600       0.08302828
Si      11.82060118       3.74818233       1.56598058       0.70123998      -0.11461600      -0.08302828
Si       3.18283733       2.31667630       3.33679140      -0.70123998      -0.10520357      -0.09467170
Si       8.18398383       3.48745266       1.35520928      -0.70123998       0.10520357       0.09467170
Si       7.50171925       1.12768981       0.91161333       0.00000000      -0.36912258      -0.29839506
Si      12.50286576      10.48056811       8.47238802      -0.00000000       0.36912258       0.29839506
Si      12.50286576       4.67643915       3.78038734       0.00000000       0.36912258       0.29839506
Si       7.50171925       6.93181877       5.60361401      -0.00000000      -0.36912258      -0.29839506
20
Lattice="9.870710054604121 -9.433656067248138e-16 8.820799003985002e-18 4.935355027302058 10.702575326773065 -1.0166790398044872 4.935355027302061 1.2487208040146187 10.677989101364094" Properties=species:S:1:pos:R:3:forces:R:3 unique_starting_index=268 config_type=initial n_minim_iter=6 energy=-3238.921826007994 stress="0.0067342440833220605 -0.002624436047341996 -0.001796466168583364 -0.0019316373078023328 4.589600132707573e-13 -7.432765296866461e-14" pbc="T T T"
Si      13.98414581       8.88513049       8.53464077      -2.15387388       0.91574752       1.01173910
Si       9.04879078       9.04181371       5.95732433      -2.15387388      -0.91574751      -1.01173910
Si      15.62798337       7.71984458       7.59263511       2.15387388      -1.18117787      -0.68339473
Si      10.69262834      10.20709962       6.89932998       2.15387388       1.18117787       0.68339473
Si       5.75727331       3.06616564       1.12666930       2.15387388      -0.91574751      -1.01173910
Si      10.69262834       2.90948243       3.70398574       2.15387388       0.91574752       1.01173910
Si       4.11343576       4.23145156       2.06867495      -2.15387388       1.18117787       0.68339473
Si       9.04879078       1.74419651       2.76198008      -2.15387388      -1.18117787      -0.68339473
Si      13.00839944       9.81636086       6.46469632      -0.63832140       0.01624546       0.22501083
Si       8.07304441       8.11058334       8.02726877      -0.63832140      -0.01624546      -0.22501083
Si      16.60372974       9.54867971       6.24830552       0.63832140      -0.22341906       0.03126840
Si      11.66837471       8.37826449       8.24365958       0.63832140       0.22341906      -0.03126840
Si       6.73301968       2.13493527       3.19661374       0.63832140      -0.01624546      -0.22501083
Si      11.66837471       3.84071279       1.63404129       0.63832140       0.01624546       0.22501083
Si       3.13768939       2.40261642       3.41300454      -0.63832140       0.22341906      -0.03126840
Si       8.07304441       3.57303164       1.41765049      -0.63832140      -0.22341906       0.03126840
Si       7.40303205       1.15974930       0.93752991       0.00000000       0.29100082       0.23524219
Si      12.33838708      10.79154683       8.72378015      -0.00000000      -0.29100082      -0.23524219
Si      12.33838708       4.81589877       3.89312512       0.00000000      -0.29100082      -0.23524219
Si       7.40303205       7.13539737       5.76818494      -0.00000000       0.29100082       0.23524219
20
Lattice="9.61882099846896 -1.1186692014577093e-15 2.4225290744994496e-16 4.8094104992344775 10.803633907654614 -0.9437080542423856 4.809410499234481 1.3412493126428129 10.761512011961964" Properties=species:S:1:pos:R:3:forces:R:3 unique_starting_index=268 config_type=initial n_minim_iter=7 energy=-3239.3980029505383 stress="-0.0007055618020522479 -0.0023835528960360775 -0.002407976216869438 5.697911589522348e-05 -1.2946448560915943e-14 1.683639751979869e-13" pbc="T T T"
Si      13.61262579       9.04381646       8.66626865      -1.31119015       0.78374089       1.06693396
Si       8.80321529       9.17350837       6.06043729      -1.31119015      -0.78374089      -1.06693396
Si      15.24383624       7.84826587       7.69979733       1.31119015      -1.20748395      -0.54275259
Si      10.43442575      10.36905896       7.02690861       1.31119015       1.20748395       0.54275259
Si       5.62501525       3.10106676       1.15153531       1.31119015      -0.78374089      -1.06693396
Si      10.43442575       2.97137485       3.75736667       1.31119015       0.78374089       1.06693396
Si       3.99380479       4.29661735       2.11800663      -1.31119015       1.20748395       0.54275259
Si       8.80321529       1.77582426       2.79089535      -1.31119015      -1.20748395      -0.54275259
Si      12.67209531       9.96420681       6.58454730      -0.09624320       0.09205631       0.08390519
Si       7.86268481       8.25311802       8.14215863      -0.09624320      -0.09205631      -0.08390519
Si      16.18436673       9.69088803       6.36359910       0.09624320      -0.10133342      -0.07242916
Si      11.37495623       8.52643680       8.36310684       0.09624320       0.10133342       0.07242916
Si       6.56554573       2.18067641       3.23325665       0.09624320      -0.09205631      -0.08390519
Si      11.37495623       3.89176520       1.67564532       0.09624320       0.09205631       0.08390519
Si       3.05327431       2.45399519       3.45420486      -0.09624320       0.10133342       0.07242916
Si       7.86268481       3.61844642       1.45469712      -0.09624320      -0.10133342      -0.07242916
Si       7.21411527       1.18011548       0.95399373       0.00000000       0.44027595       0.35591474
Si      12.02352577      10.96476774       8.86381023      -0.00000000      -0.44027595      -0.35591474
Si      12.02352577       4.89232613       3.95490825      -0.00000000      -0.44027595      -0.35591474
Si       7.21411527       7.25255709       5.86289571       0.00000000       0.44027595       0.35591474
20
Lattice="9.647401123238955 -1.418577381337551e-15 2.410678842462633e-15 4.823700561619474 10.912689378128045 -0.9559268155543966 4.823700561619481 1.3521554582537285 10.870706561991225" Properties=species:S:1:pos:R:3:forces:R:3 unique_starting_index=268 config_type=initial n_minim_iter=8 energy=-3239.5993969954443 stress="0.0009136133143656867 0.0010755444630675608 0.0010649526394591342 2.4710518888754578e-05 -3.217228029852514e-13 1.7353641891931125e-15" pbc="T T T"
Si      13.64343180       9.13709631       8.75953021      -1.20185935       0.72501884       0.79710133
Si       8.81973123       9.26017094       6.11263941      -1.20185935      -0.72501884      -0.79710133
Si      15.29877061       7.91746985       7.77359619       1.20185935      -0.93133695      -0.54188037
Si      10.47507005      10.47979741       7.09857343       1.20185935       0.93133695       0.54188037
Si       5.65136949       3.12774853       1.15524954       1.20185935      -0.72501884      -0.79710133
Si      10.47507005       3.00467389       3.80214033       1.20185935       0.72501884       0.79710133
Si       3.99603067       4.34737499       2.14118356      -1.20185935       0.93133695       0.54188037
Si       8.81973123       1.78504743       2.81620632      -1.20185935      -0.93133695      -0.54188037
Si      12.70903989      10.06353961       6.64967805      -0.13525309       0.05850639       0.41053568
Si       7.88533933       8.33372764       8.22249157      -0.13525309      -0.05850640      -0.41053568
Si      16.23316252       9.78632976       6.42558433       0.13525309      -0.41368068       0.02882430
Si      11.40946195       8.61093750       8.44658529       0.13525309       0.41368068      -0.02882430
Si       6.58576139       2.20130522       3.26510170       0.13525309      -0.05850640      -0.41053568
Si      11.40946195       3.93111720       1.69228817       0.13525309       0.05850639       0.41053568
Si       3.06163877       2.47851508       3.48919542      -0.13525309       0.41368068      -0.02882430
Si       7.88533933       3.65390734       1.46819446      -0.13525309      -0.41368068       0.02882430
Si       7.23555036       1.19448440       0.96560942      -0.00000000       0.67699267       0.54727420
Si      12.05925092      11.07036043       8.94917032       0.00000000      -0.67699267      -0.54727420
Si      12.05925092       4.93793802       3.99178045       0.00000000      -0.67699267      -0.54727420
Si       7.23555036       7.32690682       5.92299930       0.00000000       0.67699267       0.54727420
20
Lattice="9.61978572577321 -1.0476807961138132e-15 3.4896081859815803e-15 4.809892862886602 10.875998797005115 -0.9535812449483234 4.80989286288661 1.3467600909232975 10.834339125238323" Properties=species:S:1:pos:R:3:forces:R:3 unique_starting_index=268 config_type=initial n_minim_iter=9 energy=-3239.7120860436453 stress="-0.002018868812102061 -0.000930918990401699 -0.0009938046586697553 0.00014671101531608526 -4.359282102906251e-13 -7.02085503523573e-14" pbc="T T T"
Si      13.59793406       9.10871705       8.73345109      -0.91331460       0.59081302       0.85361331
Si       8.78804119       9.22542128       6.08768573      -0.91331460      -0.59081302      -0.85361331
Si      15.26142216       7.88578812       7.74484739       0.91331460      -0.95847003      -0.39881185
Si      10.45152930      10.44835022       7.07628943       0.91331460       0.95847004       0.39881185
Si       5.64163644       3.11404184       1.14730679       0.91331460      -0.59081302      -0.85361331
Si      10.45152930       2.99733761       3.79307215       0.91331460       0.59081302       0.85361331
Si       3.97814833       4.33697077       2.13591049      -0.91331460       0.95847003       0.39881185
Si       8.78804119       1.77440867       2.80446845      -0.91331460      -0.95847003      -0.39881185
Si      12.67193548      10.02904693       6.62899409      -0.01997267       0.05379481       0.21373001
Si       7.86204262       8.30509140       8.19214273      -0.01997267      -0.05379481      -0.21373001
Si      16.18742074       9.75065379       6.40394382       0.01997267      -0.22025754      -0.00781121
Si      11.37752788       8.58348455       8.41719300       0.01997267       0.22025754       0.00781121
Si       6.56763501       2.19371196       3.25176379       0.01997267      -0.05379481      -0.21373001
Si      11.37752788       3.91766749       1.68861515       0.01997267       0.05379481       0.21373001
Si       3.05214975       2.47210510       3.47681406      -0.01997267       0.22025754       0.00781121
Si       7.86204262       3.63927434       1.46356488      -0.01997267      -0.22025754      -0.00781121
Si       7.21483881       1.19344595       0.96476995      -0.00000000       0.45361493       0.36669784
Si      12.02473168      11.02931294       8.91598793      -0.00000000      -0.45361493      -0.36669784
Si      12.02473168       4.91793349       3.97560899      -0.00000000      -0.45361493      -0.36669784
Si       7.21483881       7.30482540       5.90514889      -0.00000000       0.45361493       0.36669784
20
Lattice="9.66436442903424 6.681093125899091e-16 4.023450960818931e-15 4.832182214517119 10.899531491742875 -0.9594161841288048 4.832182214517126 1.3459862089513956 10.858572064464797" Properties=species:S:1:pos:R:3:forces:R:3 unique_starting_index=268 config_type=initial n_minim_iter=10 energy=-3239.7837209906806 stress="-0.000727563080987942 -5.019398130496525e-05 -3.705104901184298e-05 -3.06621996134783e-05 3.539956339117678e-13 -5.161338290346666e-13" pbc="T T T"
Si      13.65733296       9.12692178       8.75344340      -0.96115441       0.55580482       0.76115128
Si       8.82515074       9.24135477       6.09529042      -0.96115441      -0.55580482      -0.76115128
Si      15.33575937       7.89656297       7.75883346       0.96115441      -0.86072474      -0.38395726
Si      10.50357715      10.47171358       7.08990036       0.96115441       0.86072474       0.38395726
Si       5.67139494       3.11859592       1.14571248       0.96115441      -0.55580482      -0.76115128
Si      10.50357715       3.00416293       3.80386546       0.96115441       0.55580482       0.76115128
Si       3.99296853       4.34895473       2.14032242      -0.96115441       0.86072474       0.38395726
Si       8.82515074       1.77380412       2.80925552      -0.96115441      -0.86072474      -0.38395726
Si      12.73057899      10.04828032       6.64157763      -0.12229959       0.04368468       0.32286051
Si       7.89839678       8.31999623       8.20715619      -0.12229959      -0.04368468      -0.32286051
Si      16.26251333       9.76845733       6.41537149       0.12229959      -0.32484622       0.02494375
Si      11.43033112       8.59981922       8.43336233       0.12229959       0.32484622      -0.02494375
Si       6.59814890       2.19723738       3.25757825       0.12229959      -0.04368468      -0.32286051
Si      11.43033112       3.92552147       1.69199969       0.12229959       0.04368468       0.32286051
Si       3.06621456       2.47706037       3.48378439      -0.12229959       0.32484622      -0.02494375
Si       7.89839678       3.64569848       1.46579355      -0.12229959      -0.32484622       0.02494375
Si       7.24827284       1.19717683       0.96778596      -0.00000000       0.48807622       0.39455601
Si      12.08045505      11.04834087       8.93136992      -0.00000000      -0.48807622      -0.39455601
Si      12.08045505       4.92558202       3.98179198      -0.00000000      -0.48807622      -0.39455601
Si       7.24827284       7.31993569       5.91736390      -0.00000000       0.48807622       0.39455601
20
Lattice="9.683218455048875 -1.519738175839335e-16 9.638183826017321e-16 4.841609227524437 10.900918349515656 -0.9586160534560041 4.84160922752444 1.3470592025574275 10.859760453414976" Properties=species:S:1:pos:R:3:forces:R:3 unique_starting_index=268 config_type=initial n_minim_iter=11 energy=-3239.8562234772085 stress="-0.0010328189987536822 -0.00025339863604660677 -0.00023152003860089918 -5.1042338488755664e-05 2.989091000509518e-13 -5.121582756825859e-13" pbc="T T T"
Si      13.67953788       9.13076512       8.75831233      -0.89153740       0.48913796       0.73370348
Si       8.83792865       9.24120121       6.09340427      -0.89153741      -0.48913796      -0.73370348
Si      15.37011652       7.89468652       7.75907857       0.89153740      -0.81991573      -0.32452263
Si      10.52850729      10.47727981       7.09263803       0.89153740       0.81991573       0.32452263
Si       5.68689806       3.11721244       1.14283207       0.89153740      -0.48913796      -0.73370348
Si      10.52850729       3.00677634       3.80774013       0.89153740       0.48913796       0.73370348
Si       3.99631943       4.35329103       2.14206583      -0.89153740       0.81991573       0.32452263
Si       8.83792865       1.77069774       2.80850637      -0.89153740      -0.81991573      -0.32452263
Si      12.75485002      10.05011505       6.64459520      -0.14941469       0.04046300       0.31672179
Si       7.91324079       8.32185128       8.20712140      -0.14941469      -0.04046300      -0.31672179
Si      16.29480438       9.76881206       6.41719264       0.14941469      -0.31816868       0.02680748
Si      11.45319515       8.60315427       8.43452396       0.14941469       0.31816868      -0.02680748
Si       6.61158592       2.19786251       3.25654920       0.14941469      -0.04046300      -0.31672179
Si      11.45319515       3.92612627       1.69402300       0.14941469       0.04046300       0.31672179
Si       3.07163156       2.47916549       3.48395176      -0.14941469       0.31816868      -0.02680748
Si       7.91324079       3.64482329       1.46662044      -0.14941469      -0.31816868       0.02680748
Si       7.26241336       1.19930296       0.96950470      -0.00000000       0.43370684       0.35060434
Si      12.10402259      11.04867459       8.93163970      -0.00000000      -0.43370684      -0.35060434
Si      12.10402259       4.92468582       3.98106750      -0.00000000      -0.43370684      -0.35060434
Si       7.26241336       7.32329174       5.92007690       0.00000000       0.43370684       0.35060434
20
Lattice="9.793270965436687 -1.7212708032774442e-15 6.899486165090429e-16 4.896635482718341 10.9306502280394 -0.954943317357254 4.896635482718345 1.3568809839601257 10.88806250636312" Properties=species:S:1:pos:R:3:forces:R:3 unique_starting_index=268 config_type=initial n_minim_iter=12 energy=-3240.111747893246 stress="-0.0009137165811134148 -0.0002444891028886769 -8.683089369286207e-05 -0.00036781347878324096 9.308688699554033e-13 4.8165262223929905e-14" pbc="T T T"
Si      13.81800410       9.16764610       8.79860333      -0.77488168       0.28718822       0.60211426
Si       8.92136861       9.26365073       6.10107546      -0.77488168      -0.28718822      -0.60211426
Si      15.56180782       7.90689188       7.77942204       0.77488168      -0.64892786      -0.15463276
Si      10.66517234      10.52440494       7.12025674       0.77488168       0.64892786       0.15463276
Si       5.76853686       3.11988512       1.13451586       0.77488168      -0.28718822      -0.60211426
Si      10.66517234       3.02388049       3.83204373       0.77488168       0.28718822       0.60211426
Si       4.02473313       4.38063933       2.15369715      -0.77488168       0.64892786       0.15463276
Si       8.92136861       1.76312627       2.81286245      -0.77488168      -0.64892786      -0.15463276
Si      12.89696248      10.08145322       6.67323118      -0.37884843       0.03311985       0.40916016
Si       8.00032700       8.34984360       8.22644760      -0.37884843      -0.03311985      -0.40916016
Si      16.48284943       9.79357520       6.44051343       0.37884843      -0.40701571       0.05335891