4
Lattice="4.190758212686589 0.0 0.0 0.0 4.190758212686589 0.0 0.0 0.0 4.190758212686589" Properties=species:S:1:pos:R:3 n_minim_iter=1 stress="0.05655896259967276 -7.396550252589505e-18 -3.0023704351658834e-18 -7.396550252589505e-18 0.056558962599672746 -1.075607896760259e-18 -3.0023704351658834e-18 -1.075607896760259e-18 0.05655896259967278" pbc="T T T"
Al       0.00000000       0.00000000       0.00000000
Al       2.09537911       2.09537911       0.00000000
Al       2.09537911       0.00000000       2.09537911
Al       0.00000000       2.09537911       2.09537911
