4
Lattice="4.065585427259414 0.0 0.0 0.0 4.065585427259414 0.0 0.0 0.0 4.065585427259414" Properties=species:S:1:pos:R:3 n_minim_iter=1 stress="0.018804766641763858 -1.0703637566069746e-17 3.31004154232609e-19 -1.0703637566069746e-17 0.018804766641763896 -6.814827301868595e-19 3.31004154232609e-19 -6.814827301868595e-19 0.018804766641764073" pbc="T T T"
Al       0.00000000       0.00000000       0.00000000
Al       2.03279271       2.03279271       0.00000000
Al       2.03279271       0.00000000       2.03279271
Al       0.00000000       2.03279271       2.03279271
