4
Lattice="4.190758212686589 0.0 0.0 0.0 4.190758212686589 0.0 0.0 0.0 4.190758212686589" Properties=species:S:1:pos:R:3 n_minim_iter=1 stress="0.05044152612538866 -7.834754257640374e-18 1.0220915941973674e-19 -7.834754257640374e-18 0.050441526125388686 -5.087257204618065e-19 1.0220915941973674e-19 -5.087257204618065e-19 0.0504415261253888" pbc="T T T"
Al       0.00000000       0.00000000       0.00000000
Al       2.09537911       2.09537911       0.00000000
Al       2.09537911       0.00000000       2.09537911
Al       0.00000000       2.09537911       2.09537911
