4
Lattice="3.8619575384225184 0.0 0.0 0.0 3.8619575384225184 0.0 0.0 0.0 3.8619575384225184" Properties=species:S:1:pos:R:3 n_minim_iter=1 stress="-0.060230662565055756 -3.8052042575389704e-17 8.876853361919953e-18 -3.8052042575389704e-17 -0.060230662565055666 1.605974467994154e-17 8.876853361919953e-18 1.605974467994154e-17 -0.060230662565056" pbc="T T T"
Al       0.00000000       0.00000000       0.00000000
Al       1.93097877       1.93097877       0.00000000
Al       1.93097877       0.00000000       1.93097877
Al       0.00000000       1.93097877       1.93097877
