4
Lattice="4.308869380063768 0.0 0.0 0.0 4.308869380063768 0.0 0.0 0.0 4.308869380063768" Properties=species:S:1:pos:R:3 n_minim_iter=1 stress="0.0677554059614179 -1.55223988700015e-18 -3.53714444167695e-18 -1.55223988700015e-18 0.06775540596141792 9.681639099660897e-18 -3.53714444167695e-18 9.681639099660897e-18 0.06775540596141802" pbc="T T T"
Al       0.00000000       0.00000000       0.00000000
Al       2.15443469       2.15443469       0.00000000
Al       2.15443469       0.00000000       2.15443469
Al       0.00000000       2.15443469       2.15443469
