12
Lattice="5.676290819462656 8.916710518923042e-08 -9.995676030864154e-07 8.916711047527348e-08 5.675336026405161 -6.448301286005449e-08 -1.2594551723369616e-06 -8.12485934197289e-08 6.8495641927451745" Properties=species:S:1:pos:R:3:forces:R:3 cutoff=-1.0 nneightol=1.2 n_minim_iter=1 energy=-1956.029808335074 stress="0.00021774976558384617 -2.173548949975779e-08 -2.861040289452377e-08 -2.173548949975779e-08 -1.6195854345550827e-05 -5.038305675413641e-09 -2.861040289452377e-08 -5.038305675413641e-09 -1.8672715555979392e-05" free_energy=-1956.029808335074 pbc="T T T"
Si       0.46116294       0.46106744      -0.00000007      -0.00250568      -0.00041825      -0.00053869
Si      -0.46116418      -0.46106694       3.42478188       0.00250751       0.00041030      -0.00053285
Si       2.37698057       3.29873500       5.13717319       0.00251266      -0.00041070       0.00053211
Si       3.29930895       2.37660129       1.71239119      -0.00251307       0.00040595       0.00052317
Si       0.71222083       3.78253165      -0.08254471      -0.00080196      -0.00020755       0.00171813
Si       0.94500410       2.12556723       1.62984874       0.00159320       0.00104418       0.00341024
Si       1.89314055       4.96323612       3.50732398      -0.00159238       0.00103203      -0.00341357
Si       2.12592452       0.94486316       5.21971688       0.00081168      -0.00020114      -0.00170558
Si       3.55036557       4.73047330       1.79493426      -0.00080864       0.00019429      -0.00170361
Si       3.78314991       0.71209902       0.08254149       0.00157877      -0.00101803      -0.00341324
Si       4.73128543       3.54976787       5.05462982      -0.00159288      -0.00102923       0.00341148
Si       4.96406968       1.89280508       3.34223690       0.00081079       0.00019815       0.00171241
