12
Lattice="5.470550428774517 -0.00011881370523857335 9.860018236385558e-05 -0.00011885245333638851 5.470454110703672 -8.270116714248455e-05 0.00010857817419490799 -9.577396070729005e-05 6.267346119790124" Properties=species:S:1:pos:R:3:forces:R:3 cutoff=-1.0 nneightol=1.2 n_minim_iter=12 energy=-1954.734633288824 stress="-0.08434809809066077 -5.315849726659652e-06 3.554296141044692e-06 -5.315849726659652e-06 -0.08441560342300612 5.4668001222446995e-06 3.554296141044692e-06 5.4668001222446995e-06 -0.08437260385793353" free_energy=-1954.734633288824 pbc="T T T"
Si       0.49279002       0.49269019      -0.00003427      -0.00118984       0.00588000       0.00160457
Si      -0.49274312      -0.49288621       3.13368554       0.00019705       0.00025280      -0.00048340
Si       2.24246293       3.22795103       4.70048314      -0.00072134       0.00050380       0.00104080
Si       3.22807888       2.24226065       1.56683292       0.00039404      -0.00003888       0.00044574
Si       0.69079414       3.69232759       0.05738264      -0.00446798      -0.00822299       0.00171154
Si       0.95701644       2.04430354       1.62436707      -0.00102153       0.00726492      -0.00329533
Si       1.77817439       4.77952786       3.07619390       0.00241885       0.00659828      -0.00085828
Si       2.04444147       0.95690378       4.64306519       0.00745005      -0.00119395       0.00015804
Si       3.42611033       4.51330404       1.50939507      -0.00686338       0.00189492      -0.00037746
Si       3.69225205       0.69086577      -0.05740102      -0.00196451      -0.00729965      -0.00059051
Si       4.51354708       3.42596485       4.75800561       0.00005403      -0.00793885      -0.00048387
Si       4.77972186       1.77803240       3.19116124       0.00571455       0.00229960       0.00112815
