12
Lattice="5.5854292302345945 2.3823802395780367e-06 1.9386716120194394e-05 2.381969941741188e-06 5.5860010216450995 -2.085111888250237e-06 2.333773182959331e-05 -2.520154846145116e-06 6.718699226212698" Properties=species:S:1:pos:R:3:forces:R:3 cutoff=-1.0 nneightol=1.2 n_minim_iter=7 energy=-1955.996229610488 stress="-0.012300777874371697 4.913372086010931e-07 4.321051619065328e-07 4.913372086010931e-07 -0.012148063535018164 -2.3431111963237695e-07 4.321051619065328e-07 -2.3431111963237695e-07 -0.012319767121133097" free_energy=-1955.996229610488 pbc="T T T"
Si       0.45966868       0.45972723       0.00000364       0.00227607       0.00065797       0.00023941
Si      -0.45964873      -0.45972763       3.35935100      -0.00230256      -0.00067977       0.00026227
Si       2.33306934       3.25272610       5.03903069      -0.00220525       0.00068838      -0.00039943
Si       3.25238413       2.33327508       1.67968362       0.00228213      -0.00069092      -0.00027278
Si       0.70034964       3.72684912      -0.06458592      -0.00459213       0.00228534      -0.00056868
Si       0.93377454       2.09258884       1.61507115       0.00088686       0.00410169      -0.00124365
Si       1.85896184       4.88559055       3.42395911      -0.00086986       0.00409906       0.00131842
Si       2.09238830       0.93384625       5.10362044       0.00410445       0.00219502       0.00047262
Si       3.49306739       4.65215518       1.74427112      -0.00430150      -0.00220954       0.00056810
Si       3.72647420       0.70041031       0.06461686       0.00118432      -0.00414272       0.00138018
Si       4.65167796       3.49340969       4.97443162      -0.00078905      -0.00408080      -0.00117600
Si       4.88509578       1.85915495       3.29477968       0.00432654      -0.00222370      -0.00058047
