4
Lattice="3.2195502844507784 -0.7260524820053158 1.9495956443571147e-13 0.7260524820053167 3.2195502844507784 1.7356267951942445e-12 -1.9728013832284517 -1.246748901223898 2.3337369432654738" Properties=species:S:1:pos:R:3:tags:I:1 spacegroup="P 1" unit_cell=conventional n_minim_iter=1 energy=-19752.06633721301 free_energy=-19752.06633721301 pbc="T T T"
Ti       0.00000000       0.00000000       0.00000000        0
Al       1.97280138       1.24674890       0.00000000        1
Al       1.60977514      -0.36302624       1.16686847        2
Al       0.36302624       1.60977514       1.16686847        3
