4
Lattice="3.431257340253339 -0.7737953093392624 2.0777946527297156e-13 0.7737953093392622 3.431257340253339 1.8497559145800232e-12 -2.1025263247967314 -1.3287310154582819 2.487195822184858" Properties=species:S:1:pos:R:3:tags:I:1 spacegroup="P 1" unit_cell=conventional n_minim_iter=1 energy=-11269.583812760417 free_energy=-11269.583812760417 pbc="T T T"
Ti       0.00000000       0.00000000       0.00000000        0
Al       2.10252632       1.32873102       0.00000000        1
Al       1.71562867      -0.38689765       1.24359791        2
Al       0.38689765       1.71562867       1.24359791        3
