4
Lattice="3.102370432341687 -0.6996268278151279 1.8786374952076376e-13 0.6996268278151281 3.102370432341687 1.6724563293811498e-12 -1.9009986300787973 -1.2013718022644042 2.248797456159429" Properties=species:S:1:pos:R:3:tags:I:1 spacegroup="P 1" unit_cell=conventional n_minim_iter=1 stress="-23995.336457881163 -6.87369792158601e-12 3.2589800415460796e-11 -6.87369792158601e-12 -23995.3364578812 3.548031333775291e-11 3.2589800415460796e-11 3.548031333775291e-11 -23995.336457881152" pbc="T T T"
Ti       0.00000000       0.00000000       0.00000000        0
Al       1.90099863       1.20137180       0.00000000        1
Al       1.55118522      -0.34981341       1.12439873        2
Al       0.34981341       1.55118522       1.12439873        3
