4
Lattice="3.3549817762057357 -0.7565941297644061 2.0316060567148343e-13 0.7565941297644063 3.3549817762057357 1.8086365342060168e-12 -2.0557879529854923 -1.2991938232218805 2.4319063916870616" Properties=species:S:1:pos:R:3:tags:I:1 spacegroup="P 1" unit_cell=conventional n_minim_iter=1 stress="4280.459527510204 1.1134282564427525e-12 1.1891351195530095e-12 1.1134282564427525e-12 4280.459527510204 3.9768664211560135e-12 1.1891351195530095e-12 3.9768664211560135e-12 4280.459527510202" pbc="T T T"
Ti       0.00000000       0.00000000       0.00000000        0
Al       2.05578795       1.29919382       0.00000000        1
Al       1.67749089      -0.37829706       1.21595320        2
Al       0.37829706       1.67749089       1.21595320        3
