4
Lattice="3.6342411856642793 0.0 0.0 0.0 3.6342411856642793 0.0 0.0 0.0 3.6342411856642793" Properties=species:S:1:pos:R:3 n_minim_iter=1 stress="-0.2706709050130297 -2.7280093481228876e-18 -2.727992563028043e-18 -2.7280093481228876e-18 -0.27067090501302965 2.0455152785471712e-18 -2.727992563028043e-18 2.0455152785471712e-18 -0.27067090501302965" pbc="T T T"
Al       0.00000000       0.00000000       0.00000000
Al       1.81712059       1.81712059       0.00000000
Al       1.81712059       0.00000000       1.81712059
Al       0.00000000       1.81712059       1.81712059
