4
Lattice="4.250634276730445 0.0 0.0 0.0 4.250634276730445 0.0 0.0 0.0 4.250634276730445" Properties=species:S:1:pos:R:3 n_minim_iter=1 stress="0.05810203272971953 -8.904060062513662e-21 -6.402692634266085e-36 -8.904060062513662e-21 0.05810203272971955 1.280538526853217e-35 -6.402692634266085e-36 1.280538526853217e-35 0.05810203272971957" pbc="T T T"
Al       0.00000000       0.00000000       0.00000000
Al       2.12531714       2.12531714       0.00000000
Al       2.12531714       0.00000000       2.12531714
Al       0.00000000       2.12531714       2.12531714
