4
Lattice="4.308869380063768 0.0 0.0 0.0 4.308869380063768 0.0 0.0 0.0 4.308869380063768" Properties=species:S:1:pos:R:3 n_minim_iter=1 stress="0.07990945112546462 7.402905265559168e-19 7.222237291452133e-36 7.402905265559168e-19 0.0799094511254646 4.336808689942017e-20 7.222237291452133e-36 4.336808689942017e-20 0.07990945112546459" pbc="T T T"
Al       0.00000000       0.00000000       0.00000000
Al       2.15443469       2.15443469       0.00000000
Al       2.15443469       0.00000000       2.15443469
Al       0.00000000       2.15443469       2.15443469
