4
Lattice="4.220908588980298 0.0 0.0 0.0 4.220908588980298 0.0 0.0 0.0 4.220908588980298" Properties=species:S:1:pos:R:3 n_minim_iter=1 stress="0.05530419188666713 -1.0327049431162917e-18 -0.0 -1.0327049431162917e-18 0.05530419188666713 -4.7139224890674117e-20 -0.0 -4.7139224890674117e-20 0.05530419188666712" pbc="T T T"
Al       0.00000000       0.00000000       0.00000000
Al       2.11045429       2.11045429       0.00000000
Al       2.11045429       0.00000000       2.11045429
Al       0.00000000       2.11045429       2.11045429
