1
Lattice="2.7128492735883754 1.175292955902634e-16 8.94930017758252e-51 1.3564246367941875 2.3493963875656942 1.0975623067432785e-49 -4.924553368786337e-50 -8.554854290172579e-49 2.5104298973998413" Properties=species:S:1:pos:R:3 cutoff=-1.0 nneightol=1.2 n_minim_iter=1 energy=-162.82269295510724 free_energy=-162.82269295510724 pbc="T T T"
Si       0.00000000       0.00000000       0.00000000
