1
Lattice="2.80799768283225 1.171899406807934e-16 -5.654594554012421e-50 1.403998841416125 2.4317973271005675 4.2456814413062e-49 7.232762786375865e-50 -2.924667599214432e-48 2.566341692063257" Properties=species:S:1:pos:R:3 cutoff=-1.0 nneightol=1.2 n_minim_iter=1 energy=-162.74026861535944 free_energy=-162.74026861535944 pbc="T T T"
Si       0.00000000       0.00000000       0.00000000
