1
Lattice="2.51972850912443 1.1811440941279704e-16 -1.2639685781515368e-49 1.259864254562215 2.182148899541646 1.8298820377003267e-49 6.99658006252579e-49 -2.8837650912367344e-48 2.355708534801321" Properties=species:S:1:pos:R:3 cutoff=-1.0 nneightol=1.2 n_minim_iter=1 energy=-162.69949433501006 free_energy=-162.69949433501006 pbc="T T T"
Si       0.00000000       0.00000000       0.00000000
1
Lattice="2.5112235555799147 1.1554706627121546e-16 -8.015602214349524e-50 1.2556117777899574 2.174783393714089 -3.679501919214748e-50 6.673664110335973e-49 -2.9905262203618157e-48 2.371692073159676" Properties=species:S:1:pos:R:3 cutoff=-1.0 nneightol=1.2 n_minim_iter=2 stress="-0.14082600353903357 4.005109331245791e-16 3.1848018691531485e-16 4.005109331245791e-16 -0.14082600353903724 1.3499917090438914e-16 3.1848018691531485e-16 1.3499917090438914e-16 -0.14078871529632395" pbc="T T T"
Si       0.00000000       0.00000000       0.00000000
