1
Lattice="2.887436401728805 1.3603314199710957e-16 -1.5802069906160372e-49 1.4437182008644025 2.5005932757090754 2.512106988180027e-49 3.604608304402464e-49 -6.043200067339068e-48 2.585362012762427" Properties=species:S:1:pos:R:3 cutoff=-1.0 nneightol=1.2 n_minim_iter=2 stress="0.07460773619715413 7.434356674358975e-17 -2.4342298459719103e-17 7.434356674358975e-17 0.07460773619715294 1.1888459115701115e-16 -2.4342298459719103e-17 1.1888459115701115e-16 0.07223698643518162" pbc="T T T"
Si       0.00000000       0.00000000       0.00000000
