1
Lattice="2.669085987369932 1.1563333024783018e-16 8.804931380930487e-51 1.334542993684966 2.311496269947434 1.0798565927398441e-49 -1.5859307921281273e-50 -3.9895268374787e-49 2.469932010841653" Properties=species:S:1:pos:R:3 cutoff=-1.0 nneightol=1.2 n_minim_iter=3 stress="0.004773551844952627 6.725977418577334e-16 -3.4121445430323826e-17 6.725977418577334e-16 0.0047735518449518125 8.387698726604752e-17 -3.4121445430323826e-17 8.387698726604752e-17 -0.0023964132527157325" pbc="T T T"
Si       0.00000000       0.00000000       0.00000000
