1
Lattice="2.7342111710198127 1.1845476121860902e-16 9.01977000955508e-51 1.3671055855099064 2.367896333414356 1.106204885470201e-49 -6.632682865329187e-50 -1.0889891920015589e-48 2.530197875849353" Properties=species:S:1:pos:R:3 cutoff=-1.0 nneightol=1.2 n_minim_iter=1 stress="0.04270527546090636 1.3585684560643135e-16 1.7864757759045478e-17 1.3585684560643135e-16 0.04270527546090629 1.6192595636559774e-16 1.7864757759045478e-17 1.6192595636559774e-16 0.05115577622334927" pbc="T T T"
Si       0.00000000       0.00000000       0.00000000
