1
Lattice="2.848117355826813 1.1886430890663303e-16 -5.735385391487399e-50 1.4240586779134066 2.4665419831053836 4.306342228922121e-49 1.781969936400905e-49 -3.935901244895126e-48 2.603008670140689" Properties=species:S:1:pos:R:3 cutoff=-1.0 nneightol=1.2 n_minim_iter=1 stress="0.07316041254283746 -6.820626804220399e-17 -1.0570354273339616e-16 -6.820626804220399e-17 0.07316041254283669 1.2236971260563611e-17 -1.0570354273339616e-16 1.2236971260563611e-17 0.08279654292396676" pbc="T T T"
Si       0.00000000       0.00000000       0.00000000
