1
Lattice="2.43507851410391 1.1204346097327113e-16 -7.7725540151118985e-50 1.2175392570519552 2.108839853423649 -3.567932471075771e-50 9.407580592046677e-49 -2.913734536998499e-48 2.2997778897817054" Properties=species:S:1:pos:R:3 cutoff=-1.0 nneightol=1.2 n_minim_iter=1 stress="-0.2264918876524517 -2.530062586654307e-15 2.7548937951421475e-16 -2.530062586654307e-15 -0.2264918876524639 5.031665526664583e-16 2.7548937951421475e-16 5.031665526664583e-16 -0.21967742007279178" pbc="T T T"
Si       0.00000000       0.00000000       0.00000000
