2
Lattice="3.01721326122869 -2.003972718385841e-15 1.270852644340026e-15 -1.5086066306143464 2.612983328647459 5.6741094582518995e-15 1.568780322667324e-15 8.687863590401996e-15 3.5819298681131437" Properties=species:S:1:pos:R:3:forces:R:3 n_minim_iter=1 energy=-325.2974429722106 stress="-0.07272931953314282 -2.0750405051036367e-16 1.0501327134046e-15 -2.0750405051036367e-16 -0.07272931935259822 3.798432162384253e-15 1.0501327134046e-15 3.798432162384253e-15 -0.0948233414323203" free_energy=-325.2974429722106 pbc="T T T"
Si       0.00000000       0.00000000       0.00000000       0.00000000       0.00000000      -0.00000000
Si      -0.00000000       1.74198889       1.79096494      -0.00000000      -0.00000000       0.00000000
2
Lattice="2.9727225450228505 -7.301585618046873e-16 -5.130196586960286e-15 -1.4863612725114255 2.574453237305179 -1.1106418055939304e-14 -6.098951367624659e-15 -1.909150267804494e-14 3.689948804156934" Properties=species:S:1:pos:R:3:forces:R:3 n_minim_iter=2 energy=-325.30901613731714 stress="-0.06779067499359884 2.374368486766693e-16 -2.712525183580348e-15 2.374368486766693e-16 -0.0677906753751198 -8.238556470375832e-15 -2.712525183580348e-15 -8.238556470375832e-15 -0.07444534197542901" free_energy=-325.30901613731714 pbc="T T T"
Si       0.00000000       0.00000000       0.00000000      -0.00000000      -0.00000000       0.00000000
Si      -0.00000000       1.71630216       1.84497440       0.00000000       0.00000000      -0.00000000
