2
Lattice="3.330732710622417 0.0 0.0 -1.665366355311208 2.884499140614817 0.0 0.0 0.0 3.330732710622417" Properties=species:S:1:pos:R:3:forces:R:3 n_minim_iter=1 energy=-325.45319692338705 stress="-0.03353344705098807 1.5699247457590112e-16 2.141841391745115e-16 1.5699247457590112e-16 -0.03353344611803788 1.5016200088924243e-17 2.141841391745115e-16 1.5016200088924243e-17 -0.05934985977495408" free_energy=-325.45319692338705 pbc="T T T"
Si       0.00000000       0.00000000       0.00000000      -0.00000000       0.00000001       0.00000001
Si       0.00000000       1.92299943       1.66536636       0.00000000      -0.00000001      -0.00000001
2
Lattice="3.36403962986946 -1.567090108251781e-16 -2.1461838983289924e-16 -1.6820198149347296 2.9133437779980533 9.427841819667539e-17 -2.1461838983289924e-16 -1.5046644893823062e-17 3.3899083844440674" Properties=species:S:1:pos:R:3:forces:R:3 n_minim_iter=2 energy=-325.48134429071604 stress="0.0023027959516430194 2.391937062854017e-16 -2.2828091767731416e-16 2.391937062854017e-16 0.0023027964844637232 -1.4578232437215487e-16 -2.2828091767731416e-16 -1.4578232437215487e-16 -0.0036750300158810384" free_energy=-325.48134429071604 pbc="T T T"
Si      -0.00000000       0.00000000       0.00000000      -0.00000000       0.00000001       0.00000001
Si      -0.00000000       1.94222919       1.69495420       0.00000000      -0.00000001      -0.00000001
