1
Lattice="2.620099215036424 2.643610374992914e-17 1.0261068542836688e-50 1.3100496075182122 2.26907248065721 1.5496559481947487e-50 -1.1255128402567906e-49 9.34623762947533e-50 2.444323335595915" Properties=species:S:1:pos:R:3 cutoff=-1.0 nneightol=1.2 n_minim_iter=1 energy=-162.8268247554646 free_energy=-162.8268247554646 pbc="T T T"
Si       0.00000000       0.00000000       0.00000000
