1
Lattice="2.7604813549493263 3.159956689085023e-17 1.702044420662966e-50 1.3802406774746632 2.3906469800594046 1.650906536187227e-50 -1.2730227065322252e-49 -5.463765608316133e-50 2.549726346362053" Properties=species:S:1:pos:R:3 cutoff=-1.0 nneightol=1.2 n_minim_iter=1 energy=-162.7848214614206 free_energy=-162.7848214614206 pbc="T T T"
Si       0.00000000       0.00000000       0.00000000
