1
Lattice="2.6962606790505825 3.0864424977937294e-17 1.6624475427819823e-50 1.3481303395252913 2.3350302432828856 1.6124993455682768e-50 -3.220921184639057e-50 -3.3707379335165e-51 2.4904087389358613" Properties=species:S:1:pos:R:3 cutoff=-1.0 nneightol=1.2 n_minim_iter=1 stress="0.02192734032463294 3.821545623758122e-17 -8.25720270778254e-18 3.821545623758122e-17 0.021927340324633164 7.505516399109022e-18 -8.25720270778254e-18 7.505516399109022e-18 0.014738404514438771" pbc="T T T"
Si       0.00000000       0.00000000       0.00000000
