1
Lattice="2.674159187624115 3.061142650886012e-17 1.6488203106678064e-50 1.3370795938120574 2.3158897902460405 1.59928154332157e-50 -3.194519003833344e-50 -3.343107691338018e-51 2.4699946343874197" Properties=species:S:1:pos:R:3 cutoff=-1.0 nneightol=1.2 n_minim_iter=1 stress="0.008324914008931334 1.053406715039125e-16 -4.7158136334061816e-18 1.053406715039125e-16 0.008324914008931102 2.3233683415237208e-17 -4.7158136334061816e-18 2.3233683415237208e-17 -0.003421392383958928" pbc="T T T"
Si       0.00000000       0.00000000       0.00000000
