2
Lattice="2.874092738295283 9.374069761002436e-18 1.9102140378766245e-50 -1.4370463691476414 2.489037324196095 -4.750236320272175e-51 -3.2973694617075836e-50 -9.569111721288384e-51 4.9611956762211165" Properties=species:S:1:pos:R:3:forces:R:3 n_minim_iter=1 energy=-324.989484186887 stress="0.08540511460136094 2.8344098168102223e-17 4.5912199942775346e-18 2.8344098168102223e-17 0.08540511460136088 7.877345359514386e-18 4.5912199942775346e-18 7.877345359514386e-18 0.07547086566540585" free_energy=-324.989484186887 pbc="T T T"
Si      -0.00000000       0.00000000       0.00000000       0.00000000       0.00000000      -0.00000000
Si       0.00000000       1.65935822       2.48059784      -0.00000000      -0.00000000       0.00000000
