2
Lattice="2.772807007193116 9.043718726571657e-18 1.8428962986784404e-50 -1.386403503596558 2.401321308020739 -4.58283352488005e-51 -3.181167060792329e-50 -9.231887224745561e-51 4.78635847472392" Properties=species:S:1:pos:R:3:forces:R:3 n_minim_iter=1 energy=-325.1993389715068 stress="0.03470664313781286 2.288490013520303e-17 1.071454732676322e-16 2.288490013520303e-17 0.03470664313781272 -6.101711736687536e-17 1.071454732676322e-16 -6.101711736687536e-17 0.04162604010818578" free_energy=-325.1993389715068 pbc="T T T"
Si      -0.00000000       0.00000000      -0.00000000       0.00000000      -0.00000000      -0.00000000
Si       0.00000000       1.60088087       2.39317924      -0.00000000      -0.00000000       0.00000000
