2
Lattice="2.377579498184204 3.327260367476095e-17 -1.9535854566730146e-49 -1.188789749092102 2.059044244944578 1.2621869641160168e-49 3.3135292084388725e-49 -2.018124005615387e-49 4.586521469284561" Properties=species:S:1:pos:R:3:forces:R:3 n_minim_iter=2 energy=-324.9910853767951 stress="-0.00305184261116547 3.917154990532871e-17 -1.8988191300836582e-17 3.917154990532871e-17 -0.003051842611166241 1.802059694952093e-16 -1.8988191300836582e-17 1.802059694952093e-16 -0.004823593052879206" free_energy=-324.9910853767951 pbc="T T T"
Si       0.00000000       0.00000000      -0.00000000       0.00000000       0.00000000       0.00000000
Si      -0.00000000       1.37269616       2.29326073      -0.00000000      -0.00000000      -0.00000000
