12
Lattice="5.534876385895507 -2.4471309289062653e-63 -2.3492568048317474e-48 2.656201838935503e-63 5.534876385895507 4.925734983585106e-16 2.814827432551291e-48 -5.901906479000687e-16 6.631766205702162" Properties=species:S:1:pos:R:3:forces:R:3 cutoff=-1.0 nneightol=1.2 n_minim_iter=1 energy=-1955.678915902658 stress="-0.04976398448476767 1.0954985832930084e-17 4.1843264282364696e-17 1.0954985832930084e-17 -0.04976398448476755 -6.752949958206122e-17 4.1843264282364696e-17 -6.752949958206122e-17 -0.04815599812260162" free_energy=-1955.678915902658 pbc="T T T"
Si       0.46127752       0.46127752       0.00000000       0.00753571       0.00753571      -0.00000000
Si      -0.46127752      -0.46127752       3.31588310      -0.00753571      -0.00753571       0.00000000
Si       2.30616067       3.22871571       4.97382465      -0.00753571       0.00753571      -0.00000000
Si       3.22871571       2.30616067       1.65794155       0.00753571      -0.00753571      -0.00000000
Si       0.70087044       3.69336699      -0.03601083      -0.00400142      -0.00055831       0.10514166
Si       0.92592880       2.06656774       1.62193072      -0.00055831       0.00400142       0.10514166
Si       1.84150939       4.83400594       3.35189393       0.00055831       0.00400142      -0.10514166
Si       2.06656774       0.92592880       5.00983549       0.00400142      -0.00055831      -0.10514166
Si       3.46830864       4.60894758       1.69395238      -0.00400142       0.00055831      -0.10514166
Si       3.69336699       0.70087044       0.03601083      -0.00055831      -0.00400142      -0.10514166
Si       4.60894758       3.46830864       4.93781382       0.00055831      -0.00400142       0.10514166
Si       4.83400594       1.84150939       3.27987227       0.00400142       0.00055831       0.10514166
12
Lattice="5.543493342332926 -2.4520064830022846e-63 -2.3563152405361156e-48 2.658482182118808e-63 5.543493342332926 4.921941550283472e-16 2.8020083404234735e-48 -5.897306146251474e-16 6.611165035066778" Properties=species:S:1:pos:R:3:forces:R:3 cutoff=-1.0 nneightol=1.2 n_minim_iter=2 energy=-1955.680041520009 stress="-0.04808645211268906 2.2930330829566454e-17 2.0266296862400294e-17 2.2930330829566454e-17 -0.0480864521126889 7.667526630818659e-17 2.0266296862400294e-17 7.667526630818659e-17 -0.05017041943640452" free_energy=-1955.680041520009 pbc="T T T"
Si       0.46210348       0.46210348       0.00000000      -0.01507790      -0.01507790       0.00000000
Si      -0.46210348      -0.46210348       3.30558252       0.01507790       0.01507790       0.00000000
Si       2.30964319       3.23385015       4.95837378       0.01507790      -0.01507790      -0.00000000
Si       3.23385015       2.30964319       1.65279126      -0.01507790       0.01507790      -0.00000000
Si       0.70190434       3.69910901      -0.03440161      -0.00672043       0.03304728       0.10867472
Si       0.92736234       2.06984233       1.61838965       0.03304728       0.00672043       0.10867472
Si       1.84438433       4.84158900       3.33998413      -0.03304728       0.00672043      -0.10867472
Si       2.06984233       0.92736234       4.99277538       0.00672043       0.03304728      -0.10867472
Si       3.47365101       4.61613100       1.68719287      -0.00672043      -0.03304728      -0.10867472
Si       3.69910901       0.70190434       0.03440161       0.03304728      -0.00672043      -0.10867472
Si       4.61613100       3.47365101       4.92397217      -0.03304728      -0.00672043       0.10867472
Si       4.84158900       1.84438433       3.27118091       0.00672043      -0.03304728       0.10867472
12
Lattice="5.546729721121568 -2.623789718206718e-63 -2.3596676628403293e-48 2.1223763578743565e-63 5.546729721121568 5.003464214686683e-16 2.7963627101901034e-48 -5.796164522756531e-16 6.603452385171075" Properties=species:S:1:pos:R:3:forces:R:3 cutoff=-1.0 nneightol=1.2 n_minim_iter=3 energy=-1955.686748089587 stress="-0.04627985657237649 1.058910809096515e-16 -1.59846307315174e-16 1.058910809096515e-16 -0.04627985657237632 -2.1036148606715973e-16 -1.59846307315174e-16 -2.1036148606715973e-16 -0.04622158757870221" free_energy=-1955.686748089587 pbc="T T T"
Si       0.46208773       0.46208773       0.00000000       0.06925057       0.06925057       0.00000000
Si      -0.46208773      -0.46208773       3.30172619      -0.06925057      -0.06925057       0.00000000
Si       2.31127713       3.23545259       4.95258929      -0.06925057       0.06925057      -0.00000000
Si       3.23545259       2.31127713       1.65086310       0.06925057      -0.06925057      -0.00000000
Si       0.70156442       3.70324399      -0.01894886       0.04722186       0.00473800       0.00286434
Si       0.92987913       2.07180043       1.63191423       0.00473800      -0.04722186       0.00286434
Si       1.84348573       4.84516529       3.32067506      -0.00473800      -0.04722186      -0.00286434
Si       2.07180043       0.92987913       4.97153815      -0.04722186       0.00473800      -0.00286434
Si       3.47492928       4.61685059       1.66981196       0.04722186      -0.00473800      -0.00286434
Si       3.70324399       0.70156442       0.01894886       0.00473800       0.04722186      -0.00286434
Si       4.61685059       3.47492928       4.93364043      -0.00473800       0.04722186       0.00286434
Si       4.84516529       1.84348573       3.28277733      -0.04722186      -0.00473800       0.00286434
12
Lattice="5.546652781773416 -2.613954002995515e-63 -2.3606443378166587e-48 2.1489918659915226e-63 5.546652781773416 5.402192317199559e-16 2.7952311873557484e-48 -5.318506908031496e-16 6.603635583530813" Properties=species:S:1:pos:R:3:forces:R:3 cutoff=-1.0 nneightol=1.2 n_minim_iter=4 energy=-1955.689372072217 stress="-0.0451508565713392 -4.493422676991014e-17 -2.57211625672853e-16 -4.493422676991014e-17 -0.04515085657133923 -2.1509811591177892e-16 -2.57211625672853e-16 -2.1509811591177892e-16 -0.045758428493921505" free_energy=-1955.689372072217 pbc="T T T"
Si       0.46691360       0.46691360       0.00000000       0.01621980       0.01621980      -0.00000000
Si      -0.46691361      -0.46691361       3.30181779      -0.01621980      -0.01621980       0.00000000
Si       2.30641279       3.24023999       4.95272669      -0.01621980       0.01621980      -0.00000000
Si       3.24023999       2.30641279       1.65090890       0.01621980      -0.01621980      -0.00000000
Si       0.70469626       3.70423181      -0.01379246       0.01809759       0.02346260      -0.00122809
Si       0.93090542       2.06863013       1.63711644       0.02346260      -0.01809759      -0.00122809
Si       1.84242097       4.84195652       3.31561025      -0.02346260      -0.01809759       0.00122809
Si       2.06863013       0.93090542       4.96651915      -0.01809759       0.02346260       0.00122809
Si       3.47802265       4.61574736       1.66470135       0.01809759      -0.02346260       0.00122809
Si       3.70423181       0.70469626       0.01379246       0.02346260       0.01809759       0.00122809
Si       4.61574736       3.47802265       4.93893423      -0.02346260       0.01809759      -0.00122809
Si       4.84195652       1.84242097       3.28802533      -0.01809759      -0.02346260      -0.00122809
12
Lattice="5.544623539516162 -2.446605930174601e-63 -2.359531010656561e-48 2.3756493499404366e-63 5.544623539516162 5.544470330139392e-16 2.797588144248908e-48 -5.150844320260342e-16 6.608470115016042" Properties=species:S:1:pos:R:3:forces:R:3 cutoff=-1.0 nneightol=1.2 n_minim_iter=5 energy=-1955.689794196118 stress="-0.04503787275627659 2.79552795144297e-17 -5.423870694305436e-16 2.79552795144297e-17 -0.045037872756277 1.7739824547912772e-16 -5.423870694305436e-16 1.7739824547912772e-16 -0.04504697545115014" free_energy=-1955.689794196118 pbc="T T T"
Si       0.46909811       0.46909811       0.00000000      -0.00294895      -0.00294895       0.00000000
Si      -0.46909811      -0.46909811       3.30423506       0.00294895       0.00294895       0.00000000
Si       2.30321366       3.24140987       4.95635259       0.00294895      -0.00294895      -0.00000000
Si       3.24140987       2.30321366       1.65211753      -0.00294895       0.00294895      -0.00000000
Si       0.70610478       3.70371107      -0.01179405       0.00251606       0.01985967      -0.00257328
Si       0.93139930       2.06620698       1.64032348       0.01985967      -0.00251606      -0.00257328
Si       1.84091246       4.83851875       3.31602911      -0.01985967      -0.00251606       0.00257328
Si       2.06620698       0.93139930       4.96814664      -0.00251606       0.01985967       0.00257328
Si       3.47841655       4.61322423       1.66391158       0.00251606      -0.01985967       0.00257328
Si       3.70371107       0.70610478       0.01179405       0.01985967       0.00251606       0.00257328
Si       4.61322423       3.47841655       4.94455854      -0.01985967       0.00251606      -0.00257328
Si       4.83851875       1.84091246       3.29244101      -0.00251606      -0.01985967      -0.00257328
12
Lattice="5.544667717697405 -1.3444547461617476e-63 -2.3602768677497353e-48 1.2862251334313684e-63 5.544667717697405 5.648377829299398e-16 2.796672161552567e-48 -5.026280669625921e-16 6.608364806982355" Properties=species:S:1:pos:R:3:forces:R:3 cutoff=-1.0 nneightol=1.2 n_minim_iter=6 energy=-1955.689884986583 stress="-0.04503437908251913 -1.2226378966619358e-16 -5.700264218398925e-16 -1.2226378966619358e-16 -0.045034379082519185 1.8917262418196729e-16 -5.700264218398925e-16 1.8917262418196729e-16 -0.044786504746783244" free_energy=-1955.689884986583 pbc="T T T"
Si       0.46977306       0.46977306       0.00000000      -0.00298507      -0.00298507       0.00000000
Si      -0.46977306      -0.46977306       3.30418240       0.00298507       0.00298507       0.00000000
Si       2.30256080       3.24210691       4.95627361       0.00298507      -0.00298507      -0.00000000
Si       3.24210691       2.30256080       1.65209120      -0.00298507       0.00298507      -0.00000000
Si       0.70680007       3.70495912      -0.01131000      -0.00601852       0.00541611      -0.00112761
Si       0.93262526       2.06553378       1.64078121       0.00541611       0.00601852      -0.00112761
Si       1.83970859       4.83786764       3.31549240      -0.00541611       0.00601852       0.00112761
Si       2.06553378       0.93262526       4.96758360       0.00601852       0.00541611       0.00112761
Si       3.47913393       4.61204245       1.66340120      -0.00601852      -0.00541611       0.00112761
Si       3.70495912       0.70680007       0.01131000       0.00541611      -0.00601852       0.00112761
Si       4.61204245       3.47913393       4.94496361      -0.00541611      -0.00601852      -0.00112761
Si       4.83786764       1.83970859       3.29287241       0.00601852      -0.00541611      -0.00112761
