12
Lattice="5.344400216946053 -2.2374294406572704e-64 -2.4443061604954468e-48 5.7456858244072e-64 5.344400216946053 7.67069464596656e-16 2.7256099905634692e-48 -8.553479224292582e-16 5.959462386628826" Properties=species:S:1:pos:R:3:forces:R:3 cutoff=-1.0 nneightol=1.2 n_minim_iter=1 energy=-1951.99149018377 stress="-0.20189423632672607 -7.012241898914597e-17 1.693223580963308e-16 -7.012241898914597e-17 -0.20189423632672676 -1.0418532316261248e-16 1.693223580963308e-16 -1.0418532316261248e-16 -0.19763323555225998" free_energy=-1951.99149018377 pbc="T T T"
Si       0.49483121       0.49483121       0.00000000       0.00471836       0.00471836       0.00000000
Si      -0.49483121      -0.49483121       2.97973119      -0.00471836      -0.00471836       0.00000000
Si       2.17736889       3.16703132       4.46959679      -0.00471836       0.00471836      -0.00000000
Si       3.16703132       2.17736889       1.48986560       0.00471836      -0.00471836       0.00000000
Si       0.69033913       3.62546956       0.12364843      -0.01614906       0.03348058       0.15218100
Si       0.95326945       1.98186097       1.61351403       0.03348058       0.01614906       0.15218100
Si       1.71893065       4.65406108       2.85608276      -0.03348058       0.01614906      -0.15218100
Si       1.98186097       0.95326945       4.34594836       0.01614906       0.03348058      -0.15218100
Si       3.36253924       4.39113076       1.36621716      -0.01614906      -0.03348058      -0.15218100
Si       3.62546956       0.69033913      -0.12364843       0.03348058      -0.01614906      -0.15218100
Si       4.39113076       3.36253924       4.59324522      -0.03348058      -0.01614906       0.15218100
Si       4.65406108       1.71893065       3.10337963       0.01614906      -0.03348058       0.15218100
12
Lattice="5.36289062602767 -1.0970225864129266e-64 -2.4577779617467965e-48 4.652022932431064e-64 5.36289062602767 7.740355172366423e-16 2.701255219068524e-48 -8.446514444625544e-16 5.918438639863061" Properties=species:S:1:pos:R:3:forces:R:3 cutoff=-1.0 nneightol=1.2 n_minim_iter=2 energy=-1951.994552028301 stress="-0.1980752553199435 2.2720298244063636e-18 7.960598708260842e-17 2.2720298244063636e-18 -0.19807525531994413 -1.1931152430570057e-16 7.960598708260842e-17 -1.1931152430570057e-16 -0.2023284883700915" free_energy=-1951.994552028301 pbc="T T T"
Si       0.49661085       0.49661085       0.00000000      -0.06943216      -0.06943216       0.00000000
Si      -0.49661086      -0.49661086       2.95921932       0.06943216       0.06943216      -0.00000000
Si       2.18483446       3.17805616       4.43882898       0.06943216      -0.06943216      -0.00000000
Si       3.17805616       2.18483446       1.47960966      -0.06943216       0.06943216      -0.00000000
Si       0.69249605       3.63849281       0.12495631      -0.02978688       0.13098648       0.16562158
Si       0.95704749       1.98894926       1.60456597       0.13098648       0.02978688       0.16562158
Si       1.72439781       4.67039457       2.83426301      -0.13098648       0.02978688      -0.16562158
Si       1.98894926       0.95704749       4.31387267       0.02978688       0.13098648      -0.16562158
Si       3.37394136       4.40584313       1.35465335      -0.02978688      -0.13098648      -0.16562158
Si       3.63849281       0.69249605      -0.12495631       0.13098648      -0.02978688      -0.16562158
Si       4.40584313       3.37394136       4.56378529      -0.13098648      -0.02978688       0.16562158
Si       4.67039457       1.72439781       3.08417563       0.02978688      -0.13098648       0.16562158
12
Lattice="5.369214375770298 -3.439658767986841e-64 -2.4652235755992044e-48 2.873191400065658e-64 5.369214375770298 7.737508052073524e-16 2.6897966731783147e-48 -8.439824515344627e-16 5.904505620245576" Properties=species:S:1:pos:R:3:forces:R:3 cutoff=-1.0 nneightol=1.2 n_minim_iter=3 energy=-1952.009461165944 stress="-0.19671472369861087 -1.1766387748103646e-16 1.0620150786706016e-16 -1.1766387748103646e-16 -0.19671472369861065 -8.638762193314087e-17 1.0620150786706016e-16 -8.638762193314087e-17 -0.19253593249097847" free_energy=-1952.009461165944 pbc="T T T"
Si       0.49409110       0.49409110       0.00000000       0.11343623       0.11343623       0.00000000
Si      -0.49409110      -0.49409110       2.95225281      -0.11343623      -0.11343623      -0.00000000
Si       2.19051608       3.17869829       4.42837922      -0.11343623       0.11343623      -0.00000000
Si       3.17869829       2.19051608       1.47612641       0.11343623      -0.11343623       0.00000000
Si       0.69101782       3.65088639       0.14042318       0.03525610      -0.01649629       0.02422009
Si       0.96627920       1.99358936       1.61654958      -0.01649629      -0.03525610       0.02422009
Si       1.71832798       4.67819655       2.81182963       0.01649629      -0.03525610      -0.02422009
Si       1.99358936       0.96627920       4.28795604      -0.03525610      -0.01649629      -0.02422009
Si       3.37562501       4.40293517       1.33570323       0.03525610       0.01649629      -0.02422009
Si       3.65088639       0.69101782      -0.14042318      -0.01649629       0.03525610      -0.02422009
Si       4.40293517       3.37562501       4.56880239       0.01649629       0.03525610       0.02422009
Si       4.67819655       1.71832798       3.09267599      -0.03525610       0.01649629       0.02422009
12
Lattice="5.380296436475373 -3.4981988280831374e-64 -2.476853567999867e-48 2.8355383311476936e-64 5.380296436475373 7.790920689325485e-16 2.67133253650531e-48 -8.363604277278327e-16 5.88020707031052" Properties=species:S:1:pos:R:3:forces:R:3 cutoff=-1.0 nneightol=1.2 n_minim_iter=4 energy=-1952.012361846195 stress="-0.19428990497525336 9.960107566576627e-17 3.4978735690738765e-17 9.960107566576627e-17 -0.1942899049752534 -5.269444223813127e-17 3.4978735690738765e-17 -5.269444223813127e-17 -0.19340129873811931" free_energy=-1952.012361846195 pbc="T T T"
Si       0.49577162       0.49577162       0.00000000       0.08842545       0.08842545       0.00000000
Si      -0.49577163      -0.49577163       2.94010354      -0.08842545      -0.08842545      -0.00000000
Si       2.19437659       3.18591984       4.41015530      -0.08842545       0.08842545       0.00000000
Si       3.18591984       2.19437659       1.47005177       0.08842545      -0.08842545       0.00000000
Si       0.69236572       3.66043676       0.14394350       0.03184865       0.01573239       0.01399421
Si       0.97028854       1.99778249       1.61399527       0.01573239      -0.03184865       0.01399421
Si       1.71985968       4.68793071       2.79616003      -0.01573239      -0.03184865      -0.01399421
Si       1.99778249       0.97028854       4.26621180      -0.03184865       0.01573239      -0.01399421
Si       3.38251394       4.41000789       1.32610826       0.03184865      -0.01573239      -0.01399421
Si       3.66043676       0.69236572      -0.14394350       0.01573239       0.03184865      -0.01399421
Si       4.41000789       3.38251394       4.55409881      -0.01573239       0.03184865       0.01399421
Si       4.68793071       1.71985968       3.08404704      -0.03184865      -0.01573239       0.01399421
12
Lattice="5.3884710488392935 -3.3797340893520435e-64 -2.4889862399550384e-48 3.1496288256733054e-64 5.3884710488392935 8.282740303051546e-16 2.6537674271992626e-48 -7.802393705868122e-16 5.862379396468936" Properties=species:S:1:pos:R:3:forces:R:3 cutoff=-1.0 nneightol=1.2 n_minim_iter=5 energy=-1952.014312389297 stress="-0.19225504501557783 3.929096551389158e-17 3.2830686156114107e-16 3.929096551389158e-17 -0.19225504501557816 2.8033772496657684e-17 3.2830686156114107e-16 2.8033772496657684e-17 -0.19344389487374267" free_energy=-1952.014312389297 pbc="T T T"
Si       0.49842768       0.49842768       0.00000000       0.06201896       0.06201896       0.00000000
Si      -0.49842768      -0.49842768       2.93118970      -0.06201896      -0.06201896      -0.00000000
Si       2.19580784       3.19266320       4.39678455      -0.06201896       0.06201896       0.00000000
Si       3.19266320       2.19580784       1.46559485       0.06201896      -0.06201896      -0.00000000
Si       0.69381684       3.66858689       0.14787014       0.02298099       0.03188971       0.00379474
Si       0.97435136       2.00041868       1.61346499       0.03188971      -0.02298099       0.00379474
Si       1.71988416       4.69465420       2.78331956      -0.03188971      -0.02298099      -0.00379474
Si       2.00041868       0.97435136       4.24891441      -0.02298099       0.03188971      -0.00379474
Si       3.38805237       4.41411968       1.31772471       0.02298099      -0.03188971      -0.00379474
Si       3.66858689       0.69381684      -0.14787014       0.03188971       0.02298099      -0.00379474
Si       4.41411968       3.38805237       4.54465469      -0.03188971       0.02298099       0.00379474
Si       4.69465420       1.71988416       3.07905984      -0.02298099      -0.03188971       0.00379474
12
Lattice="5.392427188034941 -3.371956921319945e-64 -2.499987072408994e-48 3.6792469236482706e-64 5.392427188034941 8.824190948216669e-16 2.6395416319146956e-48 -7.191457222220718e-16 5.8537807151753585" Properties=species:S:1:pos:R:3:forces:R:3 cutoff=-1.0 nneightol=1.2 n_minim_iter=6 energy=-1952.015931028432 stress="-0.19092009091450016 6.356050483467791e-17 3.550651230216985e-16 6.356050483467791e-17 -0.19092009091450038 7.797096497671093e-17 3.550651230216985e-16 7.797096497671093e-17 -0.1929209303401252" free_energy=-1952.015931028432 pbc="T T T"
Si       0.50192774       0.50192774       0.00000000       0.03342110       0.03342110       0.00000000
Si      -0.50192774      -0.50192774       2.92689036      -0.03342110      -0.03342110      -0.00000000
Si       2.19428585       3.19814133       4.39033554      -0.03342110       0.03342110      -0.00000000
Si       3.19814133       2.19428585       1.46344518       0.03342110      -0.03342110      -0.00000000
Si       0.69518208       3.67408102       0.15155912       0.00795954       0.03132207      -0.00321053
Si       0.97786743       2.00103151       1.61500430       0.03132207      -0.00795954      -0.00321053
Si       1.71834616       4.69724510       2.77533124      -0.03132207      -0.00795954       0.00321053
Si       2.00103151       0.97786743       4.23877641      -0.00795954       0.03132207       0.00321053
Si       3.39139568       4.41455976       1.31188606       0.00795954      -0.03132207       0.00321053
Si       3.67408102       0.69518208      -0.15155912       0.03132207       0.00795954       0.00321053
Si       4.41455976       3.39139568       4.54189466      -0.03132207       0.00795954      -0.00321053
Si       4.69724510       1.71834616       3.07844948      -0.00795954      -0.03132207      -0.00321053
12
Lattice="5.391034430164232 -3.3576683804575666e-64 -2.5075856542901557e-48 -6.326577225980416e-64 5.391034430164232 8.664401082736249e-16 2.6317650982921825e-48 -7.372615594151267e-16 5.8568057198971095" Properties=species:S:1:pos:R:3:forces:R:3 cutoff=-1.0 nneightol=1.2 n_minim_iter=7 energy=-1952.017023014916 stress="-0.19059021124619008 -9.327690053928446e-17 1.9713596577106275e-16 -9.327690053928446e-17 -0.19059021124619008 -1.1617626372903805e-16 1.9713596577106275e-16 -1.1617626372903805e-16 -0.19205662086877637" free_energy=-1952.017023014916 pbc="T T T"
Si       0.50534387       0.50534387       0.00000000       0.00942004       0.00942004       0.00000000
Si      -0.50534388      -0.50534388       2.92840286      -0.00942004      -0.00942004      -0.00000000
Si       2.19017334       3.20086109       4.39260429      -0.00942004       0.00942004      -0.00000000
Si       3.20086109       2.19017334       1.46420143       0.00942004      -0.00942004       0.00000000
Si       0.69597353       3.67530963       0.15394274      -0.00852612       0.01622278      -0.00535448
Si       0.97979241       1.99954368       1.61814417       0.01622278       0.00852612      -0.00535448
Si       1.71572480       4.69506090       2.77446012      -0.01622278       0.00852612       0.00535448
Si       1.99954368       0.97979241       4.23866155       0.00852612       0.01622278       0.00535448
Si       3.39149074       4.41124201       1.31025869      -0.00852612      -0.01622278       0.00535448
Si       3.67530963       0.69597353      -0.15394274       0.01622278      -0.00852612       0.00535448
Si       4.41124201       3.39149074       4.54654703      -0.01622278      -0.00852612      -0.00535448
Si       4.69506090       1.71572480       3.08234560       0.00852612      -0.01622278      -0.00535448
12
Lattice="5.387092766684893 -1.2590352580940475e-63 -2.5125057715332784e-48 -2.042643578606712e-63 5.387092766684894 7.988303909837601e-16 2.628276909553844e-48 -8.134248658979479e-16 5.865379547714111" Properties=species:S:1:pos:R:3:forces:R:3 cutoff=-1.0 nneightol=1.2 n_minim_iter=8 energy=-1952.017349476102 stress="-0.19110304111034412 2.0332453030235145e-17 -2.6013030184459452e-18 2.0332453030235145e-17 -0.19110304111034387 3.1321181582108906e-17 -2.6013030184459452e-18 3.1321181582108906e-17 -0.19157505604882646" free_energy=-1952.017349476102 pbc="T T T"
Si       0.50656722       0.50656722       0.00000000       0.00278617       0.00278617       0.00000000
Si      -0.50656723      -0.50656723       2.93268977      -0.00278617      -0.00278617      -0.00000000
Si       2.18697916       3.20011361       4.39903466      -0.00278617       0.00278617      -0.00000000
Si       3.20011361       2.18697916       1.46634489       0.00278617      -0.00278617       0.00000000
Si       0.69575527       3.67295759       0.15391431      -0.01467997       0.00321935      -0.00298726
Si       0.97941120       1.99779110       1.62025920       0.00321935       0.01467997      -0.00298726
Si       1.71413518       4.69133749       2.77877546      -0.00321935       0.01467997       0.00298726
Si       1.99779110       0.97941120       4.24512035       0.01467997       0.00321935       0.00298726
Si       3.38930166       4.40768156       1.31243057      -0.01467997      -0.00321935       0.00298726
Si       3.67295759       0.69575527      -0.15391431       0.00321935      -0.01467997       0.00298726
Si       4.40768156       3.38930166       4.55294898      -0.00321935      -0.01467997      -0.00298726
Si       4.69133749       1.71413518       3.08660409       0.01467997      -0.00321935      -0.00298726
12
Lattice="5.384853303243554 -1.2318493218228613e-63 -2.5176097994697562e-48 -2.0207360755060783e-63 5.384853303243555 7.882519876035311e-16 2.6237346408649724e-48 -8.255083479427472e-16 5.8702591734698135" Properties=species:S:1:pos:R:3:forces:R:3 cutoff=-1.0 nneightol=1.2 n_minim_iter=9 energy=-1952.017418788951 stress="-0.1914926436275442 1.868901702915702e-16 7.63645495064895e-17 1.868901702915702e-16 -0.1914926436275429 -5.8923163990532e-17 7.63645495064895e-17 -5.8923163990532e-17 -0.19145692183407728" free_energy=-1952.017418788951 pbc="T T T"
Si       0.50667601       0.50667601       0.00000000       0.00327514       0.00327514       0.00000000
Si      -0.50667601      -0.50667601       2.93512959      -0.00327514      -0.00327514      -0.00000000
Si       2.18575064       3.19910266       4.40269438      -0.00327514       0.00327514      -0.00000000
Si       3.19910266       2.18575064       1.46756479       0.00327514      -0.00327514      -0.00000000
Si       0.69527720       3.67116586       0.15336627      -0.01405143      -0.00093997      -0.00120286
Si       0.97873921       1.99714945       1.62093106      -0.00093997       0.01405143      -0.00120286
Si       1.71368744       4.68957610       2.78176332       0.00093997       0.01405143       0.00120286
Si       1.99714945       0.97873921       4.24932811       0.01405143      -0.00093997       0.00120286
Si       3.38770385       4.40611409       1.31419853      -0.01405143       0.00093997       0.00120286
Si       3.67116586       0.69527720      -0.15336627      -0.00093997      -0.01405143       0.00120286
Si       4.40611409       3.38770385       4.55606065       0.00093997      -0.01405143      -0.00120286
Si       4.68957610       1.71368744       3.08849585       0.01405143       0.00093997      -0.00120286
12
Lattice="5.3825103006913455 -3.013312735587575e-64 -2.525936908550974e-48 -2.920825092656625e-63 5.3825103006913455 7.64944674985625e-16 2.6156673290513023e-48 -8.518035579067655e-16 5.875370924313512" Properties=species:S:1:pos:R:3:forces:R:3 cutoff=-1.0 nneightol=1.2 n_minim_iter=10 energy=-1952.017474293993 stress="-0.191916368073933 1.1648661509255418e-16 7.0277920830199455e-16 1.1648661509255418e-16 -0.19191636807393195 5.009711620456098e-17 7.0277920830199455e-16 5.009711620456098e-17 -0.19139786223672628" free_energy=-1952.017474293993 pbc="T T T"
Si       0.50678098       0.50678098       0.00000000       0.00436127       0.00436127       0.00000000
Si      -0.50678099      -0.50678099       2.93768546      -0.00436127      -0.00436127      -0.00000000
Si       2.18447416       3.19803613       4.40652819      -0.00436127       0.00436127       0.00000000
Si       3.19803613       2.18447416       1.46884273       0.00436127      -0.00436127       0.00000000
Si       0.69412132       3.66915071       0.15258049      -0.00872429      -0.00154953      -0.00004091
Si       0.97789556       1.99713383       1.62142322      -0.00154953       0.00872429      -0.00004091
Si       1.71335959       4.68838898       2.78510497       0.00154953       0.00872429       0.00004091
Si       1.99713383       0.97789556       4.25394770       0.00872429      -0.00154953       0.00004091
Si       3.38537647       4.40461474       1.31626224      -0.00872429       0.00154953       0.00004091
Si       3.66915071       0.69412132      -0.15258049      -0.00154953      -0.00872429       0.00004091
Si       4.40461474       3.38537647       4.55910869       0.00154953      -0.00872429      -0.00004091
Si       4.68838898       1.71335959       3.09026595       0.00872429       0.00154953      -0.00004091
