12
Lattice="6.002859816641503 6.472279285146375e-63 -2.52737828852727e-48 -6.229270694631685e-63 6.002859816641503 5.771777456984279e-16 3.1436563219257816e-48 -7.179172494185794e-16 7.466602169481953" Properties=species:S:1:pos:R:3:forces:R:3 cutoff=-1.0 nneightol=1.2 n_minim_iter=1 energy=-1953.779397108126 stress="0.08098646360459931 2.4327595995945226e-17 9.07162116017159e-18 2.4327595995945226e-17 0.08098646360459931 -2.95404713263691e-17 9.07162116017159e-18 -2.95404713263691e-17 0.07982636405739207" free_energy=-1953.779397108126 pbc="T T T"
Si       0.44284959       0.44284959       0.00000000       0.01352552       0.01352552      -0.00000000
Si      -0.44284959      -0.44284959       3.73330108      -0.01352552      -0.01352552      -0.00000000
Si       2.55858032       3.44427949       5.59995163      -0.01352552       0.01352552      -0.00000000
Si       3.44427949       2.55858032       1.86665054       0.01352552      -0.01352552      -0.00000000
Si       0.78136739       3.96755632      -0.21293639       0.03228597      -0.00193651      -0.06752223
Si       0.96612642       2.22006251       1.65371416      -0.00193651      -0.03228597      -0.06752223
Si       2.03530349       5.22149242       3.94623747       0.00193651      -0.03228597       0.06752223
Si       2.22006251       0.96612642       5.81288801      -0.03228597      -0.00193651       0.06752223
Si       3.78279730       5.03673339       2.07958693       0.03228597       0.00193651       0.06752223
Si       3.96755632       0.78136739       0.21293639      -0.00193651       0.03228597       0.06752223
Si       5.03673339       3.78279730       5.38701524       0.00193651       0.03228597      -0.06752223
Si       5.22149242       2.03530349       3.52036470      -0.03228597       0.00193651      -0.06752223
12
Lattice="5.9939442106660294 6.459040531411916e-63 -2.519755596917805e-48 -6.227010488366929e-63 5.9939442106660294 5.674429211532941e-16 3.157827623465408e-48 -7.310968517591455e-16 7.4888308687616885" Properties=species:S:1:pos:R:3:forces:R:3 cutoff=-1.0 nneightol=1.2 n_minim_iter=2 energy=-1953.780126978225 stress="0.0799536389210353 -4.514735340805542e-17 -6.028344519056187e-17 -4.514735340805542e-17 0.07995363892103537 -3.950285208180593e-17 -6.028344519056187e-17 -3.950285208180593e-17 0.08097355751388356" free_energy=-1953.780126978225 pbc="T T T"
Si       0.44238479       0.44238479       0.00000000       0.01819938       0.01819938       0.00000000
Si      -0.44238479      -0.44238479       3.74441543      -0.01819938      -0.01819938       0.00000000
Si       2.55458731       3.43935689       5.61662315      -0.01819938       0.01819938      -0.00000000
Si       3.43935689       2.55458731       1.87220772       0.01819938      -0.01819938       0.00000000
Si       0.78066743       3.96163598      -0.21453779       0.03354499      -0.00917103      -0.07008679
Si       0.96466388       2.21630467       1.65766993      -0.00917103      -0.03354499      -0.07008679
Si       2.03230822       5.21327678       3.95895322       0.00917103      -0.03354499       0.07008679
Si       2.21630467       0.96466388       5.83116094      -0.03354499      -0.00917103       0.07008679
Si       3.77763953       5.02928033       2.08674551       0.03354499       0.00917103       0.07008679
Si       3.96163598       0.78066743       0.21453779      -0.00917103       0.03354499       0.07008679
Si       5.02928033       3.77763953       5.40208536       0.00917103       0.03354499      -0.07008679
Si       5.21327678       2.03230822       3.52987764      -0.03354499       0.00917103      -0.07008679
12
Lattice="5.995253261256161 5.597085370361017e-63 -2.5214489287759492e-48 -6.990241813106755e-63 5.995253261256161 5.683717693144325e-16 3.155029718841358e-48 -7.297897027400754e-16 7.485560885733168" Properties=species:S:1:pos:R:3:forces:R:3 cutoff=-1.0 nneightol=1.2 n_minim_iter=3 energy=-1953.783397938726 stress="0.07943646782318471 -1.29213581525597e-16 3.299685336220992e-17 -1.29213581525597e-16 0.07943646782318477 1.0339004329520054e-17 3.299685336220992e-17 1.0339004329520054e-17 0.07890535963048931" free_energy=-1953.783397938726 pbc="T T T"
Si       0.44444767       0.44444767       0.00000000      -0.03771001      -0.03771001       0.00000000
Si      -0.44444767      -0.44444767       3.74278044       0.03771001       0.03771001       0.00000000
Si       2.55317896       3.44207430       5.61417066       0.03771001      -0.03771001      -0.00000000
Si       3.44207430       2.55317896       1.87139022      -0.03771001       0.03771001       0.00000000
Si       0.78487577       3.96178472      -0.22293724      -0.00946348       0.00940886      -0.01778720
Si       0.96415809       2.21275086       1.64845298       0.00940886       0.00946348      -0.01778720
Si       2.03346853       5.21037749       3.96571768      -0.00940886       0.00946348       0.01778720
Si       2.21275086       0.96415809       5.83710790       0.00946348       0.00940886       0.01778720
Si       3.78250240       5.03109516       2.09432746      -0.00946348      -0.00940886       0.01778720
Si       3.96178472       0.78487577       0.22293724       0.00940886      -0.00946348       0.01778720
Si       5.03109516       3.78250240       5.39123343      -0.00940886      -0.00946348      -0.01778720
Si       5.21037749       2.03346853       3.51984320       0.00946348      -0.00940886      -0.01778720
12
Lattice="5.989697448825088 5.590352013817866e-63 -2.5174823769499864e-48 -6.991864098306994e-63 5.989697448825088 5.537942077113158e-16 3.1629069537719774e-48 -7.485803890444162e-16 7.4994539614564" Properties=species:S:1:pos:R:3:forces:R:3 cutoff=-1.0 nneightol=1.2 n_minim_iter=4 energy=-1953.783836877817 stress="0.07857876770875966 -1.230056542075876e-16 -7.077835019658116e-17 -1.230056542075876e-16 0.0785787677087596 -5.227819866225363e-18 -7.077835019658116e-17 -5.227819866225363e-18 0.07923784724038715" free_energy=-1953.783836877817 pbc="T T T"
Si       0.44328632       0.44328632       0.00000000      -0.03451145      -0.03451145      -0.00000000
Si      -0.44328633      -0.44328633       3.74972698       0.03451145       0.03451145       0.00000000
Si       2.55156240       3.43813505       5.62459047       0.03451145      -0.03451145      -0.00000000
Si       3.43813505       2.55156240       1.87486349      -0.03451145       0.03451145      -0.00000000
Si       0.78498761       3.95821313      -0.22646578      -0.01381606       0.00080075      -0.00896137
Si       0.96336441       2.20986111       1.64839771       0.00080075       0.01381606      -0.00896137
Si       2.03148431       5.20470983       3.97619276      -0.00080075       0.01381606       0.00896137
Si       2.20986111       0.96336441       5.85105625       0.01381606       0.00080075       0.00896137
Si       3.77983633       5.02633303       2.10132927      -0.01381606      -0.00080075       0.00896137
Si       3.95821313       0.78498761       0.22646578       0.00080075      -0.01381606       0.00896137
Si       5.02633303       3.77983633       5.39812470      -0.00080075      -0.01381606      -0.00896137
Si       5.20470983       2.03148431       3.52326120       0.01381606      -0.00080075      -0.00896137
12
Lattice="5.993086678913445 5.176968677641838e-63 -2.5215290503174727e-48 -6.612367581027944e-63 5.993086678913445 5.311797538187758e-16 3.15607319531289e-48 -7.763525180606667e-16 7.4909741281701505" Properties=species:S:1:pos:R:3:forces:R:3 cutoff=-1.0 nneightol=1.2 n_minim_iter=5 energy=-1953.78478428358 stress="0.0786173578730466 -7.92054236468336e-17 -1.5291073370024245e-16 -7.92054236468336e-17 0.07861735787304668 -4.5251969392792664e-17 -1.5291073370024245e-16 -4.5251969392792664e-17 0.07870918001579855" free_energy=-1953.78478428358 pbc="T T T"
Si       0.43863547       0.43863547       0.00000000       0.00203412       0.00203412      -0.00000000
Si      -0.43863547      -0.43863547       3.74548706      -0.00203412      -0.00203412       0.00000000
Si       2.55790787       3.43517881       5.61823060      -0.00203412       0.00203412       0.00000000
Si       3.43517881       2.55790787       1.87274353       0.00203412      -0.00203412      -0.00000000
Si       0.78458849       3.96107071      -0.23002623      -0.00475705      -0.02300663      -0.00298184
Si       0.96452737       2.21195484       1.64271730      -0.02300663       0.00475705      -0.00298184
Si       2.03201596       5.20849818       3.97551329       0.02300663       0.00475705       0.00298184
Si       2.21195484       0.96452737       5.84825683       0.00475705      -0.02300663       0.00298184
Si       3.78113183       5.02855930       2.10276976      -0.00475705       0.02300663       0.00298184
Si       3.96107071       0.78458849       0.23002623      -0.02300663      -0.00475705       0.00298184
Si       5.02855930       3.78113183       5.38820437       0.02300663      -0.00475705      -0.00298184
Si       5.20849818       2.03201596       3.51546083       0.00475705       0.02300663      -0.00298184
12
Lattice="5.994314879826571 5.24784793873602e-63 -2.5232686351622935e-48 -6.703546049345548e-63 5.994314879826571 5.13055770124117e-16 3.153257929883607e-48 -7.987874521106559e-16 7.487904726948513" Properties=species:S:1:pos:R:3:forces:R:3 cutoff=-1.0 nneightol=1.2 n_minim_iter=6 energy=-1953.784942486843 stress="0.07869774902930764 -2.462700140292842e-17 3.044042280783313e-17 -2.462700140292842e-17 0.07869774902930783 -1.4854572205668234e-17 3.044042280783313e-17 -1.4854572205668234e-17 0.07822786049303367" free_energy=-1953.784942486843 pbc="T T T"
Si       0.43881152       0.43881152       0.00000000      -0.01096601      -0.01096601       0.00000000
Si      -0.43881153      -0.43881153       3.74395236       0.01096601       0.01096601       0.00000000
Si       2.55834591       3.43596896       5.61592855       0.01096601      -0.01096601      -0.00000000
Si       3.43596896       2.55834591       1.87197618      -0.01096601       0.01096601      -0.00000000
Si       0.78479987       3.96037087      -0.23114048      -0.00787799      -0.00899789       0.00478371
Si       0.96321343       2.21235757       1.64083570      -0.00899789       0.00787799       0.00478371
Si       2.03394400       5.20951501       3.97509285       0.00899789       0.00787799      -0.00478371
Si       2.21235757       0.96321343       5.84706903       0.00787799      -0.00899789      -0.00478371
Si       3.78195731       5.03110144       2.10311667      -0.00787799       0.00899789      -0.00478371
Si       3.96037087       0.78479987       0.23114048      -0.00899789      -0.00787799      -0.00478371
Si       5.03110144       3.78195731       5.38478806       0.00899789      -0.00787799       0.00478371
Si       5.20951501       2.03394400       3.51281188       0.00787799       0.00899789       0.00478371
12
Lattice="5.992401348168911 5.177935777653701e-63 -2.5223052771700773e-48 -7.499705146410446e-63 5.992401348168911 5.221250956698977e-16 3.155472248241941e-48 -7.876693008018654e-16 7.492687661074797" Properties=species:S:1:pos:R:3:forces:R:3 cutoff=-1.0 nneightol=1.2 n_minim_iter=7 energy=-1953.785164556412 stress="0.07849463705928307 -3.9335543876135645e-17 -2.9144275443685465e-17 -3.9335543876135645e-17 0.07849463705928302 6.047975421014199e-17 -2.9144275443685465e-17 6.047975421014199e-17 0.07850560072219717" free_energy=-1953.785164556412 pbc="T T T"
Si       0.43682566       0.43682566       0.00000000      -0.00217738      -0.00217738       0.00000000
Si      -0.43682567      -0.43682567       3.74634383       0.00217738       0.00217738       0.00000000
Si       2.55937500       3.43302634       5.61951575       0.00217738      -0.00217738       0.00000000
Si       3.43302634       2.55937500       1.87317192      -0.00217738       0.00217738      -0.00000000
Si       0.78338080       3.95681235      -0.23226413       0.00401610      -0.00100035       0.00141890
Si       0.96061168       2.21281987       1.64090778      -0.00100035      -0.00401610       0.00141890
Si       2.03558899       5.20902054       3.97860797       0.00100035      -0.00401610      -0.00141890
Si       2.21281987       0.96061168       5.85177988      -0.00401610      -0.00100035      -0.00141890
Si       3.77958148       5.03178966       2.10543605       0.00401610       0.00100035      -0.00141890
Si       3.95681235       0.78338080       0.23226413      -0.00100035       0.00401610      -0.00141890
Si       5.03178966       3.77958148       5.38725161       0.00100035       0.00401610       0.00141890
Si       5.20902054       2.03558899       3.51407970      -0.00401610       0.00100035       0.00141890
