12
Lattice="5.494258857371145 -1.332231753736443e-63 -2.3388186175866205e-48 1.5704882534751693e-63 5.494258857371145 5.597026097588173e-16 2.787500970174103e-48 -6.670767694339588e-16 6.548285437847772" Properties=species:S:1:pos:R:3:forces:R:3 cutoff=-1.0 nneightol=1.2 n_minim_iter=1 energy=-1955.379234529482 stress="-0.06967462147353255 5.397965620418858e-17 3.78147193275644e-17 5.397965620418858e-17 -0.06967462147353237 -6.175783135562731e-18 3.78147193275644e-17 -6.175783135562731e-18 -0.06728556588577722" free_energy=-1955.379234529482 pbc="T T T"
Si       0.46550215       0.46550215       0.00000000       0.00498967       0.00498967      -0.00000000
Si      -0.46550216      -0.46550216       3.27414272      -0.00498967      -0.00498967       0.00000000
Si       2.28162727       3.21263158       4.91121408      -0.00498967       0.00498967      -0.00000000
Si       3.21263158       2.28162727       1.63707136       0.00498967      -0.00498967       0.00000000
Si       0.70037426       3.67127581      -0.01120717       0.00139808       0.00513468       0.11692033
Si       0.92414638       2.04675516       1.62586419       0.00513468      -0.00139808       0.11692033
Si       1.82298304       4.79388459       3.28534989      -0.00513468      -0.00139808      -0.11692033
Si       2.04675516       0.92414638       4.92242125      -0.00139808       0.00513468      -0.11692033
Si       3.44750369       4.57011247       1.64827853       0.00139808      -0.00513468      -0.11692033
Si       3.67127581       0.70037426       0.01120717       0.00513468       0.00139808      -0.11692033
Si       4.57011247       3.44750369       4.90000691      -0.00513468       0.00139808       0.11692033
Si       4.79388459       1.82298304       3.26293555      -0.00139808      -0.00513468       0.11692033
12
Lattice="5.506628305606543 -1.3346777831935374e-63 -2.3489497606159368e-48 1.5642515733217277e-63 5.506628305606543 5.561406688725244e-16 2.7691928985364995e-48 -6.698303341248121e-16 6.518899868215073" Properties=species:S:1:pos:R:3:forces:R:3 cutoff=-1.0 nneightol=1.2 n_minim_iter=2 energy=-1955.380475124899 stress="-0.06707800507199237 9.855170527931039e-18 -1.1298781883091012e-17 9.855170527931039e-18 -0.06707800507199237 2.100127606176408e-16 -1.1298781883091012e-17 2.100127606176408e-16 -0.07024245022858781" free_energy=-1955.380475124899 pbc="T T T"
Si       0.46662160       0.46662160       0.00000000      -0.03229796      -0.03229796       0.00000000
Si      -0.46662161      -0.46662161       3.25944993       0.03229796       0.03229796       0.00000000
Si       2.28669255       3.21993575       4.88917490       0.03229796      -0.03229796      -0.00000000
Si       3.21993575       2.28669255       1.62972497      -0.03229796       0.03229796       0.00000000
Si       0.70197106       3.67961462      -0.00949408      -0.00583152       0.05599378       0.12605461
Si       0.92630046       2.05134309       1.62023088       0.05599378       0.00583152       0.12605461
Si       1.82701368       4.80465724       3.26894402      -0.05599378       0.00583152      -0.12605461
Si       2.05134309       0.92630046       4.89866899       0.00583152       0.05599378      -0.12605461
Si       3.45528521       4.58032784       1.63921905      -0.00583152      -0.05599378      -0.12605461
Si       3.67961462       0.70197106       0.00949408       0.05599378      -0.00583152      -0.12605461
Si       4.58032784       3.45528521       4.87968082      -0.05599378      -0.00583152       0.12605461
Si       4.80465724       1.82701368       3.24995585       0.00583152      -0.05599378       0.12605461
12
Lattice="5.501212062655168 -1.3289613224274724e-63 -2.345447554340616e-48 1.5535301693803233e-63 5.501212062655168 5.513126276206373e-16 2.776089352340679e-48 -6.762074468573106e-16 6.5317426113623736" Properties=species:S:1:pos:R:3:forces:R:3 cutoff=-1.0 nneightol=1.2 n_minim_iter=3 energy=-1955.387405827427 stress="-0.06730828333338629 -2.1782296320015738e-16 -9.01269824771614e-18 -2.1782296320015738e-16 -0.06730828333338604 5.917411811600262e-17 -9.01269824771614e-18 5.917411811600262e-17 -0.06423129962728376" free_energy=-1955.387405827427 pbc="T T T"
Si       0.46503788       0.46503788       0.00000000       0.08474569       0.08474569      -0.00000000
Si      -0.46503789      -0.46503789       3.26587131      -0.08474569      -0.08474569       0.00000000
Si       2.28556814       3.21564392       4.89880696      -0.08474569       0.08474569      -0.00000000
Si       3.21564392       2.28556814       1.63293565       0.08474569      -0.08474569      -0.00000000
Si       0.70110237       3.67863412       0.00161361       0.04172455      -0.02888651       0.02955983
Si       0.92802809       2.04950365       1.63454926      -0.02888651      -0.04172455       0.02955983
Si       1.82257794       4.80010969       3.26425770       0.02888651      -0.04172455      -0.02955983
Si       2.04950365       0.92802809       4.89719335      -0.04172455      -0.02888651      -0.02955983
Si       3.45170840       4.57318397       1.63132204       0.04172455       0.02888651      -0.02955983
Si       3.67863412       0.70110237      -0.00161361      -0.02888651       0.04172455      -0.02955983
Si       4.57318397       3.45170840       4.90042057       0.02888651       0.04172455       0.02955983
Si       4.80010969       1.82257794       3.26748491      -0.04172455       0.02888651       0.02955983
12
Lattice="5.513918959348507 -1.3314566455856393e-63 -2.3570880772427214e-48 1.559832736806863e-63 5.513918959348507 5.387502632325478e-16 2.7558495056196326e-48 -6.897608842785986e-16 6.501672331396428" Properties=species:S:1:pos:R:3:forces:R:3 cutoff=-1.0 nneightol=1.2 n_minim_iter=4 energy=-1955.390249747401 stress="-0.0639359696316309 -1.2512907299421652e-16 2.5769559658720563e-16 -1.2512907299421652e-16 -0.06393596963163095 -6.855400072728423e-17 2.5769559658720563e-16 -6.855400072728423e-17 -0.06520526794502168" free_energy=-1955.390249747401 pbc="T T T"
Si       0.46745798       0.46745798       0.00000000       0.06444624       0.06444624      -0.00000000
Si      -0.46745799      -0.46745799       3.25083617      -0.06444624      -0.06444624       0.00000000
Si       2.28950149       3.22441746       4.87625425      -0.06444624       0.06444624      -0.00000000
Si       3.22441746       2.28950149       1.62541808       0.06444624      -0.06444624       0.00000000
Si       0.70371929       3.68847088       0.00991284       0.04170676       0.00883932       0.00054714
Si       0.93151140       2.05324019       1.63533092       0.00883932      -0.04170676       0.00054714
Si       1.82544808       4.81019967       3.24092332      -0.00883932      -0.04170676      -0.00054714
Si       2.05324019       0.93151140       4.86634141      -0.04170676       0.00883932      -0.00054714
Si       3.46067876       4.58240756       1.61550524       0.04170676      -0.00883932      -0.00054714
Si       3.68847088       0.70371929      -0.00991284       0.00883932       0.04170676      -0.00054714
Si       4.58240756       3.46067876       4.88616709      -0.00883932       0.04170676       0.00054714
Si       4.81019967       1.82544808       3.26074901      -0.04170676      -0.00883932       0.00054714
12
Lattice="5.507432699346194 -8.164600653557149e-64 -2.3541183771984507e-48 1.1750786812983358e-63 5.507432699346194 5.435597500723378e-16 2.762639235365961e-48 -6.847299727568221e-16 6.516995758046799" Properties=species:S:1:pos:R:3:forces:R:3 cutoff=-1.0 nneightol=1.2 n_minim_iter=5 energy=-1955.393042578466 stress="-0.06342829014235095 -5.476069821397146e-18 1.2505447909440591e-18 -5.476069821397146e-18 -0.06342829014235132 -7.441762474129545e-17 1.2505447909440591e-18 -7.441762474129545e-17 -0.06326011896822967" free_energy=-1955.393042578466 pbc="T T T"
Si       0.47328946       0.47328946       0.00000000       0.00681280       0.00681280      -0.00000000
Si      -0.47328946      -0.47328946       3.25849788      -0.00681280      -0.00681280       0.00000000
Si       2.28042689       3.22700580       4.88774682      -0.00681280       0.00681280       0.00000000
Si       3.22700580       2.28042689       1.62924894       0.00681280      -0.00681280       0.00000000
Si       0.70691754       3.68516368       0.01556280       0.00606098       0.01408368      -0.00691747
Si       0.93144733       2.04679880       1.64481174       0.01408368      -0.00606098      -0.00691747
Si       1.82226901       4.80051515       3.24293508      -0.01408368      -0.00606098       0.00691747
Si       2.04679880       0.93144733       4.87218402      -0.00606098       0.01408368       0.00691747
Si       3.46063389       4.57598536       1.61368614       0.00606098      -0.01408368       0.00691747
Si       3.68516368       0.70691754      -0.01556280       0.01408368       0.00606098       0.00691747
Si       4.57598536       3.46063389       4.90330962      -0.01408368       0.00606098      -0.00691747
Si       4.80051515       1.82226901       3.27406068      -0.00606098      -0.01408368      -0.00691747
12
Lattice="5.507394137967174 -8.213680772136684e-64 -2.354852728595826e-48 1.1822091993575117e-63 5.507394137967174 5.436214044989134e-16 2.7617834218091567e-48 -6.846605335014296e-16 6.517087019074055" Properties=species:S:1:pos:R:3:forces:R:3 cutoff=-1.0 nneightol=1.2 n_minim_iter=6 energy=-1955.393092130982 stress="-0.06340261912871435 -1.155327871773931e-17 -3.3980154089648795e-16 -1.155327871773931e-17 -0.06340261912871473 1.3870425165413343e-16 -3.3980154089648795e-16 1.3870425165413343e-16 -0.0633489301119812" free_energy=-1955.393092130982 pbc="T T T"
Si       0.47371757       0.47371757       0.00000000       0.00039927       0.00039927      -0.00000000
Si      -0.47371758      -0.47371758       3.25854351      -0.00039927      -0.00039927       0.00000000
Si       2.27997949       3.22741464       4.88781526      -0.00039927       0.00039927       0.00000000
Si       3.22741464       2.27997949       1.62927175       0.00039927      -0.00039927      -0.00000000
Si       0.70720357       3.68534985       0.01543321       0.00109559       0.01402541      -0.00318468
Si       0.93165278       2.04649349       1.64470496       0.01402541      -0.00109559      -0.00318468
Si       1.82204428       4.80019056       3.24311030      -0.01402541      -0.00109559       0.00318468
Si       2.04649349       0.93165278       4.87238205      -0.00109559       0.01402541       0.00318468
Si       3.46090064       4.57574135       1.61383854       0.00109559      -0.01402541       0.00318468
Si       3.68534985       0.70720357      -0.01543321       0.01402541       0.00109559       0.00318468
Si       4.57574135       3.46090064       4.90324847      -0.01402541       0.00109559      -0.00318468
Si       4.80019056       1.82204428       3.27397672      -0.00109559      -0.01402541      -0.00318468
12
Lattice="5.5077176387503055 -1.4877421480606528e-63 -2.355890954558364e-48 1.3977403100480913e-63 5.5077176387503055 5.366269784050445e-16 2.760382991871302e-48 -6.929628510346881e-16 6.516321467541918" Properties=species:S:1:pos:R:3:forces:R:3 cutoff=-1.0 nneightol=1.2 n_minim_iter=7 energy=-1955.393135818884 stress="-0.06337131551714995 -2.210831554095316e-16 -5.360493155455166e-16 -2.210831554095316e-16 -0.06337131551715039 3.551756831259615e-16 -5.360493155455166e-16 3.551756831259615e-16 -0.06340586172206845" free_energy=-1955.393135818884 pbc="T T T"
Si       0.47405815       0.47405815       0.00000000      -0.00242901      -0.00242901      -0.00000000
Si      -0.47405816      -0.47405816       3.25816073       0.00242901       0.00242901       0.00000000
Si       2.27980066       3.22791697       4.88724110       0.00242901      -0.00242901       0.00000000
Si       3.22791697       2.27980066       1.62908037      -0.00242901       0.00242901      -0.00000000
Si       0.70747521       3.68606095       0.01533778      -0.00359730       0.00978185      -0.00003027
Si       0.93220213       2.04638360       1.64441815       0.00978185       0.00359730      -0.00003027
Si       1.82165669       4.80024242       3.24282295      -0.00978185       0.00359730       0.00003027
Si       2.04638360       0.93220213       4.87190332       0.00359730       0.00978185       0.00003027
Si       3.46133403       4.57551550       1.61374259      -0.00359730      -0.00978185       0.00003027
Si       3.68606095       0.70747521      -0.01533778       0.00978185      -0.00359730       0.00003027
Si       4.57551550       3.46133403       4.90257888      -0.00978185      -0.00359730      -0.00003027
Si       4.80024242       1.82165669       3.27349851       0.00359730      -0.00978185      -0.00003027
12
Lattice="5.508206448711479 -1.4867367335994237e-63 -2.357108083986256e-48 1.618762184574267e-63 5.508206448711479 5.334866871133522e-16 2.758685882248776e-48 -6.966549110145675e-16 6.515164974392794" Properties=species:S:1:pos:R:3:forces:R:3 cutoff=-1.0 nneightol=1.2 n_minim_iter=8 energy=-1955.393161019706 stress="-0.06335224644084826 -2.7139015901715855e-17 -4.427060196235767e-16 -2.7139015901715855e-17 -0.0633522464408487 4.725086907984591e-16 -4.427060196235767e-16 4.725086907984591e-16 -0.06339975850430672" free_energy=-1955.393161019706 pbc="T T T"
Si       0.47418847       0.47418847       0.00000000      -0.00070916      -0.00070916      -0.00000000
Si      -0.47418847      -0.47418847       3.25758249       0.00070916       0.00070916      -0.00000000
Si       2.27991475       3.22829169       4.88637373       0.00070916      -0.00070916       0.00000000
Si       3.22829169       2.27991475       1.62879124      -0.00070916       0.00070916       0.00000000
Si       0.70757337       3.68693282       0.01532239      -0.00570538       0.00358118       0.00107673
Si       0.93282960       2.04652985       1.64411363       0.00358118       0.00570538       0.00107673
Si       1.82127362       4.80063307       3.24226010      -0.00358118       0.00570538      -0.00107673
Si       2.04652985       0.93282960       4.87105134       0.00570538       0.00358118      -0.00107673
Si       3.46167660       4.57537685       1.61346885      -0.00570538      -0.00358118      -0.00107673
Si       3.68693282       0.70757337      -0.01532239       0.00358118      -0.00570538      -0.00107673
Si       4.57537685       3.46167660       4.90169612      -0.00358118      -0.00570538       0.00107673
Si       4.80063307       1.82127362       3.27290488       0.00570538      -0.00358118       0.00107673
