12
Lattice="5.420516550832569 -1.4713132823562918e-63 -2.3357258818728934e-48 1.680702716455859e-63 5.420516550832569 4.859298353093016e-16 2.737928489452778e-48 -5.696049995822386e-16 6.353907711197087" Properties=species:S:1:pos:R:3:forces:R:3 cutoff=-1.0 nneightol=1.2 n_minim_iter=1 energy=-1954.445145861823 stress="-0.1173530593073777 -8.863613692246671e-17 1.3915659781432663e-16 -8.863613692246671e-17 -0.11735305930737788 2.241008935538104e-17 1.3915659781432663e-16 2.241008935538104e-17 -0.11235379712484356" free_energy=-1954.445145861823 pbc="T T T"
Si       0.47449272       0.47449272       0.00000000       0.01110977       0.01110977       0.00000000
Si      -0.47449273      -0.47449273       3.17695386      -0.01110977      -0.01110977       0.00000000
Si       2.23576555       3.18475100       4.76543078      -0.01110977       0.01110977      -0.00000000
Si       3.18475100       2.23576555       1.58847693       0.01110977      -0.01110977      -0.00000000
Si       0.70241872       3.63560390       0.04416523      -0.00062485       0.01130540       0.14159335
Si       0.92534562       2.00783955       1.63264216       0.01130540       0.00062485       0.14159335
Si       1.78491265       4.71809782       3.13278862      -0.01130540       0.00062485      -0.14159335
Si       2.00783955       0.92534562       4.72126555       0.00062485       0.01130540      -0.14159335
Si       3.41267700       4.49517092       1.54431170      -0.00062485      -0.01130540      -0.14159335
Si       3.63560390       0.70241872      -0.04416523       0.01130540      -0.00062485      -0.14159335
Si       4.49517092       3.41267700       4.80959601      -0.01130540      -0.00062485       0.14159335
Si       4.71809782       1.78491265       3.22111909       0.00062485      -0.01130540       0.14159335
12
Lattice="5.4341360533109615 -1.46933192731737e-63 -2.3481813716127426e-48 1.6975865813394527e-63 5.4341360533109615 5.047154745162057e-16 2.7165121075271613e-48 -5.462425025512833e-16 6.322098195339491" Properties=species:S:1:pos:R:3:forces:R:3 cutoff=-1.0 nneightol=1.2 n_minim_iter=2 energy=-1954.448131238542 stress="-0.11396848340524561 -3.1583418534381444e-17 1.7154841805876725e-16 -3.1583418534381444e-17 -0.11396848340524561 4.39821713438108e-17 1.7154841805876725e-16 4.39821713438108e-17 -0.11550431305907033" free_energy=-1954.448131238542 pbc="T T T"
Si       0.47577477       0.47577477       0.00000000      -0.04242169      -0.04242169       0.00000000
Si      -0.47577477      -0.47577477       3.16104910       0.04242169       0.04242169       0.00000000
Si       2.24129326       3.19284279       4.74157365       0.04242169      -0.04242169      -0.00000000
Si       3.19284279       2.24129326       1.58052455      -0.04242169       0.04242169       0.00000000
Si       0.70417856       3.64483008       0.04508053      -0.01325556       0.07761365       0.15571025
Si       0.92776205       2.01288946       1.62560508       0.07761365       0.01325556       0.15571025
Si       1.78930597       4.72995749       3.11596857      -0.07761365       0.01325556      -0.15571025
Si       2.01288946       0.92776205       4.69649312       0.01325556       0.07761365      -0.15571025
Si       3.42124658       4.50637400       1.53544402      -0.01325556      -0.07761365      -0.15571025
Si       3.64483008       0.70417856      -0.04508053       0.07761365      -0.01325556      -0.15571025
Si       4.50637400       3.42124658       4.78665418      -0.07761365      -0.01325556       0.15571025
Si       4.72995749       1.78930597       3.20612963       0.01325556      -0.07761365       0.15571025
12
Lattice="5.447623234070114 3.142449214191786e-64 -2.3613595754602985e-48 4.821504137822306e-63 5.447623234070113 5.099672226424519e-16 2.6943774307045767e-48 -5.385817740124162e-16 6.290832549584606" Properties=species:S:1:pos:R:3:forces:R:3 cutoff=-1.0 nneightol=1.2 n_minim_iter=3 energy=-1954.460231443065 stress="-0.10988553292232137 1.0261126533544375e-16 3.2221777126117766e-16 1.0261126533544375e-16 -0.10988553292232137 6.647962756594416e-17 3.2221777126117766e-16 6.647962756594416e-17 -0.11013458255149407" free_energy=-1954.460231443065 pbc="T T T"
Si       0.47423507       0.47423507       0.00000000       0.08741247       0.08741247       0.00000000
Si      -0.47423508      -0.47423508       3.14541627      -0.08741247      -0.08741247      -0.00000000
Si       2.24957654       3.19804669       4.71812441      -0.08741247       0.08741247      -0.00000000
Si       3.19804669       2.24957654       1.57270814       0.08741247      -0.08741247      -0.00000000
Si       0.70495300       3.65980501       0.06001535       0.04056385       0.00195579       0.03751237
Si       0.93599339       2.01885861       1.63272348       0.00195579      -0.04056385       0.03751237
Si       1.78781822       4.74267022       3.08540093      -0.00195579      -0.04056385      -0.03751237
Si       2.01885861       0.93599339       4.65810907      -0.04056385       0.00195579      -0.03751237
Si       3.42876462       4.51162984       1.51269279       0.04056385      -0.00195579      -0.03751237
Si       3.65980501       0.70495300      -0.06001535       0.00195579       0.04056385      -0.03751237
Si       4.51162984       3.42876462       4.77813976      -0.00195579       0.04056385       0.03751237
Si       4.74267022       1.78781822       3.20543162      -0.04056385      -0.00195579       0.03751237
12
Lattice="5.452823461321967 3.1222931657060156e-64 -2.3714427619928756e-48 4.390232687266395e-63 5.452823461321966 5.46830647244307e-16 2.6799892927649226e-48 -4.945561443177842e-16 6.278839438152114" Properties=species:S:1:pos:R:3:forces:R:3 cutoff=-1.0 nneightol=1.2 n_minim_iter=4 energy=-1954.463608442046 stress="-0.10689206240124241 3.6449625149990506e-16 1.1319017736880453e-16 3.6449625149990506e-16 -0.10689206240124284 7.690245955732428e-17 1.1319017736880453e-16 7.690245955732428e-17 -0.10767526335469119" free_energy=-1954.463608442046 pbc="T T T"
Si       0.47852590       0.47852590       0.00000000       0.09029069       0.09029069      -0.00000000
Si      -0.47852590      -0.47852590       3.13941972      -0.09029069      -0.09029069       0.00000000
Si       2.24788583       3.20493763       4.70912958      -0.09029069       0.09029069       0.00000000
Si       3.20493763       2.24788583       1.56970986       0.09029069      -0.09029069       0.00000000
Si       0.70758680       3.66725089       0.07209534       0.03534352      -0.01621748      -0.02872602
Si       0.94083916       2.01882493       1.64180520      -0.01621748      -0.03534352      -0.02872602
Si       1.78557257       4.74523666       3.06732438       0.01621748      -0.03534352       0.02872602
Si       2.01882493       0.94083916       4.63703424      -0.03534352      -0.01621748       0.02872602
Si       3.43399853       4.51198430       1.49761452       0.03534352       0.01621748       0.02872602
Si       3.66725089       0.70758680      -0.07209534      -0.01621748       0.03534352       0.02872602
Si       4.51198430       3.43399853       4.78122492       0.01621748       0.03534352      -0.02872602
Si       4.74523666       1.78557257       3.21151506      -0.03534352       0.01621748      -0.02872602
12
Lattice="5.442020055885585 3.448136273673889e-63 -2.3683695469350602e-48 2.702518157110221e-63 5.4420200558855845 5.599092329233062e-16 2.6889878289286803e-48 -4.811306544969962e-16 6.3037934727678735" Properties=species:S:1:pos:R:3:forces:R:3 cutoff=-1.0 nneightol=1.2 n_minim_iter=5 energy=-1954.46668610388 stress="-0.1079538016750957 2.7528401220935024e-16 3.3065488336156536e-17 2.7528401220935024e-16 -0.10795380167509601 1.269156990256384e-16 3.3065488336156536e-17 1.269156990256384e-16 -0.1074845741078726" free_energy=-1954.46668610388 pbc="T T T"
Si       0.48403019       0.48403019       0.00000000       0.00945299       0.00945299       0.00000000
Si      -0.48403019      -0.48403019       3.15189674      -0.00945299      -0.00945299       0.00000000
Si       2.23697983       3.20504022       4.72784510      -0.00945299       0.00945299       0.00000000
Si       3.20504022       2.23697983       1.57594837       0.00945299      -0.00945299       0.00000000
Si       0.70896759       3.65926841       0.07233576      -0.00441343       0.00203645      -0.00099827
Si       0.93825838       2.01204243       1.64828413       0.00203645       0.00441343      -0.00099827
Si       1.78275165       4.73305246       3.07956098      -0.00203645       0.00441343       0.00099827
Si       2.01204243       0.93825838       4.65550934       0.00441343       0.00203645       0.00099827
Si       3.42997762       4.50376167       1.50361261      -0.00441343      -0.00203645       0.00099827
Si       3.65926841       0.70896759      -0.07233576       0.00203645      -0.00441343       0.00099827
Si       4.50376167       3.42997762       4.80018086      -0.00203645      -0.00441343      -0.00099827
Si       4.73305246       1.78275165       3.22423250       0.00441343      -0.00203645      -0.00099827
12
Lattice="5.442963679319354 3.446178258942604e-63 -2.371141887564411e-48 2.710409393875681e-63 5.442963679319353 5.513113754097967e-16 2.6852623768675622e-48 -4.910450010878697e-16 6.301607938574384" Properties=species:S:1:pos:R:3:forces:R:3 cutoff=-1.0 nneightol=1.2 n_minim_iter=6 energy=-1954.466720177344 stress="-0.10763884876039723 4.160945813385103e-17 2.425669728861505e-16 4.160945813385103e-17 -0.10763884876039717 4.564038734226653e-17 2.425669728861505e-16 4.564038734226653e-17 -0.10762129598263397" free_energy=-1954.466720177344 pbc="T T T"
Si       0.48449672       0.48449672       0.00000000       0.00377822       0.00377822       0.00000000
Si      -0.48449672      -0.48449672       3.15080397      -0.00377822      -0.00377822       0.00000000
Si       2.23698512       3.20597856       4.72620595      -0.00377822       0.00377822      -0.00000000
Si       3.20597856       2.23698512       1.57540198       0.00377822      -0.00377822       0.00000000
Si       0.70914946       3.66014088       0.07285320      -0.00636201       0.00577369      -0.00214110
Si       0.93865904       2.01233237       1.64825519       0.00577369       0.00636201      -0.00214110
Si       1.78282279       4.73381421       3.07795077      -0.00577369       0.00636201       0.00214110
Si       2.01233237       0.93865904       4.65335275       0.00636201       0.00577369       0.00214110
Si       3.43063130       4.50430463       1.50254878      -0.00636201      -0.00577369       0.00214110
Si       3.66014088       0.70914946      -0.07285320       0.00577369      -0.00636201       0.00214110
Si       4.50430463       3.43063130       4.79905915      -0.00577369      -0.00636201      -0.00214110
Si       4.73381421       1.78282279       3.22365717       0.00636201      -0.00577369      -0.00214110
