12
Lattice="5.869173918906322 -3.7504726959425767e-63 -2.4751517176773013e-48 3.9863314717097786e-63 5.869173918906322 5.592773022322301e-16 3.025009456868582e-48 -6.835213842374309e-16 7.173017509148415" Properties=species:S:1:pos:R:3:forces:R:3 cutoff=-1.0 nneightol=1.2 n_minim_iter=1 energy=-1955.256940901417 stress="0.055020625735408085 4.3616808369898813e-17 -3.6351143134513865e-17 4.3616808369898813e-17 0.05502062573540805 -5.203278313218735e-17 -3.6351143134513865e-17 -5.203278313218735e-17 0.05413220365979221" free_energy=-1955.256940901417 pbc="T T T"
Si       0.45348122       0.45348122       0.00000000       0.00989366       0.00989366      -0.00000000
Si      -0.45348123      -0.45348123       3.58650875      -0.00989366      -0.00989366       0.00000000
Si       2.48110573       3.38806818       5.37976313      -0.00989366       0.00989366      -0.00000000
Si       3.38806818       2.48110573       1.79325438       0.00989366      -0.00989366      -0.00000000
Si       0.75021044       3.89412463      -0.13918375       0.03165831      -0.00094117      -0.06281403
Si       0.95953767       2.18437651       1.65407063      -0.00094117      -0.03165831      -0.06281403
Si       1.97504929       5.11896347       3.72569250       0.00094117      -0.03165831       0.06281403
Si       2.18437651       0.95953767       5.51894688      -0.03165831      -0.00094117       0.06281403
Si       3.68479740       4.90963625       1.93243812       0.03165831       0.00094117       0.06281403
Si       3.89412463       0.75021044       0.13918375      -0.00094117       0.03165831       0.06281403
Si       4.90963625       3.68479740       5.24057938       0.00094117       0.03165831      -0.06281403
Si       5.11896347       1.97504929       3.44732501      -0.03165831       0.00094117      -0.06281403
12
Lattice="5.863041865868829 -3.748513776499912e-63 -2.4701222794455593e-48 3.978043782159913e-63 5.863041865868829 5.530112900251799e-16 3.0343266094736673e-48 -6.918957757652336e-16 7.188029622843845" Properties=species:S:1:pos:R:3:forces:R:3 cutoff=-1.0 nneightol=1.2 n_minim_iter=2 energy=-1955.257486908184 stress="0.054188062255694364 -3.500911111939023e-17 -1.0032660130715893e-17 -3.500911111939023e-17 0.05418806225569443 3.530723615297142e-17 -1.0032660130715893e-17 3.530723615297142e-17 0.05521222881101567" free_energy=-1955.257486908184 pbc="T T T"
Si       0.45314862       0.45314862       0.00000000       0.01419684       0.01419684       0.00000000
Si      -0.45314863      -0.45314863       3.59401481      -0.01419684      -0.01419684       0.00000000
Si       2.47837231       3.38466955       5.39102222      -0.01419684       0.01419684      -0.00000000
Si       3.38466955       2.47837231       1.79700741       0.01419684      -0.01419684       0.00000000
Si       0.74987842       3.89004265      -0.14037426       0.03112841      -0.00990422      -0.06326592
Si       0.95852172       2.18164251       1.65663315      -0.00990422      -0.03112841      -0.06326592
Si       1.97299921       5.11316344       3.73438907       0.00990422      -0.03112841       0.06326592
Si       2.18164251       0.95852172       5.53139648      -0.03112841      -0.00990422       0.06326592
Si       3.68139935       4.90452014       1.93738167       0.03112841       0.00990422       0.06326592
Si       3.89004265       0.74987842       0.14037426      -0.00990422       0.03112841       0.06326592
Si       4.90452014       3.68139935       5.25064796       0.00990422       0.03112841      -0.06326592
Si       5.11316344       1.97299921       3.45364055      -0.03112841       0.00990422      -0.06326592
12
Lattice="5.861053107489983 -3.331683168317939e-63 -2.4688446333561623e-48 3.951821366872877e-63 5.861053107489984 5.518452880418199e-16 3.036920923797256e-48 -6.935470512773359e-16 7.192908500135379" Properties=species:S:1:pos:R:3:forces:R:3 cutoff=-1.0 nneightol=1.2 n_minim_iter=3 energy=-1955.259982305147 stress="0.05346430907854532 -2.736455275173162e-17 -5.609921992792738e-17 -2.736455275173162e-17 0.05346430907854528 1.2246117350318377e-16 -5.609921992792738e-17 1.2246117350318377e-16 0.05377310419781643" free_energy=-1955.259982305147 pbc="T T T"
Si       0.45447117       0.45447117       0.00000000      -0.03646495      -0.03646495       0.00000000
Si      -0.45447118      -0.45447118       3.59645425       0.03646495       0.03646495      -0.00000000
Si       2.47605537       3.38499773       5.39468138       0.03646495      -0.03646495       0.00000000
Si       3.38499773       2.47605537       1.79822713      -0.03646495       0.03646495      -0.00000000
Si       0.75354932       3.88810501      -0.14838560      -0.01142792       0.00153505      -0.01236228
Si       0.95757846       2.17697723       1.64984152       0.00153505       0.01142792      -0.01236228
Si       1.97294809       5.10750379       3.74483985      -0.00153505       0.01142792       0.01236228
Si       2.17697723       0.95757846       5.54306698       0.01142792       0.00153505       0.01236228
Si       3.68407587       4.90347464       1.94661273      -0.01142792      -0.00153505       0.01236228
Si       3.88810501       0.75354932       0.14838560       0.00153505      -0.01142792       0.01236228
Si       4.90347464       3.68407587       5.24629577      -0.00153505      -0.01142792      -0.01236228
Si       5.10750379       1.97294809       3.44806865       0.01142792      -0.00153505      -0.01236228
12
Lattice="5.866065230834404 -3.3307641744614363e-63 -2.473330160866987e-48 2.3028461728444583e-63 5.866065230834405 5.54214210570064e-16 3.0288385226897483e-48 -6.900915770799027e-16 7.180622123696878" Properties=species:S:1:pos:R:3:forces:R:3 cutoff=-1.0 nneightol=1.2 n_minim_iter=4 energy=-1955.260537570465 stress="0.05392676386772549 8.125996172789885e-17 -3.909817319195436e-18 8.125996172789885e-17 0.053926763867725554 5.2459995559847263e-17 -3.909817319195436e-18 5.2459995559847263e-17 0.05286009832413535" free_energy=-1955.260537570465 pbc="T T T"
Si       0.45236787       0.45236787       0.00000000      -0.01984043      -0.01984043       0.00000000
Si      -0.45236788      -0.45236788       3.59031106       0.01984043       0.01984043      -0.00000000
Si       2.48066474       3.38540049       5.38546659       0.01984043      -0.01984043       0.00000000
Si       3.38540049       2.48066474       1.79515553      -0.01984043       0.01984043      -0.00000000
Si       0.75365589       3.89154856      -0.14953283      -0.00717781      -0.00539151      -0.00837827
Si       0.95851594       2.17937672       1.64562270      -0.00539151       0.00717781      -0.00837827
Si       1.97451667       5.11240933       3.73984389       0.00539151       0.00717781       0.00837827
Si       2.17937672       0.95851594       5.53499942       0.00717781      -0.00539151       0.00837827
Si       3.68668851       4.90754928       1.94468836      -0.00717781       0.00539151       0.00837827
Si       3.89154856       0.75365589       0.14953283      -0.00539151      -0.00717781       0.00837827
Si       4.90754928       3.68668851       5.23593376       0.00539151      -0.00717781      -0.00837827
Si       5.11240933       1.97451667       3.44077823       0.00717781       0.00539151      -0.00837827
12
Lattice="5.863062728077942 -3.4205737387158576e-63 -2.4710016747377086e-48 2.3775119849458295e-63 5.863062728077942 5.516105749756356e-16 3.0332406586699424e-48 -6.936171810239248e-16 7.187978469404985" Properties=species:S:1:pos:R:3:forces:R:3 cutoff=-1.0 nneightol=1.2 n_minim_iter=5 energy=-1955.261034471224 stress="0.053216190882682216 5.607749993945315e-17 -1.0798914996830179e-16 5.607749993945315e-17 0.05321619088268244 1.582448415519167e-16 -1.0798914996830179e-16 1.582448415519167e-16 0.053155287885143315" free_energy=-1955.261034471224 pbc="T T T"
Si       0.44920997       0.44920997       0.00000000       0.00236577       0.00236577       0.00000000
Si      -0.44920998      -0.44920998       3.59398923      -0.00236577      -0.00236577      -0.00000000
Si       2.48232139       3.38074134       5.39098385      -0.00236577       0.00236577      -0.00000000
Si       3.38074134       2.48232139       1.79699462       0.00236577      -0.00236577      -0.00000000
Si       0.75345965       3.88925785      -0.15352972      -0.00488852      -0.02306806       0.00026649
Si       0.95772648       2.17807171       1.64346490      -0.02306806       0.00488852       0.00026649
Si       1.97380487       5.10960307       3.74751895       0.02306806       0.00488852      -0.00026649
Si       2.17807171       0.95772648       5.54451357       0.00488852      -0.02306806      -0.00026649
Si       3.68499101       4.90533624       1.95052434      -0.00488852       0.02306806      -0.00026649
Si       3.88925785       0.75345965       0.15352972      -0.02306806      -0.00488852      -0.00026649
Si       4.90533624       3.68499101       5.23745413       0.02306806      -0.00488852       0.00026649
Si       5.10960307       1.97380487       3.44045952       0.00488852       0.02306806       0.00026649
12
Lattice="5.86071763188517 2.2771432401935032e-63 -2.46943983093571e-48 7.236082878136644e-64 5.860717631885168 5.568036832994035e-16 3.0363688289889434e-48 -6.875446118382127e-16 7.1937319878186345" Properties=species:S:1:pos:R:3:forces:R:3 cutoff=-1.0 nneightol=1.2 n_minim_iter=6 energy=-1955.261225473231 stress="0.05300098357571236 2.1332538982921855e-17 -4.58399259780808e-17 2.1332538982921855e-17 0.05300098357571258 1.0370434375030823e-16 -4.58399259780808e-17 1.0370434375030823e-16 0.053468750554266045" free_energy=-1955.261225473231 pbc="T T T"
Si       0.44896040       0.44896040       0.00000000      -0.00298364      -0.00298364       0.00000000
Si      -0.44896040      -0.44896040       3.59686599       0.00298364       0.00298364      -0.00000000
Si       2.48139841       3.37931921       5.39529899       0.00298364      -0.00298364      -0.00000000
Si       3.37931921       2.48139841       1.79843300      -0.00298364       0.00298364      -0.00000000
Si       0.75282041       3.88600022      -0.15395855      -0.00028062      -0.00973175      -0.00088608
Si       0.95564140       2.17753840       1.64447445      -0.00973175       0.00028062      -0.00088608
Si       1.97471741       5.10789722       3.75082454       0.00973175       0.00028062       0.00088608
Si       2.17753840       0.95564140       5.54925754       0.00028062      -0.00973175       0.00088608
Si       3.68317922       4.90507622       1.95239155      -0.00028062       0.00973175       0.00088608
Si       3.88600022       0.75282041       0.15395855      -0.00973175      -0.00028062       0.00088608
Si       4.90507622       3.68317922       5.24134044       0.00973175      -0.00028062      -0.00088608
Si       5.10789722       1.97471741       3.44290745       0.00028062       0.00973175      -0.00088608
