12
Lattice="5.830954794961681 -2.552570922908887e-63 -2.4602963279572008e-48 2.790646183427694e-63 5.830954794961681 5.642434474698142e-16 2.998226279634773e-48 -6.876121030999436e-16 7.105860258764986" Properties=species:S:1:pos:R:3:forces:R:3 cutoff=-1.0 nneightol=1.2 n_minim_iter=1 energy=-1955.525145404805 stress="0.04580008137895753 -8.316107901108209e-17 -4.6662074412331104e-17 -8.316107901108209e-17 0.04580008137895765 -6.591680295918248e-17 -4.6662074412331104e-17 -6.591680295918248e-17 0.04512535737913433" free_energy=-1955.525145404805 pbc="T T T"
Si       0.45556565       0.45556565       0.00000000       0.00545022       0.00545022      -0.00000000
Si      -0.45556565      -0.45556565       3.55293013      -0.00545022      -0.00545022      -0.00000000
Si       2.45991175       3.37104304       5.32939519      -0.00545022       0.00545022      -0.00000000
Si       3.37104304       2.45991175       1.77646506       0.00545022      -0.00545022       0.00000000
Si       0.74096927       3.87153616      -0.12473576       0.03628922       0.00482749      -0.05830067
Si       0.95605876       2.17450812       1.65172931       0.00482749      -0.03628922      -0.05830067
Si       1.95941863       5.08998552       3.67766589      -0.00482749      -0.03628922       0.05830067
Si       2.17450812       0.95605876       5.45413095      -0.03628922       0.00482749       0.05830067
Si       3.65644667       4.87489603       1.90120082       0.03628922      -0.00482749       0.05830067
Si       3.87153616       0.74096927       0.12473576       0.00482749       0.03628922       0.05830067
Si       4.87489603       3.65644667       5.20465944      -0.00482749       0.03628922      -0.05830067
Si       5.08998552       1.95941863       3.42819437      -0.03628922      -0.00482749      -0.05830067
12
Lattice="5.826430259467943 -2.551837710169196e-63 -2.45659467315328e-48 2.7875348620979346e-63 5.826430259467943 5.641092261837132e-16 3.0050691785716347e-48 -6.883104677684178e-16 7.116900706826582" Properties=species:S:1:pos:R:3:forces:R:3 cutoff=-1.0 nneightol=1.2 n_minim_iter=2 energy=-1955.525658792867 stress="0.0451648468587982 1.932809718156474e-17 -3.544621342187726e-17 1.932809718156474e-17 0.04516484685879838 7.005160207382376e-17 -3.544621342187726e-17 7.005160207382376e-17 0.045960502148179455" free_energy=-1955.525658792867 pbc="T T T"
Si       0.45528995       0.45528995       0.00000000       0.00878710       0.00878710      -0.00000000
Si      -0.45528996      -0.45528996       3.55845035      -0.00878710      -0.00878710       0.00000000
Si       2.45792517       3.36850508       5.33767553      -0.00878710       0.00878710      -0.00000000
Si       3.36850508       2.45792517       1.77922518       0.00878710      -0.00878710       0.00000000
Si       0.74091233       3.86860095      -0.12576372       0.03395686      -0.00381550      -0.05735856
Si       0.95538582       2.17230279       1.65346146      -0.00381550      -0.03395686      -0.05735856
Si       1.95782931       5.08551792       3.68421407       0.00381550      -0.03395686       0.05735856
Si       2.17230279       0.95538582       5.46343925      -0.03395686      -0.00381550       0.05735856
Si       3.65412746       4.87104444       1.90498890       0.03395686       0.00381550       0.05735856
Si       3.86860095       0.74091233       0.12576372      -0.00381550       0.03395686       0.05735856
Si       4.87104444       3.65412746       5.21191181       0.00381550       0.03395686      -0.05735856
Si       5.08551792       1.95782931       3.43268663      -0.03395686       0.00381550      -0.05735856
12
Lattice="5.822716733706639 -2.5516316801368834e-63 -2.45384911096732e-48 2.785020533631175e-63 5.822716733706639 5.650961557666916e-16 3.010337438737045e-48 -6.875532229200799e-16 7.12598142395787" Properties=species:S:1:pos:R:3:forces:R:3 cutoff=-1.0 nneightol=1.2 n_minim_iter=3 energy=-1955.527735911868 stress="0.04421828455220433 -9.77709125806905e-17 -1.9220394759378313e-18 -9.77709125806905e-17 0.04421828455220445 -4.367112710780544e-18 -1.9220394759378313e-18 -4.367112710780544e-18 0.04521803196654727" free_energy=-1955.527735911868 pbc="T T T"
Si       0.45582118       0.45582118       0.00000000      -0.02653197      -0.02653197      -0.00000000
Si      -0.45582118      -0.45582118       3.56299071       0.02653197       0.02653197      -0.00000000
Si       2.45553718       3.36717955       5.34448607       0.02653197      -0.02653197      -0.00000000
Si       3.36717955       2.45553718       1.78149536      -0.02653197       0.02653197       0.00000000
Si       0.74468729       3.86628549      -0.13292343      -0.00760324      -0.00842848      -0.01276492
Si       0.95492712       2.16667108       1.64857193      -0.00842848       0.00760324      -0.01276492
Si       1.95643124       5.07802944       3.69591414       0.00842848       0.00760324       0.01276492
Si       2.16667108       0.95492712       5.47740949       0.00760324      -0.00842848       0.01276492
Si       3.65604565       4.86778961       1.91441878      -0.00760324       0.00842848       0.01276492
Si       3.86628549       0.74468729       0.13292343      -0.00842848      -0.00760324       0.01276492
Si       4.86778961       3.65604565       5.21156264       0.00842848      -0.00760324      -0.01276492
Si       5.07802944       1.95643124       3.43006729       0.00760324       0.00842848      -0.01276492
12
Lattice="5.825220897353336 -2.553913782004378e-63 -2.4561353303245225e-48 2.7841462019663414e-63 5.825220897353336 5.635207579119219e-16 3.00625365413758e-48 -6.891696202752422e-16 7.11985606377229" Properties=species:S:1:pos:R:3:forces:R:3 cutoff=-1.0 nneightol=1.2 n_minim_iter=4 energy=-1955.527970202781 stress="0.04450677331678682 -2.322647610462615e-17 -1.4592870438113773e-16 -2.322647610462615e-17 0.04450677331678699 2.415074609406648e-18 -1.4592870438113773e-16 2.415074609406648e-18 0.044647056058589304" free_energy=-1955.527970202781 pbc="T T T"
Si       0.45563957       0.45563957       0.00000000      -0.02808704      -0.02808704      -0.00000000
Si      -0.45563958      -0.45563958       3.55992803       0.02808704       0.02808704      -0.00000000
Si       2.45697087       3.36825002       5.33989205       0.02808704      -0.02808704      -0.00000000
Si       3.36825002       2.45697087       1.77996402      -0.02808704       0.02808704      -0.00000000
Si       0.74500101       3.86788307      -0.13313908      -0.00877945      -0.00544585      -0.00948281
Si       0.95527262       2.16760943       1.64682494      -0.00544585       0.00877945      -0.00948281
Si       1.95733782       5.08021988       3.69306711       0.00544585       0.00877945       0.00948281
Si       2.16760943       0.95527262       5.47303113       0.00877945      -0.00544585       0.00948281
Si       3.65761146       4.86994827       1.91310309      -0.00877945       0.00544585       0.00948281
Si       3.86788307       0.74500101       0.13313908      -0.00544585      -0.00877945       0.00948281
Si       4.86994827       3.65761146       5.20675297       0.00544585      -0.00877945      -0.00948281
Si       5.08021988       1.95733782       3.42678895       0.00877945       0.00544585      -0.00948281
12
Lattice="5.829121381994609 -3.598809316024565e-63 -2.4594839297680522e-48 3.512493354480722e-63 5.829121381994609 5.587523393536594e-16 3.000157822360074e-48 -6.945262785426663e-16 7.110330924001948" Properties=species:S:1:pos:R:3:forces:R:3 cutoff=-1.0 nneightol=1.2 n_minim_iter=5 energy=-1955.528272163685 stress="0.044855837010875144 -7.933180914225723e-18 -1.1360765624304058e-16 -7.933180914225723e-18 0.04485583701087505 5.112334463807174e-17 -1.1360765624304058e-16 5.112334463807174e-17 0.04372886024940506" free_energy=-1955.528272163685 pbc="T T T"
Si       0.45407301       0.45407301       0.00000000      -0.02096753      -0.02096753       0.00000000
Si      -0.45407302      -0.45407302       3.55516546       0.02096753       0.02096753      -0.00000000
Si       2.46048768       3.36863370       5.33274819       0.02096753      -0.02096753      -0.00000000
Si       3.36863370       2.46048768       1.77758273      -0.02096753       0.02096753       0.00000000
Si       0.74545742       3.87014665      -0.13456037      -0.00867430      -0.00588933      -0.00252004
Si       0.95558596       2.16910326       1.64302236      -0.00588933       0.00867430      -0.00252004
Si       1.95897473       5.08366395       3.68972583       0.00588933       0.00867430       0.00252004
Si       2.16910326       0.95558596       5.46730856       0.00867430      -0.00588933       0.00252004
Si       3.66001811       4.87353542       1.91214310      -0.00867430       0.00588933       0.00252004
Si       3.87014665       0.74545742       0.13456037      -0.00588933      -0.00867430       0.00252004
Si       4.87353542       3.66001811       5.19818782       0.00588933      -0.00867430      -0.00252004
Si       5.08366395       1.95897473       3.42060509       0.00867430       0.00588933      -0.00252004
12
Lattice="5.825949545630593 -3.7049796075884793e-63 -2.4569485989915568e-48 3.50249437187285e-63 5.825949545630592 5.483699234496638e-16 3.0048856227962325e-48 -7.075427385096739e-16 7.118075222248514" Properties=species:S:1:pos:R:3:forces:R:3 cutoff=-1.0 nneightol=1.2 n_minim_iter=6 energy=-1955.528742301558 stress="0.04422834785515587 -1.063067782990687e-17 -3.0629671349675535e-17 -1.063067782990687e-17 0.04422834785515582 4.417962162244276e-17 -3.0629671349675535e-17 4.417962162244276e-17 0.044302922621521475" free_energy=-1955.528742301558 pbc="T T T"
Si       0.45063449       0.45063449       0.00000000       0.00583452       0.00583452      -0.00000000
Si      -0.45063449      -0.45063449       3.55903761      -0.00583452      -0.00583452      -0.00000000
Si       2.46234028       3.36360926       5.33855642      -0.00583452       0.00583452       0.00000000
Si       3.36360926       2.46234028       1.77951881       0.00583452      -0.00583452       0.00000000
Si       0.74492485       3.86711096      -0.13749048      -0.00135329      -0.02017014      -0.00073541
Si       0.95413618       2.16804991       1.64202832      -0.02017014       0.00135329      -0.00073541
Si       1.95883858       5.08102469       3.69652810       0.02017014       0.00135329       0.00073541
Si       2.16804991       0.95413618       5.47604690       0.00135329      -0.02017014       0.00073541
Si       3.65789963       4.87181336       1.91700929      -0.00135329       0.02017014       0.00073541
Si       3.86711096       0.74492485       0.13749048      -0.02017014      -0.00135329       0.00073541
Si       4.87181336       3.65789963       5.20106593       0.02017014      -0.00135329      -0.00073541
Si       5.08102469       1.95883858       3.42154713       0.00135329       0.02017014      -0.00073541
12
Lattice="5.825372481146328 -3.722483050614008e-63 -2.4566797477874427e-48 3.53803448167777e-63 5.825372481146329 5.551034354695859e-16 3.005511928572699e-48 -6.994008797242273e-16 7.119485532703448" Properties=species:S:1:pos:R:3:forces:R:3 cutoff=-1.0 nneightol=1.2 n_minim_iter=7 energy=-1955.528902151073 stress="0.044217126302150425 -1.034531128712171e-16 -1.0752740575051665e-17 -1.034531128712171e-16 0.04421712630215019 -7.451783541174964e-17 -1.0752740575051665e-17 -7.451783541174964e-17 0.044239513297228625" free_energy=-1955.528902151073 pbc="T T T"
Si       0.45009691       0.45009691       0.00000000       0.00093392       0.00093392       0.00000000
Si      -0.45009691      -0.45009691       3.55974277      -0.00093392      -0.00093392      -0.00000000
Si       2.46258933       3.36278315       5.33961415      -0.00093392       0.00093392      -0.00000000
Si       3.36278315       2.46258933       1.77987138       0.00093392      -0.00093392       0.00000000
Si       0.74461165       3.86506291      -0.13814502       0.00196280      -0.00615906       0.00050261
Si       0.95237667       2.16807459       1.64172636      -0.00615906      -0.00196280       0.00050261
Si       1.96030956       5.08076083       3.69788779       0.00615906      -0.00196280      -0.00050261
Si       2.16807459       0.95237667       5.47775917      -0.00196280      -0.00615906      -0.00050261
Si       3.65729789       4.87299580       1.91801641       0.00196280       0.00615906      -0.00050261
Si       3.86506291       0.74461165       0.13814502      -0.00615906       0.00196280      -0.00050261
Si       4.87299580       3.65729789       5.20146913       0.00615906       0.00196280       0.00050261
Si       5.08076083       1.96030956       3.42159774      -0.00196280       0.00615906       0.00050261
