12
Lattice="5.324000119886098 -2.980556741983747e-64 -2.4984788978894833e-48 -2.8890744791464393e-63 5.324000119886098 7.566294003759932e-16 2.5872339104790214e-48 -8.425440902235775e-16 5.8115031384896145" Properties=species:S:1:pos:R:3:forces:R:3 cutoff=-1.0 nneightol=1.2 n_minim_iter=10 energy=-1952.017474293993 stress="-0.191916368073933 1.1648661509255418e-16 7.0277920830199455e-16 1.1648661509255418e-16 -0.19191636807393195 5.009711620456098e-17 7.0277920830199455e-16 5.009711620456098e-17 -0.19139786223672628" free_energy=-1952.017474293993 pbc="T T T"
Si       0.50127206       0.50127206       0.00000000       0.00436127       0.00436127       0.00000000
Si      -0.50127206      -0.50127206       2.90575157      -0.00436127      -0.00436127      -0.00000000
Si       2.16072800       3.16327212       4.35862735      -0.00436127       0.00436127       0.00000000
Si       3.16327212       2.16072800       1.45287578       0.00436127      -0.00436127       0.00000000
Si       0.68657592       3.62926548       0.15092188      -0.00872429      -0.00154953      -0.00004091
Si       0.96726542       1.97542413       1.60379766      -0.00154953       0.00872429      -0.00004091
Si       1.69473464       4.63742419       2.75482969       0.00154953       0.00872429       0.00004091
Si       1.97542413       0.96726542       4.20770548       0.00872429      -0.00154953       0.00004091
Si       3.34857598       4.35673470       1.30195391      -0.00872429       0.00154953       0.00004091
Si       3.62926548       0.68657592      -0.15092188      -0.00154953      -0.00872429       0.00004091
Si       4.35673470       3.34857598       4.50954923       0.00154953      -0.00872429      -0.00004091
Si       4.63742419       1.69473464       3.05667345       0.00872429       0.00154953      -0.00004091
