12
Lattice="5.344400216946053 -2.237429440657272e-64 -2.4443061604954462e-48 4.288485246120418e-64 5.344400216946053 7.670694645966559e-16 2.5381629133299895e-48 -6.30384337715713e-16 5.959462386628826" Properties=species:S:1:pos:R:3:forces:R:3 cutoff=-1.0 nneightol=1.2 n_minim_iter=9 energy=-1952.98421042305 stress="-0.16166544630202984 -4.415180020721737e-16 -4.459508542653364e-17 -4.415180020721737e-16 -0.16166544630203034 5.899108096618591e-16 -4.459508542653364e-17 5.899108096618591e-16 -0.1616352371592728" free_energy=-1952.98421042305 pbc="T T T"
Si       0.49483121       0.49483121       0.00000000      -0.00315517      -0.00315517      -0.00000000
Si      -0.49483121      -0.49483121       2.97973119       0.00315517       0.00315517      -0.00000000
Si       2.17736889       3.16703132       4.46959679       0.00315517      -0.00315517      -0.00000000
Si       3.16703132       2.17736889       1.48986560      -0.00315517       0.00315517      -0.00000000
Si       0.69033913       3.62546956       0.12364843      -0.00018632       0.00472450      -0.00690970
Si       0.95326945       1.98186097       1.61351403       0.00472450       0.00018632      -0.00690970
Si       1.71893065       4.65406108       2.85608276      -0.00472450       0.00018632       0.00690970
Si       1.98186097       0.95326945       4.34594836       0.00018632       0.00472450       0.00690970
Si       3.36253924       4.39113076       1.36621716      -0.00018632      -0.00472450       0.00690970
Si       3.62546956       0.69033913      -0.12364843       0.00472450      -0.00018632       0.00690970
Si       4.39113076       3.36253924       4.59324522      -0.00472450      -0.00018632      -0.00690970
Si       4.65406108       1.71893065       3.10337963       0.00018632      -0.00472450      -0.00690970
