12
Lattice="5.939085771866414 2.2322719831926308e-63 -2.5015963285062082e-48 -2.186596688089417e-63 5.939085771866413 5.673756476164667e-16 3.083890597789885e-48 -6.912746941258383e-16 7.316476774620738" Properties=species:S:1:pos:R:3:forces:R:3 cutoff=-1.0 nneightol=1.2 n_minim_iter=8 energy=-1954.947328571255 stress="0.061055547023234485 -1.3187703080998894e-17 4.837730377523194e-17 -1.3187703080998894e-17 0.06105554702323427 -3.5326084559851134e-17 4.837730377523194e-17 -3.5326084559851134e-17 0.06105309595374488" free_energy=-1954.947328571255 pbc="T T T"
Si       0.44867017       0.44867017       0.00000000      -0.00201801      -0.00201801       0.00000000
Si      -0.44867018      -0.44867018       3.65823839       0.00201801       0.00201801      -0.00000000
Si       2.52087271       3.41821306       5.48735758       0.00201801      -0.00201801       0.00000000
Si       3.41821306       2.52087271       1.82911919      -0.00201801       0.00201801       0.00000000
Si       0.76591579       3.93301807      -0.17384544       0.00410686      -0.00052752       0.00155075
Si       0.96347518       2.20362710       1.65527376      -0.00052752      -0.00410686       0.00155075
Si       2.00606770       5.17316998       3.83208383       0.00052752      -0.00410686      -0.00155075
Si       2.20362710       0.96347518       5.66120302      -0.00410686      -0.00052752      -0.00155075
Si       3.73545867       4.97561058       2.00296463       0.00410686       0.00052752      -0.00155075
Si       3.93301807       0.76591579       0.17384544      -0.00052752       0.00410686      -0.00155075
Si       4.97561058       3.73545867       5.31351214       0.00052752       0.00410686       0.00155075
Si       5.17316998       2.00606770       3.48439295      -0.00410686       0.00052752       0.00155075
