12
Lattice="5.584297540051688 -2.468981468366555e-63 -2.370233421942819e-48 1.7408515188911855e-63 5.584297540051688 4.969717087426954e-16 2.8246973933770134e-48 -6.318011546183036e-16 6.690981537198085" Properties=species:S:1:pos:R:3:forces:R:3 cutoff=-1.0 nneightol=1.2 n_minim_iter=6 energy=-1955.890175539227 stress="-0.028289228853916087 -9.950041035801803e-17 2.859763841318452e-16 -9.950041035801803e-17 -0.02828922885391664 9.825906210604222e-17 2.859763841318452e-16 9.825906210604222e-17 -0.02835364088308425" free_energy=-1955.890175539227 pbc="T T T"
Si       0.46539629       0.46539629       0.00000000       0.00087808       0.00087808      -0.00000000
Si      -0.46539629      -0.46539629       3.34549077      -0.00087808      -0.00087808      -0.00000000
Si       2.32675248       3.25754506       5.01823615      -0.00087808       0.00087808      -0.00000000
Si       3.25754506       2.32675248       1.67274538       0.00087808      -0.00087808      -0.00000000
Si       0.70712855       3.72634523      -0.03633237      -0.00505115       0.00205460       0.00159679
Si       0.93419646       2.08502022       1.63641301       0.00205460       0.00505115       0.00159679
Si       1.85795231       4.87716899       3.38182314      -0.00205460       0.00505115      -0.00159679
Si       2.08502022       0.93419646       5.05456853       0.00505115       0.00205460      -0.00159679
Si       3.49927732       4.65010108       1.70907776      -0.00505115      -0.00205460      -0.00159679
Si       3.72634523       0.70712855       0.03633237       0.00205460      -0.00505115      -0.00159679
Si       4.65010108       3.49927732       4.98190378      -0.00205460      -0.00505115       0.00159679
Si       4.87716899       1.85795231       3.30915839       0.00505115      -0.00205460       0.00159679
