12
Lattice="5.746745649166054 -6.638924522017495e-63 -2.4257936770804858e-48 6.711092432753603e-63 5.746745649166054 5.440250063267285e-16 2.950582130427032e-48 -6.482250079548327e-16 6.983106637885439" Properties=species:S:1:pos:R:3:forces:R:3 cutoff=-1.0 nneightol=1.2 n_minim_iter=7 energy=-1955.905937042698 stress="0.023883346077711684 6.515996542287483e-17 -2.9461895015400787e-16 6.515996542287483e-17 0.02388334607771195 3.4191500000002185e-16 -2.9461895015400787e-16 3.4191500000002185e-16 0.023971827979124144" free_energy=-1955.905937042698 pbc="T T T"
Si       0.45449107       0.45449107       0.00000000      -0.00093935      -0.00093935       0.00000000
Si      -0.45449108      -0.45449108       3.49155332       0.00093935       0.00093935       0.00000000
Si       2.41888175       3.32786390       5.23732998       0.00093935      -0.00093935       0.00000000
Si       3.32786390       2.41888175       1.74577666      -0.00093935       0.00093935      -0.00000000
Si       0.72642291       3.81935160      -0.10913042       0.00287618      -0.00236678       0.00120071
Si       0.94597878       2.14694991       1.63664624      -0.00236678      -0.00287618       0.00120071
Si       1.92739404       5.02032274       3.60068374       0.00236678      -0.00287618      -0.00120071
Si       2.14694991       0.94597878       5.34646040      -0.00287618      -0.00236678      -0.00120071
Si       3.59979573       4.80076687       1.85490708       0.00287618       0.00236678      -0.00120071
Si       3.81935160       0.72642291       0.10913042      -0.00236678       0.00287618      -0.00120071
Si       4.80076687       3.59979573       5.12819956       0.00236678       0.00287618       0.00120071
Si       5.02032274       1.92739404       3.38242290      -0.00287618       0.00236678       0.00120071
