12
Lattice="5.389069409937562 3.4120554408663395e-63 -2.3476636931174422e-48 2.683571894561935e-63 5.389069409937561 5.458524883897573e-16 2.658673874274837e-48 -4.86182850038109e-16 6.239211682455615" Properties=species:S:1:pos:R:3:forces:R:3 cutoff=-1.0 nneightol=1.2 n_minim_iter=6 energy=-1954.466720177344 stress="-0.10763884876039723 4.160945813385103e-17 2.425669728861505e-16 4.160945813385103e-17 -0.10763884876039717 4.564038734226653e-17 2.425669728861505e-16 4.564038734226653e-17 -0.10762129598263397" free_energy=-1954.466720177344 pbc="T T T"
Si       0.47969940       0.47969940       0.00000000       0.00377822       0.00377822       0.00000000
Si      -0.47969941      -0.47969941       3.11960584      -0.00377822      -0.00377822       0.00000000
Si       2.21483530       3.17423411       4.67940876      -0.00377822       0.00377822      -0.00000000
Si       3.17423411       2.21483530       1.55980292       0.00377822      -0.00377822       0.00000000
Si       0.70212772       3.62389948       0.07213183      -0.00636201       0.00577369      -0.00214110
Si       0.92936478       1.99240698       1.63193476       0.00577369       0.00636201      -0.00214110
Si       1.76516992       4.68694169       3.04747401      -0.00577369       0.00636201       0.00214110
Si       1.99240698       0.92936478       4.60727693       0.00636201       0.00577369       0.00214110
Si       3.39666242       4.45970463       1.48767109      -0.00636201      -0.00577369       0.00214110
Si       3.62389948       0.70212772      -0.07213183       0.00577369      -0.00636201       0.00214110
Si       4.45970463       3.39666242       4.75154060      -0.00577369      -0.00636201      -0.00214110
Si       4.68694169       1.76516992       3.19173768       0.00636201      -0.00577369      -0.00214110
