4
Lattice="1.9740195492994403 -3.419102154520846 1.2728802079668105e-17 1.9740195492994406 3.419102154520846 -1.2728802079668105e-17 0.0 2.4210751261707716e-17 6.503285327509119" Properties=species:S:1:pos:R:3 cutoff=-1.0 nneightol=1.2 n_minim_iter=1 energy=-652.5469623916542 free_energy=-652.5469623916542 pbc="T T T"
Si       1.97401955       1.13970072       0.40645880
Si       1.97401955      -1.13970072       3.65810146
Si       1.97401955       1.13970072       2.84518387
Si       1.97401955      -1.13970072      -0.40645880
