4
Lattice="1.7991765828352861 -3.116265253258871 3.3726926737484902e-18 1.7991765828352861 3.116265253258871 -3.3726926737482872e-18 -1.375348711577972e-31 -2.0762783149379292e-17 6.008051018479721" Properties=species:S:1:pos:R:3 cutoff=-1.0 nneightol=1.2 n_minim_iter=3 stress="-0.13963069623726954 -2.006892834680297e-12 3.9304802637292455e-12 -2.006892834680297e-12 -0.13963069621534582 2.7262505091586026e-12 3.9304802637292455e-12 2.7262505091586026e-12 -0.13969969236382776" pbc="T T T"
Si       1.79917658       1.03875508       0.38721635
Si       1.79917658      -1.03875508       3.39124186
Si       1.79917658       1.03875508       2.61680916
Si       1.79917658      -1.03875508      -0.38721635
