4
Lattice="1.737052278988614 -3.0086628026115876 -1.519089238892839e-16 1.737052278988613 3.0086628026115876 1.5190892388928368e-16 3.289130226758952e-31 -2.780106438847991e-16 5.859529268220736" Properties=species:S:1:pos:R:3 cutoff=-1.0 nneightol=1.2 n_minim_iter=3 stress="-0.16665050392459152 -1.873529194329484e-11 -2.624372126434816e-12 -1.873529194329484e-11 -0.16665050385824254 4.718746333377428e-12 -2.624372126434816e-12 4.718746333377428e-12 -0.1666848136501871" pbc="T T T"
Si       1.73705228       1.00288760       0.38406626
Si       1.73705228      -1.00288760       3.31383089
Si       1.73705228       1.00288760       2.54569838
Si       1.73705228      -1.00288760      -0.38406626
