4
Lattice="2.0693073340695283 -3.5841454390833256 3.757409784587818e-17 2.0693073340695283 3.5841454390833256 -3.757409784587847e-17 2.216997637401904e-31 4.3808786133839925e-18 6.881565726275676" Properties=species:S:1:pos:R:3 cutoff=-1.0 nneightol=1.2 n_minim_iter=3 stress="0.06770892917589617 1.063040456381303e-16 -1.1350868189739898e-15 1.063040456381303e-16 0.06770892916483154 7.2022180531646614e-12 -1.1350868189739898e-15 7.2022180531646614e-12 0.06770912125231507" pbc="T T T"
Si       2.06930733       1.19471515       0.43636954
Si       2.06930733      -1.19471515       3.87715240
Si       2.06930733       1.19471515       3.00441332
Si       2.06930733      -1.19471515      -0.43636954
