4
Lattice="1.8202305362084705 -3.152731770201411 -3.768187192137955e-18 1.82023053620847 3.152731770201411 3.768187192138033e-18 -9.280702036244374e-32 4.659450348993028e-17 6.047743693275008" Properties=species:S:1:pos:R:3 cutoff=-1.0 nneightol=1.2 n_minim_iter=3 stress="-0.1153280514869067 6.992196033864687e-12 3.9294215833325305e-12 6.992196033864687e-12 -0.11532805150122803 -2.2937285198831078e-11 3.9294215833325305e-12 -2.2937285198831078e-11 -0.11534124875066301" pbc="T T T"
Si       1.82023054       1.05091059       0.38634659
Si       1.82023054      -1.05091059       3.41021844
Si       1.82023054       1.05091059       2.63752526
Si       1.82023054      -1.05091059      -0.38634659
