2
Lattice="4.485374358325582 -4.288273810886577e-17 -1.3440324479834934e-16 -4.2882738108866266e-17 4.485374358325582 2.668930624640096e-16 2.242687179162791 2.242687179162791 1.2193567850008988" Properties=species:S:1:pos:R:3:forces:R:3 cutoff=-1.0 nneightol=1.2 n_minim_iter=1 energy=-325.0914668647718 stress="-0.24846054733318917 -7.004167312731064e-17 3.445977839041467e-16 -7.004167312731064e-17 -0.24846054733318995 3.533380310802863e-16 3.445977839041467e-16 3.533380310802863e-16 -0.2362894284529863" free_energy=-325.0914668647718 pbc="T T T"
Si      -0.00000000      -1.12134359      -0.30483920       0.00000000       0.00000000       0.00000000
Si      -0.00000000       1.12134359       0.30483920      -0.00000000      -0.00000000      -0.00000000
