2
Lattice="4.925841745866582 -2.7764442698334517e-17 1.208637681698239e-16 -2.7764442698335164e-17 4.925841745866582 -2.9171442358225504e-16 2.462920872933291 2.462920872933291 1.358581693861195" Properties=species:S:1:pos:R:3:forces:R:3 cutoff=-1.0 nneightol=1.2 n_minim_iter=1 energy=-325.6945608034344 stress="0.025062859197908037 3.750327684077372e-17 3.369670946005794e-17 3.750327684077372e-17 0.02506285919790795 -5.621907908854138e-17 3.369670946005794e-17 -5.621907908854138e-17 0.021903730302460865" free_energy=-325.6945608034344 pbc="T T T"
Si      -0.00000000      -1.23146044      -0.33964542       0.00000000       0.00000000      -0.00000000
Si      -0.00000000       1.23146044       0.33964542      -0.00000000      -0.00000000       0.00000000
