2
Lattice="4.887357035082724 -2.7547524128383072e-17 1.1991948140580716e-16 -2.7547524128383756e-17 4.887357035082723 -2.8943531154369556e-16 2.443678517541362 2.4436785175413616 1.3479673407694892" Properties=species:S:1:pos:R:3:forces:R:3 cutoff=-1.0 nneightol=1.2 n_minim_iter=1 energy=-325.7086694218775 stress="0.012978320814308065 -7.073069809411375e-18 3.80918884297307e-17 -7.073069809411375e-18 0.01297832081430794 -5.086944381853182e-17 3.80918884297307e-17 -5.086944381853182e-17 0.011511992782515561" free_energy=-325.7086694218775 pbc="T T T"
Si      -0.00000000      -1.22183926      -0.33699184       0.00000000      -0.00000000       0.00000000
Si      -0.00000000       1.22183926       0.33699184      -0.00000000       0.00000000      -0.00000000
