2
Lattice="4.4128347772362275 -2.4470080633426296e-17 -3.0867495466051237e-16 -2.4470080633426376e-17 4.41283477723623 5.399305283846769e-16 2.2064173886181138 2.206417388618115 1.1810387123861177" Properties=species:S:1:pos:R:3:forces:R:3 cutoff=-1.0 nneightol=1.2 n_minim_iter=2 energy=-324.637006310435 stress="-0.35489852963882523 1.157060626105812e-16 -2.6586037081131215e-17 1.157060626105812e-16 -0.35489852963882546 -6.91117918914213e-17 -2.6586037081131215e-17 -6.91117918914213e-17 -0.3509262683951113" free_energy=-324.637006310435 pbc="T T T"
Si      -0.00000000      -1.10320869      -0.29525968       0.00000000      -0.00000000       0.00000000
Si      -0.00000000       1.10320870       0.29525968      -0.00000000       0.00000000      -0.00000000
