2
Lattice="4.449496404763532 -3.789899980895902e-17 -2.2867812922577753e-16 -3.789899980895913e-17 4.449496404763534 4.018425014974943e-16 2.224748202381766 2.224748202381767 1.2003784395537502" Properties=species:S:1:pos:R:3:forces:R:3 cutoff=-1.0 nneightol=1.2 n_minim_iter=2 energy=-324.8855168076387 stress="-0.2996763378232834 -2.051876237530033e-16 5.056328972476513e-16 -2.051876237530033e-16 -0.29967633782328434 3.5493203073033276e-16 5.056328972476513e-16 3.5493203073033276e-16 -0.2918474250305441" free_energy=-324.8855168076387 pbc="T T T"
Si      -0.00000000      -1.11237410      -0.30009461      -0.00000000       0.00000000       0.00000000
Si      -0.00000000       1.11237410       0.30009461       0.00000000      -0.00000000      -0.00000000
