1
Lattice="2.438915388771755 4.864968471010079e-17 1.4761686407583465e-49 1.2194576943858775 2.11216268435714 1.726274549525132e-49 -1.945188594347472e-48 -1.934166834921263e-48 2.301066325621708" Properties=species:S:1:pos:R:3 cutoff=-1.0 nneightol=1.2 n_minim_iter=1 energy=-162.47418732201456 free_energy=-162.47418732201456 pbc="T T T"
Si       0.00000000       0.00000000       0.00000000
