1
Lattice="2.464863244669496 4.916727339486609e-17 1.491873741208941e-49 1.2324316223347478 2.1346341867383214 1.7446405508457324e-49 -1.6843732273267564e-48 -1.7371398492534173e-48 2.325547592049915" Properties=species:S:1:pos:R:3 cutoff=-1.0 nneightol=1.2 n_minim_iter=1 energy=-162.5697839581314 free_energy=-162.5697839581314 pbc="T T T"
Si       0.00000000       0.00000000       0.00000000
