1
Lattice="2.713969429282935 6.917023310133854e-17 4.20788265208676e-50 1.3569847146414673 2.3503664708533765 4.248089604967791e-50 -8.064465574427873e-50 -3.4514334773415863e-50 2.5176786590835403" Properties=species:S:1:pos:R:3 cutoff=-1.0 nneightol=1.2 n_minim_iter=1 stress="0.019914854205755207 5.283382811775004e-16 -2.275237538784133e-17 5.283382811775004e-16 0.019914854205754867 -2.1181387702835598e-17 -2.275237538784133e-17 -2.1181387702835598e-17 0.01962227808436217" pbc="T T T"
Si       0.00000000       0.00000000       0.00000000
