1
Lattice="2.8763729065580903 7.330936829511936e-17 4.459681647053792e-50 1.4381864532790452 2.4910120078365896 4.502294577278581e-50 -8.301538824163245e-49 -4.747392092780419e-49 2.668336129460666" Properties=species:S:1:pos:R:3 cutoff=-1.0 nneightol=1.2 n_minim_iter=1 stress="0.08574987024804306 1.653622016099217e-17 1.0465300287793608e-18 1.653622016099217e-17 0.08574987024804302 3.410653226554688e-19 1.0465300287793608e-18 3.410653226554688e-19 0.09201642860921913" pbc="T T T"
Si       0.00000000       0.00000000       0.00000000
