2
Lattice="2.729526471129622 6.726207445654933e-52 -7.046769343082879e-34 -1.8262189904179078e-50 2.729526471129622 1.0390863580107932e-16 -4.982409404900177e-34 1.2918515578311003e-16 3.467833028078735" Properties=species:S:1:pos:R:3:tags:I:1 spacegroup="P 1" unit_cell=conventional n_minim_iter=2 stress="0.28751169950745176 -1.9177966214282106e-18 -3.742375319574403e-18 -1.9177966214282106e-18 0.2875116995074516 1.5445075195951194e-16 -3.742375319574403e-18 1.5445075195951194e-16 0.28791859911891765" pbc="T T T"
Ti       1.36476324       1.36476324       1.73391652        0
Al      -0.00000000       0.00000000       0.00000000        1
