2
Lattice="2.933363554634119 4.917270473606403e-117 4.192527779939974e-51 -5.992195941004269e-102 2.933363554634119 4.192527779939974e-51 -6.058615524387573e-51 -6.058615524387572e-51 4.23899921565539" Properties=species:S:1:pos:R:3:tags:I:1 spacegroup="P 1" unit_cell=conventional n_minim_iter=1 stress="0.09548500332828692 9.228521245424412e-19 1.879704064199604e-17 9.228521245424412e-19 0.09548500332828691 -7.462811102503448e-18 1.879704064199604e-17 -7.462811102503448e-18 0.08950017232265173" pbc="T T T"
Ti       1.46668178       1.46668178       2.11949961        0
Al       0.00000000      -0.00000000       0.00000001        1
