2
Lattice="2.933363554634119 7.243741126532303e-117 4.192527779939973e-51 -5.992195941004266e-102 2.933363554634119 4.192527779939973e-51 -6.05861552438757e-51 -6.058615524387569e-51 4.23899921565539" Properties=species:S:1:pos:R:3:tags:I:1 spacegroup="P 1" unit_cell=conventional n_minim_iter=1 stress="0.11575946600221154 3.566944889267658e-18 -7.859168572686406e-18 3.566944889267658e-18 0.1157594660022115 1.7105700915042043e-19 -7.859168572686406e-18 1.7105700915042043e-19 0.12120285108962567" pbc="T T T"
Ti       1.46668178       1.46668178       2.11949961        0
Al       0.00000000       0.00000000       0.00000001        1
