2
Lattice="2.7042465840601118 -2.330119788345639e-68 -1.918707095123257e-52 8.306455640668328e-68 2.7042465840601113 6.016871038687374e-18 2.668649041822816e-53 8.615088477385179e-18 3.8447050397214344" Properties=species:S:1:pos:R:3:tags:I:1 spacegroup="P 1" unit_cell=conventional n_minim_iter=2 stress="-0.03991305167863788 -2.4139066012535942e-18 8.277622747515566e-18 -2.4139066012535942e-18 -0.039913051678638095 3.123892787232308e-18 8.277622747515566e-18 3.123892787232308e-18 -0.04299349538534879" pbc="T T T"
Ti       1.35212329       1.35212329       1.92235252        0
Al      -0.00000000       0.00000000       0.00000000        1
