2
Lattice="2.477682310475794 8.888970862748263e-18 2.477682310475794 2.477682310475794 2.477682310475794 4.2239669388805776e-17 1.6973835129691886e-16 2.477682310475794 2.477682310475794" Properties=species:S:1:pos:R:3:forces:R:3 n_minim_iter=1 energy=-325.4407354607682 stress="-0.24558565100426888 1.7754356337625752e-16 3.7493712154320097e-16 1.7754356337625752e-16 -0.24558565100426885 6.815354365162581e-17 3.7493712154320097e-16 6.815354365162581e-17 -0.245585651004269" free_energy=-325.4407354607682 pbc="T T T"
Si      -0.00000000      -0.00000000      -0.00000000       0.00000000       0.00000000       0.00000000
Si       1.23884116       1.23884116       1.23884116      -0.00000000      -0.00000000      -0.00000000
