2
Lattice="2.727042245021408 9.783578368779613e-18 2.727042245021407 2.727042245021408 2.727042245021407 4.6490771779732653e-17 1.8682122910991485e-16 2.727042245021407 2.727042245021407" Properties=species:S:1:pos:R:3:forces:R:3 n_minim_iter=3 energy=-326.3535622881468 stress="-0.001912933498763882 1.0141027147793814e-17 7.934412590222858e-17 1.0141027147793814e-17 -0.0019129334987641308 -3.538739640330801e-18 7.934412590222858e-17 -3.538739640330801e-18 -0.001912933498764199" free_energy=-326.3535622881468 pbc="T T T"
Si      -0.00000000      -0.00000000      -0.00000000       0.00000000       0.00000000      -0.00000000
Si       1.36352112       1.36352112       1.36352112      -0.00000000      -0.00000000       0.00000000
