2
Lattice="2.496673408296977 4.551749275753488e-17 2.496673408296977 2.496673408296977 2.496673408296977 5.192037255168186e-17 8.995183267547998e-17 2.496673408296977 2.496673408296977" Properties=species:S:1:pos:R:3:forces:R:3 n_minim_iter=1 energy=-8.017301963611661 stress="-0.18657644131031975 1.6321800178750902e-16 1.0872245476935026e-16 1.6321800178750902e-16 -0.18657644131031972 5.111526878811363e-16 1.0872245476935026e-16 5.111526878811363e-16 -0.18657644131031964" free_energy=-8.017301963611661 pbc="T T T"
Si       0.00000000       0.00000000       0.00000000       0.00000000       0.00000000       0.00000000
Si       1.24833670       1.24833670       1.24833670      -0.00000000      -0.00000000      -0.00000000
