2
Lattice="4.622345754658443 -4.442947523745429e-17 -6.534711428076922e-17 -4.442947523745448e-17 4.622345754658449 3.144514794845429e-16 2.3111728773292217 2.3111728773292244 1.2567580552376654" Properties=species:S:1:pos:R:3:forces:R:3 cutoff=-1.0 nneightol=1.2 n_minim_iter=2 energy=-325.5049336937305 stress="-0.12037701453505456 7.76852870515388e-18 1.5979321939568612e-16 7.76852870515388e-18 -0.12037701453505424 -1.8746816330829943e-16 1.5979321939568612e-16 -1.8746816330829943e-16 -0.12068063806703676" free_energy=-325.5049336937305 pbc="T T T"
Si      -0.00000000      -1.15558644      -0.31418951      -0.00000000      -0.00000000       0.00000000
Si      -0.00000000       1.15558644       0.31418951       0.00000000       0.00000000      -0.00000000
