2
Lattice="4.390832108140442 -4.220419171885595e-17 -6.207415515577893e-17 -4.2204191718856186e-17 4.390832108140442 2.987019417968701e-16 2.195416054070221 2.195416054070221 1.1938123874745565" Properties=species:S:1:pos:R:3:forces:R:3 cutoff=-1.0 nneightol=1.2 n_minim_iter=1 energy=-324.6445196286018 stress="-0.357435131733476 1.0801983040238954e-16 3.3627797451030393e-16 1.0801983040238954e-16 -0.3574351317334762 1.509740489564131e-16 3.3627797451030393e-16 1.509740489564131e-16 -0.3405074919146091" free_energy=-324.6445196286018 pbc="T T T"
Si      -0.00000000      -1.09770803      -0.29845310       0.00000000       0.00000000       0.00000000
Si      -0.00000000       1.09770803       0.29845310      -0.00000000      -0.00000000      -0.00000000
2
Lattice="4.3989858436318405 -3.1311808694306246e-17 -1.2317318943825696e-16 -3.1311808694306603e-17 4.398985843631841 4.2392644471808514e-16 2.1994929218159203 2.1994929218159207 1.1893909096482216" Properties=species:S:1:pos:R:3:forces:R:3 cutoff=-1.0 nneightol=1.2 n_minim_iter=2 energy=-324.645390731405 stress="-0.35272326294554013 1.4436246663955496e-16 -4.766283031471887e-16 1.4436246663955496e-16 -0.35272326294554013 2.9338490119113155e-16 -4.766283031471887e-16 2.9338490119113155e-16 -0.3493033460705934" free_energy=-324.645390731405 pbc="T T T"
Si      -0.00000000      -1.09974646      -0.29734773       0.00000000       0.00000000      -0.00000000
Si      -0.00000000       1.09974646       0.29734773      -0.00000000      -0.00000000       0.00000000
