2
Lattice="4.486314747365987 -4.3121960267606915e-17 -6.342401413831236e-17 -4.312196026760716e-17 4.486314747365987 3.051974872976154e-16 2.2431573736829935 2.2431573736829935 1.2197729240400264" Properties=species:S:1:pos:R:3:forces:R:3 cutoff=-1.0 nneightol=1.2 n_minim_iter=1 energy=-325.0965472977055 stress="-0.2453492589822142 7.186974183290994e-17 -2.069390084285752e-16 7.186974183290994e-17 -0.24534925898221394 1.2858273202611857e-16 -2.069390084285752e-16 1.2858273202611857e-16 -0.23495885523228927" free_energy=-325.0965472977055 pbc="T T T"
Si      -0.00000000      -1.12157869      -0.30494323       0.00000000      -0.00000000      -0.00000000
Si      -0.00000000       1.12157869       0.30494323      -0.00000000       0.00000000       0.00000000
