2
Lattice="4.643876687775319 -4.189143422496259e-17 1.7123416542834845e-16 -4.189143422496292e-17 4.643876687775319 -2.1723500239469924e-16 2.3219383438876595 2.3219383438876595 1.2807065526178647" Properties=species:S:1:pos:R:3:forces:R:3 cutoff=-1.0 nneightol=1.2 n_minim_iter=1 energy=-325.5842832738895 stress="-0.09395487951511182 -8.469742055012722e-17 5.647461168520498e-17 -8.469742055012722e-17 -0.09395487951511264 -7.063352565051247e-17 5.647461168520498e-17 -7.063352565051247e-17 -0.08399675352353156" free_energy=-325.5842832738895 pbc="T T T"
Si      -0.00000000      -1.16096917      -0.32017664      -0.00000000      -0.00000000      -0.00000000
Si      -0.00000000       1.16096917       0.32017664       0.00000000       0.00000000       0.00000000
