2
Lattice="4.809868199298939 -4.338880871494391e-17 1.7735478831628167e-16 -4.338880871494439e-17 4.809868199298937 -2.249998869572579e-16 2.4049340996494695 2.4049340996494686 1.3264843436274452" Properties=species:S:1:pos:R:3:forces:R:3 cutoff=-1.0 nneightol=1.2 n_minim_iter=2 energy=-325.713406727254 stress="-0.00162343358437911 -1.7276295320778065e-18 1.332322218365454e-16 -1.7276295320778065e-18 -0.0016234335843791049 -7.934215157413012e-17 1.332322218365454e-16 -7.934215157413012e-17 -0.001989142542134391" free_energy=-325.713406727254 pbc="T T T"
Si      -0.00000000      -1.20246705      -0.33162109       0.00000000       0.00000000      -0.00000000
Si      -0.00000000       1.20246705       0.33162109      -0.00000000      -0.00000000       0.00000000
