2
Lattice="5.076141264040506 -3.31605930474206e-17 2.4419120146360593e-15 -3.3160593047412e-17 5.076141264040506 -4.246893985955853e-15 2.538070632020252 2.538070632020254 1.4589391206892341" Properties=species:S:1:pos:R:3:forces:R:3 cutoff=-1.0 nneightol=1.2 n_minim_iter=1 energy=-325.4682996483256 stress="0.07270748007951433 3.1048915755883024e-17 1.086772345181582e-17 3.1048915755883024e-17 0.07270748007951429 1.1840552398601385e-16 1.086772345181582e-17 1.1840552398601385e-16 0.06088764275810265" free_energy=-325.4682996483256 pbc="T T T"
Si      -0.00000000      -1.26903531      -0.36473478       0.00000000      -0.00000000      -0.00000000
Si      -0.00000000       1.26903532       0.36473478      -0.00000000       0.00000000       0.00000000
