2
Lattice="4.970357382079005 -3.2469545245904186e-17 2.391023964268638e-15 -3.2469545245903933e-17 4.970357382079004 -4.158391143196948e-15 2.4851786910395024 2.4851786910395006 1.4285356634755226" Properties=species:S:1:pos:R:3:forces:R:3 cutoff=-1.0 nneightol=1.2 n_minim_iter=2 energy=-325.5642303072758 stress="0.05733573008036626 8.205164271169659e-19 3.038608233831669e-17 8.205164271169659e-19 0.05733573008036604 -2.89811514499026e-16 3.038608233831669e-17 -2.89811514499026e-16 0.053673518236145266" free_energy=-325.5642303072758 pbc="T T T"
Si      -0.00000000      -1.24258934      -0.35713392       0.00000000       0.00000000       0.00000000
Si      -0.00000000       1.24258935       0.35713392      -0.00000000      -0.00000000      -0.00000000
