2
Lattice="4.927228056303666 -4.444748728479195e-17 1.816822109676832e-16 -4.444748728479238e-17 4.927228056303666 -2.304898408323418e-16 2.463614028151833 2.463614028151833 1.3588503059442125" Properties=species:S:1:pos:R:3:forces:R:3 cutoff=-1.0 nneightol=1.2 n_minim_iter=1 energy=-325.6933374023161 stress="0.028289973100610218 -7.762357646450599e-17 -5.80309322795399e-18 -7.762357646450599e-17 0.02828997310061025 -3.3288832904141967e-17 -5.80309322795399e-18 -3.3288832904141967e-17 0.02214636179782136" free_energy=-325.6933374023161 pbc="T T T"
Si      -0.00000000      -1.23180701      -0.33971258       0.00000000       0.00000000      -0.00000000
Si      -0.00000000       1.23180702       0.33971258      -0.00000000      -0.00000000       0.00000000
