4
Lattice="1.928119031361311 -3.33960012535828 -1.930671333806743e-17 1.9281190313613115 3.33960012535828 1.9306713338067414e-17 3.336763075989956e-32 -3.665179028296307e-17 6.339884022737616" Properties=species:S:1:pos:R:3 cutoff=-1.0 nneightol=1.2 n_minim_iter=1 energy=-652.6524378584838 free_energy=-652.6524378584838 pbc="T T T"
Si       1.92811903       1.11320004       0.39548891
Si       1.92811903      -1.11320004       3.56543092
Si       1.92811903       1.11320004       2.77445311
Si       1.92811903      -1.11320004      -0.39548891
