4
Lattice="2.043484095362588 -3.5394182776269267 -2.089939109026339e-17 2.043484095362588 3.5394182776269267 2.089939109026335e-17 6.638810637510704e-32 -3.9993504527914704e-17 6.773103594314944" Properties=species:S:1:pos:R:3 cutoff=-1.0 nneightol=1.2 n_minim_iter=1 energy=-652.014235523312 free_energy=-652.014235523312 pbc="T T T"
Si       2.04348410       1.17980609       0.42674441
Si       2.04348410      -1.17980609       3.81329621
Si       2.04348410       1.17980609       2.95980739
Si       2.04348410      -1.17980609      -0.42674441
4
Lattice="2.0428969481348376 -3.5384013087969413 -2.1523997418426418e-17 2.0428969481348376 3.5384013087969413 2.15239974184264e-17 6.402328566905464e-32 -3.8809746119565145e-17 6.7769974573782745" Properties=species:S:1:pos:R:3 cutoff=-1.0 nneightol=1.2 n_minim_iter=2 stress="0.06594539182268831 -1.429448170109507e-17 -1.06852986554288e-17 -1.429448170109507e-17 0.06594539182268803 -1.925894137762493e-18 -1.06852986554288e-17 -1.925894137762493e-18 0.06593846504880997" pbc="T T T"
Si       2.04289695       1.17946710       0.42727120
Si       2.04289695      -1.17946710       3.81576993
Si       2.04289695       1.17946710       2.96122753
Si       2.04289695      -1.17946710      -0.42727120
4
Lattice="2.0426085529245417 -3.53790179364005 -2.1655692918853247e-17 2.0426085529245417 3.53790179364005 2.165569291885314e-17 6.302656063259005e-32 -3.8563476404243126e-17 6.778911276429324" Properties=species:S:1:pos:R:3 cutoff=-1.0 nneightol=1.2 n_minim_iter=3 stress="0.06584132860108417 2.8386817242265384e-17 1.949823553320791e-18 2.8386817242265384e-17 0.06584132860108435 -6.134263152052527e-17 1.949823553320791e-18 -6.134263152052527e-17 0.06604962339633556" pbc="T T T"
Si       2.04260855       1.17930060       0.42792747
Si       2.04260855      -1.17930060       3.81738311
Si       2.04260855       1.17930060       2.96152817
Si       2.04260855      -1.17930060      -0.42792747
4
Lattice="2.04258804561437 -3.5378662739369062 -2.209457076472961e-17 2.04258804561437 3.5378662739369062 2.209457076472951e-17 6.105220922295459e-32 -3.77240756897454e-17 6.77904739583365" Properties=species:S:1:pos:R:3 cutoff=-1.0 nneightol=1.2 n_minim_iter=4 stress="0.06585064501893147 -1.2572353831755147e-17 -2.8404126541792327e-17 -1.2572353831755147e-17 0.06585064501893172 2.5067996490954735e-17 -2.8404126541792327e-17 2.5067996490954735e-17 0.06597008910406238" pbc="T T T"
Si       2.04258805       1.17928876       0.42846593
Si       2.04258805      -1.17928876       3.81798963
Si       2.04258805       1.17928876       2.96105777
Si       2.04258805      -1.17928876      -0.42846593
