4
Lattice="1.7399782268287447 -3.01373069293099 -1.474769197810758e-17 1.7399782268287447 3.01373069293099 1.4747691978107765e-17 -1.140681540449798e-31 -2.9932608525583363e-17 5.838786991346913" Properties=species:S:1:pos:R:3 cutoff=-1.0 nneightol=1.2 n_minim_iter=3 stress="-0.1918696340203518 -2.2385700540977722e-17 -3.009829053872772e-17 -2.2385700540977722e-17 -0.19186963402035323 -1.536248909978836e-16 -3.009829053872772e-17 -1.536248909978836e-16 -0.19187686539591992" pbc="T T T"
Si       1.73997823       1.00457690       0.37996469
Si       1.73997823      -1.00457690       3.29935818
Si       1.73997823       1.00457690       2.53942881
Si       1.73997823      -1.00457690      -0.37996469
