4
Lattice="1.8425539680496905 -3.1913970883497043 -1.860741865556207e-17 1.8425539680496898 3.1913970883497043 1.8607418655562063e-17 -1.0004349967743915e-32 -3.508728557711367e-17 6.074585018373711" Properties=species:S:1:pos:R:3 cutoff=-1.0 nneightol=1.2 n_minim_iter=3 stress="-0.06686884077547203 -2.1420387327996423e-17 -2.942809744304446e-17 -2.1420387327996423e-17 -0.06686884077547262 -1.803149223358877e-17 -2.942809744304446e-17 -1.803149223358877e-17 -0.06723001418363038" pbc="T T T"
Si       1.84255397       1.06379903       0.38280642
Si       1.84255397      -1.06379903       3.42009893
Si       1.84255397       1.06379903       2.65448608
Si       1.84255397      -1.06379903      -0.38280642
