2
Lattice="2.876672240136801 -2.832874100992151e-17 2.876672240136801 2.876672240136801 2.876672240136801 -4.27129687981106e-17 4.455693165881769e-17 2.876672240136801 2.876672240136801" Properties=species:S:1:pos:R:3 n_minim_iter=1 energy=-326.11377396861104 free_energy=-326.11377396861104 pbc="T T T"
Si       0.00000000       0.00000000       0.00000000
Si       1.43833612       1.43833612       1.43833612
