2
Lattice="2.7457296213638043 -2.7039251202002107e-17 2.7457296213638043 2.7457296213638043 2.7457296213638043 -4.076872645031783e-17 4.2528754366149295e-17 2.7457296213638043 2.7457296213638043" Properties=species:S:1:pos:R:3 n_minim_iter=1 energy=-326.35181633076706 free_energy=-326.35181633076706 pbc="T T T"
Si       0.00000000       0.00000000       0.00000000
Si       1.37286481       1.37286481       1.37286481
