2
Lattice="2.957747572857145 -2.912715039103983e-17 2.957747572857145 2.957747572857145 2.957747572857145 -4.3916779266492596e-17 4.58127118651385e-17 2.957747572857145 2.957747572857145" Properties=species:S:1:pos:R:3 n_minim_iter=1 stress="0.07066016702649314 1.7574580383468936e-16 -2.052306000405092e-18 1.7574580383468936e-16 0.07066016702649333 -1.3654675922695212e-16 -2.052306000405092e-18 -1.3654675922695212e-16 0.07066016702649296" pbc="T T T"
Si       0.00000000       0.00000000       0.00000000
Si       1.47887379       1.47887379       1.47887379
