2
Lattice="2.6752950124244927 -2.634562897874808e-17 2.6752950124244927 2.6752950124244927 2.6752950124244927 -3.9722909964186314e-17 4.143778890503885e-17 2.6752950124244927 2.6752950124244927" Properties=species:S:1:pos:R:3 n_minim_iter=1 stress="-0.03839186177427581 -2.7707679785235675e-16 -2.476590220968567e-16 -2.7707679785235675e-16 -0.03839186177427597 -3.727172589168114e-16 -2.476590220968567e-16 -3.727172589168114e-16 -0.03839186177427459" pbc="T T T"
Si       0.00000000       0.00000000       0.00000000
Si       1.33764751       1.33764751       1.33764751
