2
Lattice="2.8127248949107737 -2.7699003719762234e-17 2.8127248949107737 2.8127248949107737 2.8127248949107737 -4.176347551790589e-17 4.3566447775654344e-17 2.8127248949107737 2.8127248949107737" Properties=species:S:1:pos:R:3 n_minim_iter=1 stress="0.0400968816211943 -2.423256332641099e-16 -1.3228126393599373e-16 -2.423256332641099e-16 0.04009688162119424 4.2844512801014893e-16 -1.3228126393599373e-16 4.2844512801014893e-16 0.040096881621195665" pbc="T T T"
Si       0.00000000       0.00000000       0.00000000
Si       1.40636245       1.40636245       1.40636245
