2
Lattice="3.3640909782272583 0.0 0.0 0.0 3.3640909782272583 0.0 0.0 3.5721392149947443e-34 3.3640909782272583" Properties=species:S:1:pos:R:3 Minim_Constant_Volume=F n_minim_iter=1 stress="0.08041083122584496 4.2022017620945834e-16 1.0619633116629021e-16 4.2022017620945834e-16 0.08041083122584572 -8.9345290866524e-18 1.0619633116629021e-16 -8.9345290866524e-18 0.08041083122584496" pbc="T T T"
Ti       0.00000000       0.00000000       0.00000000
Ti       1.68204549       1.68204549       1.68204549
