2
Lattice="3.267920971155693 0.0 0.0 0.0 3.267920971155693 0.0 0.0 0.0 3.267920971155693" Properties=species:S:1:pos:R:3 Minim_Constant_Volume=F n_minim_iter=1 stress="0.06177131182889071 5.764823997970067e-17 3.5950287029038726e-17 5.764823997970067e-17 0.06177131182889051 -8.01273273817629e-17 3.5950287029038726e-17 -8.01273273817629e-17 0.06177131182888816" pbc="T T T"
Ti       0.00000000       0.00000000       0.00000000
Ti       1.63396049       1.63396049       1.63396049
