2
Lattice="2.9078670820125843 0.0 0.0 0.0 2.9078670820125843 0.0 0.0 9.756956118684794e-32 2.9078670820125843" Properties=species:S:1:pos:R:3 Minim_Constant_Volume=F n_minim_iter=1 stress="-0.26519188840368346 5.974537341334123e-16 2.1016647399876942e-17 5.974537341334123e-16 -0.26519188840368974 -5.267489480027695e-16 2.1016647399876942e-17 -5.267489480027695e-16 -0.2651918884036702" pbc="T T T"
Ti       0.00000000       0.00000000       0.00000000
Ti       1.45393354       1.45393354       1.45393354
