2
Lattice="3.165730814945473 0.0 0.0 0.0 3.165730814945473 0.0 0.0 0.0 3.165730814945473" Properties=species:S:1:pos:R:3 Minim_Constant_Volume=F n_minim_iter=1 stress="-0.00024381570558906478 1.4492259885105397e-16 8.63357040504864e-17 1.4492259885105397e-16 -0.00024381570558968066 -9.111998150736896e-17 8.63357040504864e-17 -9.111998150736896e-17 -0.00024381570558864484" pbc="T T T"
Ti       0.00000000       0.00000000       0.00000000
Ti       1.58286541       1.58286541       1.58286541
