1
Lattice="2.749855517733984 1.3700354472819996e-17 7.584553421853594e-51 1.374927758866992 2.3814447350944397 -3.876047952134489e-50 -5.766780824271641e-50 3.2108598500788134e-49 2.5648253344350076" Properties=species:S:1:pos:R:3:forces:R:3 cutoff=-1.0 nneightol=1.2 n_minim_iter=1 energy=-162.7840505713976 stress="0.0571619985537422 -2.8299098950020854e-17 -1.714470958285935e-17 -2.8299098950020854e-17 0.057161998553741586 7.126415429019846e-18 -1.714470958285935e-17 7.126415429019846e-18 0.06179976726276328" free_energy=-162.7840505713976 pbc="T T T"
Si       0.00000000       0.00000000       0.00000000       0.00000000      -0.00000000      -0.00000000
