1
Lattice="2.6638656277112176 1.327193488248402e-17 7.347379173820947e-51 1.3319328138556088 2.3069753058660942 -3.754841243281046e-50 -1.474652993999225e-50 4.466720865373614e-50 2.4846214666269226" Properties=species:S:1:pos:R:3:forces:R:3 cutoff=-1.0 nneightol=1.2 n_minim_iter=1 energy=-162.8360166693055 stress="0.003885694150860954 -2.899314984397756e-16 -6.362133194603223e-18 -2.899314984397756e-16 0.003885694150860838 2.0676932882460485e-17 -6.362133194603223e-18 2.0676932882460485e-17 0.008026274646176293" free_energy=-162.8360166693055 pbc="T T T"
Si       0.00000000       0.00000000       0.00000000       0.00000000      -0.00000000      -0.00000000
