1
Lattice="2.7705318994930552 1.3803368524826649e-17 7.641582280646707e-51 1.3852659497465274 2.3993510069561403 -3.905192264138504e-50 -7.235621969382566e-50 4.158484183070933e-49 2.5841104595690787" Properties=species:S:1:pos:R:3:forces:R:3 cutoff=-1.0 nneightol=1.2 n_minim_iter=1 energy=-162.7597205345316 stress="0.06741144049995185 2.8503366574234305e-17 -8.07889929473426e-19 2.8503366574234305e-17 0.06741144049995221 -8.280871777102617e-18 -8.07889929473426e-19 -8.280871777102617e-18 0.07072627676952213" free_energy=-162.7597205345316 pbc="T T T"
Si       0.00000000       0.00000000       0.00000000      -0.00000000      -0.00000000      -0.00000000
