1
Lattice="2.6414791438742955 1.3160400744785533e-17 7.285633572463492e-51 1.3207395719371477 2.28758804216191 -3.723286463667353e-50 -2.8213410482653707e-50 1.3233837513103672e-49 2.463741307460898" Properties=species:S:1:pos:R:3:forces:R:3 cutoff=-1.0 nneightol=1.2 n_minim_iter=1 energy=-162.834747622346 stress="-0.012598169096456665 2.5168878572056707e-17 1.5847071693517188e-17 2.5168878572056707e-17 -0.012598169096456311 2.4469743056166238e-17 1.5847071693517188e-17 2.4469743056166238e-17 -0.011522957083399536" free_energy=-162.834747622346 pbc="T T T"
Si       0.00000000       0.00000000       0.00000000       0.00000000       0.00000000      -0.00000000
