1
Lattice="2.8307796364383413 1.410353533250525e-17 7.807755440094682e-51 1.4153898182191709 2.4515270776712805 -3.9901142230928963e-50 -1.030592440842171e-49 6.13604134770651e-49 2.640304292686166" Properties=species:S:1:pos:R:3:forces:R:3 cutoff=-1.0 nneightol=1.2 n_minim_iter=1 energy=-162.7012474131501 stress="0.08297294846062006 -8.990864140321695e-17 4.6410698076132965e-18 -8.990864140321695e-17 0.08297294846061967 -7.83180530034744e-18 4.6410698076132965e-18 -7.83180530034744e-18 0.08449632790836407" free_energy=-162.7012474131501 pbc="T T T"
Si       0.00000000       0.00000000       0.00000000      -0.00000000       0.00000000       0.00000000
