1
Lattice="2.6414791438742955 1.3160400744785533e-17 7.285633572463493e-51 1.3207395719371477 2.28758804216191 -3.723286463667353e-50 -1.4622603661309806e-50 4.429183621221159e-50 2.463741307460898" Properties=species:S:1:pos:R:3:forces:R:3 cutoff=-1.0 nneightol=1.2 n_minim_iter=1 energy=-162.8360166693055 stress="0.003885694150860954 -2.899314984397756e-16 -6.362133194603223e-18 -2.899314984397756e-16 0.003885694150860838 2.0676932882460485e-17 -6.362133194603223e-18 2.0676932882460485e-17 0.008026274646176293" free_energy=-162.8360166693055 pbc="T T T"
Si       0.00000000       0.00000000       0.00000000       0.00000000      -0.00000000      -0.00000000
