1
Lattice="2.515841838117963 9.596554629978234e-18 -5.112225822735322e-52 1.2579209190589815 2.1787829437138932 -3.3325196435362853e-50 -8.565660032757415e-50 4.697489167028664e-49 2.3677569324694048" Properties=species:S:1:pos:R:3:forces:R:3 cutoff=-1.0 nneightol=1.2 n_minim_iter=2 energy=-162.7502331069735 stress="-0.10696380162811572 -4.75212397800976e-17 -4.5963166344684554e-17 -4.75212397800976e-17 -0.10696380162811493 -8.001356288110691e-18 -4.5963166344684554e-17 -8.001356288110691e-18 -0.10696071186568452" free_energy=-162.7502331069735 pbc="T T T"
Si       0.00000000       0.00000000       0.00000000       0.00000000       0.00000000      -0.00000000
