40
Lattice="0.0 5.44 0.0 3.846660889654819 0.0 0.0 0.0 0.0 38.466608896548195" Properties=species:S:1:pos:R:3:forces:R:3 bulk_struct_test=bulk_Si_diamond n_minim_iter=0 energy=-6527.057269985156 stress="-0.006545641922394297 -2.2705929318642042e-17 1.4395938482206604e-17 -2.2705929318642042e-17 -0.00654564192239444 7.870781218414756e-11 1.4395938482206604e-17 7.870781218414756e-11 -0.006545641922394322" free_energy=-6527.057269985156 pbc="T T T"
Si       0.00000000       0.00000000       0.00000000      -0.00000005      -0.00000003       0.00000000
Si       0.00000000       1.36000000      -1.92333044      -0.00000005       0.00000001      -0.00000005
Si       1.92333044       2.72000000       1.92333044       0.00000005       0.00000000       0.00000005
Si       1.92333044       4.08000000       0.00000000       0.00000005       0.00000001      -0.00000004
Si       0.00000000       0.00000000       3.84666089      -0.00000005       0.00000000      -0.00000005
Si       0.00000000       1.36000000       1.92333044      -0.00000005      -0.00000000       0.00000006
Si       1.92333044       2.72000000       5.76999133       0.00000005       0.00000000       0.00000005
Si       1.92333044       4.08000000       3.84666089       0.00000005      -0.00000000      -0.00000005
Si       0.00000000       0.00000000       7.69332178      -0.00000005       0.00000000      -0.00000005
Si       0.00000000       1.36000000       5.76999133      -0.00000005      -0.00000000       0.00000005
Si       1.92333044       2.72000000       9.61665222       0.00000005       0.00000000       0.00000005
Si       1.92333044       4.08000000       7.69332178       0.00000005      -0.00000000      -0.00000005
Si       0.00000000       0.00000000      11.53998267      -0.00000005       0.00000000      -0.00000005
Si       0.00000000       1.36000000       9.61665222      -0.00000005      -0.00000000       0.00000005
Si       1.92333044       2.72000000      13.46331311       0.00000005       0.00000000       0.00000005
Si       1.92333044       4.08000000      11.53998267       0.00000005      -0.00000000      -0.00000005
Si       0.00000000       0.00000000      15.38664356      -0.00000005       0.00000000      -0.00000005
Si       0.00000000       1.36000000      13.46331311      -0.00000005      -0.00000000       0.00000005
Si       1.92333044       2.72000000      17.30997400       0.00000005       0.00000000       0.00000005
Si       1.92333044       4.08000000      15.38664356       0.00000005      -0.00000000      -0.00000005
Si       0.00000000       0.00000000      19.23330445      -0.00000005       0.00000000      -0.00000005
Si       0.00000000       1.36000000      17.30997400      -0.00000005      -0.00000000       0.00000005
Si       1.92333044       2.72000000      21.15663489       0.00000005       0.00000000       0.00000005
Si       1.92333044       4.08000000      19.23330445       0.00000005      -0.00000000      -0.00000005
Si       0.00000000       0.00000000      23.07996534      -0.00000005       0.00000000      -0.00000005
Si       0.00000000       1.36000000      21.15663489      -0.00000005      -0.00000000       0.00000005
Si       1.92333044       2.72000000      25.00329578       0.00000005       0.00000000       0.00000005
Si       1.92333044       4.08000000      23.07996534       0.00000005      -0.00000000      -0.00000005
Si       0.00000000       0.00000000      26.92662623      -0.00000005       0.00000000      -0.00000005
Si       0.00000000       1.36000000      25.00329578      -0.00000005      -0.00000000       0.00000005
Si       1.92333044       2.72000000      28.84995667       0.00000005       0.00000000       0.00000005
Si       1.92333044       4.08000000      26.92662623       0.00000005      -0.00000000      -0.00000005
Si       0.00000000       0.00000000      30.77328712      -0.00000005       0.00000000      -0.00000005
Si       0.00000000       1.36000000      28.84995667      -0.00000005      -0.00000000       0.00000005
Si       1.92333044       2.72000000      32.69661756       0.00000005       0.00000000       0.00000005
Si       1.92333044       4.08000000      30.77328712       0.00000005      -0.00000000      -0.00000005
Si       0.00000000       0.00000000      34.61994801      -0.00000005       0.00000002      -0.00000002
Si       0.00000000       1.36000000      32.69661756      -0.00000005      -0.00000000       0.00000006
Si       1.92333044       2.72000000      36.54327845       0.00000005      -0.00000001       0.00000005
Si       1.92333044       4.08000000      34.61994801       0.00000005      -0.00000000      -0.00000006
