1
Lattice="2.7656252654319795 2.888409824287283e-16 -1.206308802733083e-50 1.3828126327159893 2.3951017372121757 -4.4063866329368426e-49 9.179184131448996e-50 4.218667689635224e-48 2.582299160915734" Properties=species:S:1:pos:R:3:forces:R:3 cutoff=-1.0 nneightol=1.2 n_minim_iter=1 energy=-162.7666387004324 stress="0.06319142292486865 -8.802906607302514e-17 6.348640018630622e-17 -8.802906607302514e-17 0.06319142292486778 4.4623028884943745e-18 6.348640018630622e-17 4.4623028884943745e-18 0.07210211447000962" free_energy=-162.7666387004324 pbc="T T T"
Si       0.00000000       0.00000000       0.00000000       0.00000000      -0.00000000       0.00000000
