20
Lattice="1.6557226004282697 3.157729790728136e-16 1.6777836324678905e-14 -1.6910507622852452e-15 8.866847865857574 -7.879740850751666e-15 -6.056568926138685e-13 5.31154622213725e-14 59.76931624555772" Properties=species:S:1:pos:R:3 unique_starting_index=4 config_type=initial n_minim_iter=1 energy=-3614.96713108122 free_energy=-3614.96713108122 pbc="T T T"
Si       1.47250128       5.27588487      36.43257242
Si       1.47250128       3.59096300      23.33674383
Si       0.45165489       3.81813049      32.00095652
Si       0.45165489       5.04871738      27.76835972
Si       0.18322132       0.84246093      53.22140195
Si       0.18322132       8.02438693       6.54791429
Si       1.20406771       8.25155442      57.65301785
Si       1.20406771       0.61529344       2.11629840
Si       1.01694206       5.64920837      10.62474252
Si       1.01694206       3.21763949      49.14457373
Si       1.01501254       7.62749383      48.93151119
Si       1.01501254       1.23935404      10.83780506
Si       0.63878054       1.21578444      19.25991561
Si       0.63878054       7.65106343      40.50940064
Si       0.64071006       3.19406990      40.72246318
Si       0.64071006       5.67277797      19.04685306
Si       1.47626379       5.23312165      54.28783180
Si       1.47626379       3.63372622       5.48148444
Si       0.17945881       8.06715015      24.40317368
Si       0.17945881       0.79969772      35.36614257
20
Lattice="1.6557285880991397 3.1577412101792363e-16 1.6777896999191426e-14 -1.6911318150383832e-15 8.867272857488345 -7.845026997741643e-15 -6.056667909650294e-13 5.334924009183151e-14 59.77029306541703" Properties=species:S:1:pos:R:3 unique_starting_index=4 config_type=initial n_minim_iter=2 stress="8.849295379131785e-05 4.2180451109692474e-16 1.1965255440009496e-15 4.2180451109692474e-16 -0.0001035235464074363 -4.782306694500227e-16 1.1965255440009496e-15 -4.782306694500227e-16 0.0001647642839945462" pbc="T T T"
Si       1.47250621       5.27613767      36.43316731
Si       1.47250621       3.59113519      23.33712576
Si       0.45165648       3.81831384      32.00147991
Si       0.45165648       5.04895901      27.76881316
Si       0.18322238       0.84250124      53.22227229
Si       0.18322238       8.02477162       6.54802077
Si       1.20407211       8.25195027      57.65395969
Si       1.20407211       0.61532258       2.11633338
Si       1.01694550       5.64947875      10.62491658
Si       1.01694550       3.21779411      49.14537649
Si       1.01501582       7.62785998      48.93231089
Si       1.01501582       1.23941288      10.83798218
Si       0.63878309       1.21584232      19.26022996
Si       0.63878309       7.65143054      40.51006311
Si       0.64071277       3.19422355      40.72312871
Si       0.64071277       5.67304931      19.04716435
Si       1.47626931       5.23337250      54.28871861
Si       1.47626931       3.63390035       5.48157446
Si       0.17945927       8.06753678      24.40357208
Si       0.17945927       0.79973608      35.36672099
20
Lattice="1.6557153043381654 3.157715875906674e-16 1.677776239163859e-14 -1.69114537489733e-15 8.867343957191189 -7.839477756761869e-15 -6.056575910863377e-13 5.338614205020117e-14 59.76938517438882" Properties=species:S:1:pos:R:3 unique_starting_index=4 config_type=initial n_minim_iter=3 stress="-0.00014502673312423637 5.802114218270539e-16 9.504030093250826e-16 5.802114218270539e-16 -2.494331201621125e-05 8.681663272082956e-16 9.504030093250826e-16 8.681663272082956e-16 -1.2922831346025635e-05" pbc="T T T"
Si       1.47249269       5.27617981      36.43261205
Si       1.47249269       3.59116415      23.33677313
Si       0.45165285       3.81834530      32.00099627
Si       0.45165285       5.04899866      27.76838890
Si       0.18322261       0.84250783      53.22146571
Si       0.18322261       8.02483613       6.54791946
Si       1.20406246       8.25201728      57.65308149
Si       1.20406246       0.61532668       2.11630368
Si       1.01693651       5.64952303      10.62475595
Si       1.01693651       3.21782093      49.14462923
Si       1.01500631       7.62792337      48.93156874
Si       1.01500631       1.23942059      10.83781643
Si       0.63877880       1.21585105      19.25993664
Si       0.63877880       7.65149290      40.50944853
Si       0.64070899       3.19425139      40.72250902
Si       0.64070899       5.67309257      19.04687616
Si       1.47625795       5.23341524      54.28789266
Si       1.47625795       3.63392872       5.48149251
Si       0.17945735       8.06760070      24.40320007
Si       0.17945735       0.79974326      35.36618510
20
Lattice="1.6557289807172515 3.1577419589653607e-16 1.6777900977685395e-14 -1.6911510231738703e-15 8.867373573338813 -7.854961899394876e-15 -6.056519165324569e-13 5.328162787533299e-14 59.76882518042256" Properties=species:S:1:pos:R:3 unique_starting_index=4 config_type=initial n_minim_iter=4 stress="8.858375768963052e-05 1.2009059160016397e-15 -2.138148965489645e-16 1.2009059160016397e-15 -4.019080390569201e-06 1.3476664367098047e-15 -2.138148965489645e-16 1.3476664367098047e-15 -0.00012446200134489237" pbc="T T T"
Si       1.47250208       5.27619734      36.43226774
Si       1.47250208       3.59117623      23.33655744
Si       0.45165650       3.81835932      32.00070055
Si       0.45165650       5.04901426      27.76812463
Si       0.18322690       0.84251056      53.22097003
Si       0.18322690       8.02486302       6.54785515
Si       1.20407248       8.25204610      57.65253722
Si       1.20407248       0.61532747       2.11628796
Si       1.01694356       5.64954009      10.62465776
Si       1.01694356       3.21783348      49.14416742
Si       1.01501248       7.62795231      48.93111203
Si       1.01501248       1.23942126      10.83771315
Si       0.63878542       1.21585331      19.25975483
Si       0.63878542       7.65152027      40.50907035
Si       0.64071650       3.19426553      40.72212574
Si       0.64071650       5.67310805      19.04669944
Si       1.47627087       5.23343373      54.28738168
Si       1.47627087       3.63393984       5.48144350
Si       0.17945811       8.06762663      24.40296909
Si       0.17945811       0.79974695      35.36585609
20
Lattice="1.6557258745568308 3.1577360350169187e-16 1.6777869502212916e-14 -1.6911681876300202e-15 8.867463573369982 -7.855119509828838e-15 -6.056550381497624e-13 5.3281379167633566e-14 59.769133237565484" Properties=species:S:1:pos:R:3 unique_starting_index=4 config_type=initial n_minim_iter=5 stress="-9.056528167947698e-07 1.7699587202882471e-15 -1.4117919485129771e-15 1.7699587202882471e-15 -4.008331755535892e-06 4.588228945673593e-15 -1.4117919485129771e-15 4.588228945673593e-15 4.725409172789904e-08" pbc="T T T"
Si       1.47228629       5.27625248      36.43223178
Si       1.47228629       3.59121109      23.33690146
Si       0.45164849       3.81849088      32.00117997
Si       0.45164849       5.04897269      27.76795327
Si       0.18343959       0.84252069      53.22146808
Si       0.18343959       8.02494288       6.54766516
Si       1.20407739       8.25222267      57.65251989
Si       1.20407739       0.61524090       2.11661335
Si       1.01683848       5.64945179      10.62482200
Si       1.01683848       3.21801179      49.14431124
Si       1.01484116       7.62828724      48.93149228
Si       1.01484116       1.23917633      10.83764096
Si       0.63888740       1.21572000      19.25974462
Si       0.63888740       7.65174357      40.50938862
Si       0.64088472       3.19455545      40.72220757
Si       0.64088472       5.67290812      19.04692566
Si       1.47632049       5.23355407      54.28747444
Si       1.47632049       3.63390950       5.48165880
Si       0.17940539       8.06764129      24.40290782
Si       0.17940539       0.79982228      35.36622542
20
Lattice="1.6557280955630462 3.157740270833643e-16 1.677789200820441e-14 -1.6911911133531842e-15 8.867583782002404 -7.854663826433359e-15 -6.056426987213858e-13 5.3284094476090805e-14 59.76791551973562" Properties=species:S:1:pos:R:3 unique_starting_index=4 config_type=initial n_minim_iter=6 stress="8.584320375668055e-06 1.8744711946125128e-15 -1.0758346249586599e-15 1.8744711946125128e-15 6.417616180004163e-05 -2.9536585117051653e-15 -1.0758346249586599e-15 -2.9536585117051653e-15 2.4990145263808502e-05" pbc="T T T"
Si       1.47173046       5.27663849      36.43129162
Si       1.47173046       3.59094529      23.33662390
Si       0.45158989       3.81896738      32.00051422
Si       0.45158989       5.04861640      27.76740130
Si       0.18399764       0.84284660      53.22058166
Si       0.18399764       8.02473718       6.54733386
Si       1.20413821       8.25275927      57.65135906
Si       1.20413821       0.61482451       2.11655646
Si       1.01654279       5.64898671      10.62481292
Si       1.01654279       3.21859708      49.14310260
Si       1.01435701       7.62896184      48.93088177
Si       1.01435701       1.23862194      10.83703375
Si       0.63918531       1.21519482      19.25914484
Si       0.63918531       7.65238897      40.50877068
Si       0.64137108       3.19516995      40.72099151
Si       0.64137108       5.67241383      19.04692401
Si       1.47648802       5.23360852      54.28576558
Si       1.47648802       3.63397526       5.48214994
Si       0.17924008       8.06776715      24.40180782
Si       0.17924008       0.79981663      35.36610770
20
Lattice="1.6557323184438815 3.1577483245478493e-16 1.677793479967409e-14 -1.6912060815036736e-15 8.867662265934536 -7.85441294825291e-15 -6.056527200492047e-13 5.32871332036698e-14 59.7689044755601" Properties=species:S:1:pos:R:3 unique_starting_index=4 config_type=initial n_minim_iter=7 stress="1.0163060454398402e-05 1.270951090035169e-15 4.5165194021755456e-17 1.270951090035169e-15 7.002045786243019e-05 1.3893673970501917e-15 4.5165194021755456e-17 1.3893673970501917e-15 3.23124806023988e-05" pbc="T T T"
Si       1.47116863       5.27695106      36.43207560
Si       1.47116863       3.59071121      23.33682887
Si       0.45154109       3.81917691      32.00103085
Si       0.45154109       5.04848536      27.76787363
Si       0.18456368       0.84311993      53.22128111
Si       0.18456368       8.02454234       6.54762337
Si       1.20419123       8.25300804      57.65232587
Si       1.20419123       0.61465422       2.11657861
Si       1.01617994       5.64825513      10.62513406
Si       1.01617994       3.21940714      49.14377041
Si       1.01376802       7.62956806      48.93211530
Si       1.01376802       1.23809421      10.83678918
Si       0.63955238       1.21442400      19.25931818
Si       0.63955238       7.65323827      40.50958630
Si       0.64196430       3.19573693      40.72124141
Si       0.64196430       5.67192534      19.04766306
Si       1.47683328       5.23432892      54.28631803
Si       1.47683328       3.63333334       5.48258644
Si       0.17889904       8.06716448      24.40186579
Si       0.17889904       0.80049779      35.36703868
20
Lattice="1.6557389753573604 3.1577610203545035e-16 1.6778002255783433e-14 -1.6912600336699815e-15 8.867945158477653 -7.856338272656433e-15 -6.056731349040872e-13 5.327763960302649e-14 59.77091911773203" Properties=species:S:1:pos:R:3 unique_starting_index=4 config_type=initial n_minim_iter=8 stress="4.4314539044126655e-06 1.2812359549187673e-15 5.056378467427244e-16 1.2812359549187673e-15 1.3519307600562601e-05 6.0395701974458715e-15 5.056378467427244e-16 6.0395701974458715e-15 1.621662882215886e-05" pbc="T T T"
Si       1.47000893       5.27865072      36.43380968
Si       1.47000893       3.58929444      23.33710943
Si       0.45143321       3.81947680      32.00231021
Si       0.45143321       5.04846836      27.76860891
Si       0.18573004       0.84467814      53.22256899
Si       0.18573004       8.02326702       6.54835013
Si       1.20430576       8.25344938      57.65406847
Si       1.20430576       0.61449578       2.11685065
Si       1.01532318       5.64709726      10.62562534
Si       1.01532318       3.22084790      49.14529378
Si       1.01238995       7.63146744      48.93451584
Si       1.01238995       1.23647772      10.83640328
Si       0.64041579       1.21312468      19.25983422
Si       0.64041579       7.65482047      40.51108490
Si       0.64334903       3.19749486      40.72186284
Si       0.64334903       5.67045030      19.04905628
Si       1.47780690       5.23588630      54.28760091
Si       1.47780690       3.63205886       5.48331821
Si       0.17793208       8.06603144      24.40214135
Si       0.17793208       0.80191372      35.36877777
20
Lattice="1.6557455293711691 3.1577735199149135e-16 1.677806866918561e-14 -1.6913055878886348e-15 8.868184017260305 -7.857096450995233e-15 -6.056639440664885e-13 5.3273160559404746e-14 59.77001211892512" Properties=species:S:1:pos:R:3 unique_starting_index=4 config_type=initial n_minim_iter=9 stress="-2.164207100741326e-06 1.1696407421017127e-15 8.05819979146432e-17 1.1696407421017127e-15 -4.588607255117168e-05 1.646807612013854e-15 8.05819979146432e-17 1.646807612013854e-15 -1.9078867412968275e-05" pbc="T T T"
Si       1.46906406       5.28062565      36.43298829
Si       1.46906406       3.58755837      23.33702383
Si       0.45127818       3.81995207      32.00193849
Si       0.45127818       5.04823195      27.76807363
Si       0.18668147       0.84653364      53.22202989
Si       0.18668147       8.02165038       6.54798223
Si       1.20446735       8.25404408      57.65307969
Si       1.20446735       0.61413994       2.11693243
Si       1.01450871       5.64543846      10.62564700
Si       1.01450871       3.22274556      49.14436512
Si       1.01109570       7.63276094      48.93405250
Si       1.01109570       1.23542307      10.83595962
Si       0.64123682       1.21134645      19.25935906
Si       0.64123682       7.65683757      40.51065306
Si       0.64464983       3.19866893      40.72096568
Si       0.64464983       5.66951508      19.04904644
Si       1.47882199       5.23747593      54.28630301
Si       1.47882199       3.63070809       5.48370911
Si       0.17692354       8.06480009      24.40129695
Si       0.17692354       0.80338392      35.36871517
20
Lattice="1.6557464903759733 3.157775352705921e-16 1.6778078407279e-14 -1.6912742417653165e-15 8.868019657140039 -7.857220266386756e-15 -6.056958666192886e-13 5.3274129542177604e-14 59.77316239951626" Properties=species:S:1:pos:R:3 unique_starting_index=4 config_type=initial n_minim_iter=10 stress="-6.2360216198860675e-06 1.5609847696055416e-15 1.8791271274303339e-16 1.5609847696055416e-15 -5.428008417447625e-05 2.601556950705638e-15 1.8791271274303339e-16 2.601556950705638e-15 -2.132089825177122e-05" pbc="T T T"
Si       1.46871736       5.28160664      36.43437789
Si       1.46871736       3.58641302      23.33878451
Si       0.45104234       3.82054630      32.00333571
Si       0.45104234       5.04747336      27.76982669
Si       0.18702913       0.84759681      53.22536571
Si       0.18702913       8.02042285       6.54779669
Si       1.20470415       8.25455613      57.65640789
Si       1.20470415       0.61346353       2.11675451
Si       1.01400725       5.64460422      10.62625250
Si       1.01400725       3.22341543      49.14690990
Si       1.01032330       7.63385426      48.93654467
Si       1.01032330       1.23416540      10.83661773
Si       0.64173924       1.21059439      19.26032870
Si       0.64173924       7.65742526      40.51283370
Si       0.64542319       3.19984443      40.72319893
Si       0.64542319       5.66817523      19.04996347
Si       1.47951421       5.23877277      54.28867592
Si       1.47951421       3.62924689       5.48448648
Si       0.17623228       8.06325672      24.40209472
Si       0.17623228       0.80476294      35.37106768
20
Lattice="1.6557233913943212 3.1577312992258837e-16 1.677784433972847e-14 -1.6912755566194324e-15 8.868026551440078 -7.86189481942988e-15 -6.057770530670702e-13 5.324975835750866e-14 59.78117429293558" Properties=species:S:1:pos:R:3 unique_starting_index=4 config_type=initial n_minim_iter=11 stress="-1.3934220836166934e-06 1.2739334351342657e-15 1.746725649245851e-16 1.2739334351342657e-15 0.00014329434161690073 1.5069145101459135e-15 1.746725649245851e-16 1.5069145101459135e-15 4.734551582908152e-05" pbc="T T T"
Si       1.46942771       5.28668767      36.43843448
Si       1.46942771       3.58133888      23.34273981
Si       0.44948560       3.82418058      32.00821862
Si       0.44948560       5.04384597      27.77295567
Si       0.18629568       0.85267439      53.23332696
Si       0.18629568       8.01535216       6.54784733
Si       1.20623779       8.25819386      57.66354282
Si       1.20623779       0.60983270       2.11763147
Si       1.01248294       5.64139343      10.62629788
Si       1.01248294       3.22663312      49.15487641
Si       1.00814323       7.63803554      48.94277938
Si       1.00814323       1.22999101      10.83839492
Si       0.64324045       1.20738016      19.26428927
Si       0.64324045       7.66064640      40.51688503
Si       0.64758017       3.20402226      40.72898206
Si       0.64758017       5.66400429      19.05219223
Si       1.48235012       5.24399341      54.29315577
Si       1.48235012       3.62403314       5.48801853
Si       0.17337327       8.05804642      24.40256862
Si       0.17337327       0.80998014      35.37860567
20
Lattice="1.6556860292079336 3.1576600435161524e-16 1.6777465739685327e-14 -1.6913646530732302e-15 8.868493719380162 -7.88766149191106e-15 -6.05880312560086e-13 5.308791853655267e-14 59.791364467221804" Properties=species:S:1:pos:R:3 unique_starting_index=4 config_type=initial n_minim_iter=12 stress="2.0742986018161155e-05 3.932822152806675e-16 1.1861695110394408e-16 3.932822152806675e-16 -5.699862490688018e-07 -1.5483432295487115e-15 1.1861695110394408e-16 -1.5483432295487115e-15 3.305180531409133e-05" pbc="T T T"
Si       1.47050287       5.29590602      36.44452111
Si       1.47050287       3.57258770      23.34684336
Si       0.44659993       3.83079974      32.01552197
Si       0.44659993       5.03769398      27.77584249
Si       0.18518316       0.86165916      53.24252559
Si       0.18518316       8.00683456       6.54883887
Si       1.20908610       8.26504660      57.67152473
Si       1.20908610       0.60344712       2.11983974
Si       1.00954187       5.63315512      10.62636270
Si       1.00954187       3.23533860      49.16500176
Si       1.00395818       7.64576445      48.95221693
Si       1.00395818       1.22272927      10.83914754
Si       0.64614416       1.19890826      19.26931953
Si       0.64614416       7.66958546      40.52204494
Si       0.65172785       3.21151759      40.73482977
Si       0.65172785       5.65697613      19.05653470
Si       1.48762999       5.25401638      54.29741502
Si       1.48762999       3.61447734       5.49394945
Si       0.16805604       8.04872420      24.40173279
Si       0.16805604       0.81976952      35.38963168
20
Lattice="1.6556341472379414 3.157561096239451e-16 1.677694000717402e-14 -1.6913389360401502e-15 8.868358874805963 -7.907698052453768e-15 -6.059401595359263e-13 5.295731570884005e-14 59.797270472534294" Properties=species:S:1:pos:R:3 unique_starting_index=4 config_type=initial n_minim_iter=13 stress="-6.657322581841381e-05 9.534382715576871e-17 5.646655970345957e-16 9.534382715576871e-17 -7.799488555365986e-05 -1.3062357221738603e-15 5.646655970345957e-16 -1.3062357221738603e-15 -0.00014899450090095939" pbc="T T T"
Si       1.47411952       5.29999905      36.44818193
Si       1.47411952       3.56835982      23.34908854
Si       0.44455588       3.83480202      32.01963869
Si       0.44455588       5.03355686      27.77763178
Si       0.18151462       0.86581961      53.24772377
Si       0.18151462       8.00253926       6.54954670
Si       1.21107826       8.26898146      57.67626702
Si       1.21107826       0.59937742       2.12100345
Si       1.00941413       5.62809427      10.62823328
Si       1.00941413       3.24026461      49.16903719
Si       1.00440336       7.65094934      48.95852255
Si       1.00440336       1.21740953      10.83874792
Si       0.64622002       1.19391483      19.27040195
Si       0.64622002       7.67444405      40.52686852
Si       0.65123079       3.21676991      40.73738316
Si       0.65123079       5.65158897      19.05988731
Si       1.48883551       5.25794384      54.30189495
Si       1.48883551       3.61041503       5.49537552
Si       0.16679864       8.04459447      24.40325972
Si       0.16679864       0.82376441      35.39401075
20
Lattice="1.655622730772527 3.1575393232003424e-16 1.6776824321377338e-14 -1.6913691743068885e-15 8.868517425996094 -7.922148549170595e-15 -6.060346990484545e-13 5.286916640704332e-14 59.80660011459885" Properties=species:S:1:pos:R:3 unique_starting_index=4 config_type=initial n_minim_iter=14 stress="4.6993188278391916e-05 -1.3148676808876541e-17 3.880123954465587e-16 -1.3148676808876541e-17 6.428997131014906e-05 -7.805509700254038e-15 3.880123954465587e-16 -7.805509700254038e-15 0.00014166821999529115" pbc="T T T"
Si       1.47450321       5.30745433      36.45314297
Si       1.47450321       3.56106310      23.35345714
Si       0.44255916       3.83946539      32.02531160
Si       0.44255916       5.02905203      27.78128852
Si       0.18111952       0.87319561      53.25675720
Si       0.18111952       7.99532181       6.54984291
Si       1.21306357       8.27372411      57.68458858
Si       1.21306357       0.59479332       2.12201154
Si       1.00774805       5.62092711      10.63057008
Si       1.00774805       3.24759031      49.17603003
Si       1.00235679       7.65844196      48.96740444
Si       1.00235679       1.21007547      10.83919567
Si       0.64787468       1.18666840      19.27272998
Si       0.64787468       7.68184903      40.53387014
Si       0.65326594       3.22418324      40.74249573
Si       0.65326594       5.64433418      19.06410439
Si       1.49092420       5.26515517      54.30860591
Si       1.49092420       3.60336226       5.49799420
Si       0.16469854       8.03762097      24.40530585
Si       0.16469854       0.83089645      35.40129426
20
Lattice="1.6556291727029153 3.157551608999733e-16 1.677688959901116e-14 -1.6916450028876678e-15 8.869963704320789 -7.99898209088842e-15 -6.062002463565154e-13 5.237448644907566e-14 59.8229371686796" Properties=species:S:1:pos:R:3 unique_starting_index=4 config_type=initial n_minim_iter=15 stress="-4.824368653547354e-05 1.006189446926101e-15 1.5961030789596404e-16 1.006189446926101e-15 -0.00014232430227239973 -6.357368289005832e-15 1.5961030789596404e-16 -6.357368289005832e-15 -0.00014607200654197125" pbc="T T T"
Si       1.47327555       5.32586429      36.46400320
Si       1.47327555       3.54409941      23.35893397
Si       0.43850885       3.85378541      32.03747428
Si       0.43850885       5.01617830      27.78546289
Si       0.18235363       0.89088244      53.27040256
Si       0.18235363       7.97908126       6.55253461
Si       1.21712032       8.28876726      57.69693148
Si       1.21712032       0.58119644       2.12600569
Si       1.00745178       5.60512022      10.63165718
Si       1.00745178       3.26484348      49.19127999
Si       1.00432075       7.67611035      48.98145502
Si       1.00432075       1.19385335      10.84148215
Si       0.64817739       1.17013837      19.27981140
Si       0.64817739       7.69982533      40.54312576
Si       0.65130843       3.24112850      40.75295073
Si       0.65130843       5.62883521      19.06998644
Si       1.48398470       5.28303820      54.32095439
Si       1.48398470       3.58692551       5.50198278
Si       0.17164447       8.02190736      24.40948580
Si       0.17164447       0.84805634      35.41345137
20
Lattice="1.6556223728610342 3.1575386406056073e-16 1.6776820694573824e-14 -1.6916358294912803e-15 8.86991560457601 -8.065549905619486e-15 -6.062503751592733e-13 5.1929956027006635e-14 59.827884135025606" Properties=species:S:1:pos:R:3 unique_starting_index=4 config_type=initial n_minim_iter=16 stress="-1.7899425908807397e-06 1.2684489786723926e-15 9.982812244980974e-16 1.2684489786723926e-15 -1.4190831324157765e-05 -9.022693163495335e-15 9.982812244980974e-16 -9.022693163495335e-15 1.2047939125139135e-05" pbc="T T T"
Si       1.47410146       5.32773535      36.46723172
Si       1.47410146       3.54218025      23.36065242
Si       0.43818219       3.85609619      32.04057292
Si       0.43818219       5.01381942      27.78731121
Si       0.18152092       0.89277755      53.27459448
Si       0.18152092       7.97713805       6.55328965
Si       1.21744019       8.29105399      57.70125328
Si       1.21744019       0.57886162       2.12663086
Si       1.00760367       5.60266904      10.63253628
Si       1.00760367       3.26724657      49.19534786
Si       1.00494777       7.67860062      48.98589121
Si       1.00494777       1.19131498      10.84199292
Si       0.64801870       1.16771124      19.28140579
Si       0.64801870       7.70220437      40.54647835
Si       0.65067460       3.24364282      40.75593499
Si       0.65067460       5.62627278      19.07194914
Si       1.48369853       5.28523230      54.32510540
Si       1.48369853       3.58468330       5.50277873
Si       0.17192384       8.01964110      24.41116333
Si       0.17192384       0.85027450      35.41672080
20
Lattice="1.6556195445160642 3.1575332464959843e-16 1.6776792034272254e-14 -1.6916020864173132e-15 8.869738676295576 -8.140705084944828e-15 -6.063871600211998e-13 5.1434670262543076e-14 59.84138276398486" Properties=species:S:1:pos:R:3 unique_starting_index=4 config_type=initial n_minim_iter=17 stress="5.690732574009526e-05 1.0331998786498692e-15 4.907004559398499e-16 1.0331998786498692e-15 0.00019349068277996637 -9.147444853725255e-15 4.907004559398499e-16 -9.147444853725255e-15 0.00018601569320151205" pbc="T T T"
Si       1.47524709       5.33299942      36.47603874
Si       1.47524709       3.53673926      23.36534402
Si       0.43901584       3.86258390      32.04900310
Si       0.43901584       5.00715478      27.79237967
Si       0.18037245       0.89813008      53.28603540
Si       0.18037245       7.97160860       6.55534736
Si       1.21660371       8.29745323      57.71307105
Si       1.21660371       0.57228544       2.12831172
Si       1.00807694       5.59593765      10.63459971
Si       1.00807694       3.27380103      49.20678306
Si       1.00678011       7.68526378      48.99751492
Si       1.00678011       1.18447490      10.84386784
Si       0.64754261       1.16106831      19.28609167
Si       0.64754261       7.70867036      40.55529109
Si       0.64883944       3.25039444      40.76455922
Si       0.64883944       5.61934423      19.07682354
Si       1.48336950       5.29108089      54.33672007
Si       1.48336950       3.57865779       5.50466270
Si       0.17225004       8.01352713      24.41602869
Si       0.17225004       0.85621155      35.42535408
20
Lattice="1.6556683968587929 3.157626415785392e-16 1.677728706684002e-14 -1.6915525272511485e-15 8.869478817989668 -8.140614516865744e-15 -6.065502807914812e-13 5.1448574171067695e-14 59.85748035492138" Properties=species:S:1:pos:R:3 unique_starting_index=4 config_type=initial n_minim_iter=18 stress="5.785975665783025e-06 1.1327027052248446e-15 -9.788632878559931e-18 1.1327027052248446e-15 2.7053845518444996e-05 -9.346060367508654e-15 -9.788632878559931e-18 -9.346060367508654e-15 1.4226671088583296e-05" pbc="T T T"
Si       1.47311099       5.33976847      36.48653072
Si       1.47311099       3.52971035      23.37094964
Si       0.44502718       3.87035304      32.05907847
Si       0.44502718       4.99912578      27.79840188
Si       0.18255741       0.90502906      53.29968982
Si       0.18255741       7.96444976       6.55779054
Si       1.21064121       8.30509245      57.72714206
Si       1.21064121       0.56438637       2.13033830
Si       1.00874660       5.58806820      10.63591890
Si       1.00874660       3.28141062      49.22156146
Si       1.00916703       7.69259971      49.00990621
Si       1.00916703       1.17687911      10.84757414
Si       0.64692179       1.15332879      19.29282128
Si       0.64692179       7.71615003      40.56465907
Si       0.64650137       3.25786030      40.77631432
Si       0.64650137       5.61161852      19.08116603
Si       1.48423490       5.29743680      54.35126054
Si       1.48423490       3.57204202       5.50621981
Si       0.17143349       8.00678143      24.42252036
Si       0.17143349       0.86269739      35.43495999
20
Lattice="1.6556784336366674 3.157645557538079e-16 1.677738877193024e-14 -1.6915445133111632e-15 8.869436797733309 -8.153166234551926e-15 -6.065765537657693e-13 5.136610775291872e-14 59.860073106243426" Properties=species:S:1:pos:R:3 unique_starting_index=4 config_type=initial n_minim_iter=19 stress="1.4364041859129704e-06 1.1995907740259756e-15 -5.367720351242784e-18 1.1995907740259756e-15 -5.045375734716273e-07 -7.845207466771689e-15 -5.367720351242784e-18 -7.845207466771689e-15 -3.0485578689549733e-06" pbc="T T T"
Si       1.47272557       5.34079720      36.48820698
Si       1.47272557       3.52863960      23.37186613
Si       0.44629589       3.87149814      32.06067460
Si       0.44629589       4.99793865      27.79939851
Si       0.18295286       0.90607880      53.30190268
Si       0.18295286       7.96335800       6.55817043
Si       1.20938255       8.30621654      57.72943506
Si       1.20938255       0.56322026       2.13063804
Si       1.00893385       5.58673765      10.63605760
Si       1.00893385       3.28269915      49.22401551
Si       1.00969700       7.69384507      49.01185356
Si       1.00969700       1.17559172      10.84821955
Si       0.64674459       1.15201925      19.29397895
Si       0.64674459       7.71741755      40.56609415