20
Lattice="1.6570268899084055 3.1602172809208013e-16 1.6791053004463754e-14 -1.6904011974732485e-15 8.863441940709183 -1.1651305391074196e-14 -5.957515733082745e-13 7.728389519929355e-14 58.79180873377135" Properties=species:S:1:pos:R:3 unique_starting_index=4 config_type=initial n_minim_iter=1 energy=-3614.239738568489 free_energy=-3614.239738568489 pbc="T T T"
Si       1.38084335       4.79467657      35.82957206
Si       1.38084335       4.06876537      22.96223667
Si       0.58656900       3.43870958      31.36754626
Si       0.58656900       5.42473236      27.42426247
Si       0.27618354       0.36295560      52.35814104
Si       0.27618354       8.50048634       6.43366769
Si       1.07045789       7.87043055      56.82016684
Si       1.07045789       0.99301139       1.97164189
Si       1.09779733       6.33792799      10.63808980
Si       1.09779733       2.52551395      48.15371894
Si       1.11616896       6.93470027      48.21265403
Si       1.11616896       1.92874167      10.57915470
Si       0.55922956       1.90620702      18.75781457
Si       0.55922956       6.95723492      40.03399417
Si       0.54085793       2.50297930      39.97505907
Si       0.54085793       6.36046265      18.81674966
Si       1.33875611       4.73715610      53.57174093
Si       1.33875611       4.12628585       5.22006780
Si       0.31827078       8.55800682      24.17583657
Si       0.31827078       0.30543512      34.61597217
20
Lattice="1.6569442811135913 3.160059732628795e-16 1.6790215909627513e-14 -1.6902561853955458e-15 8.862681585015729 -1.1433314147130362e-14 -5.957293202417968e-13 7.875330658882622e-14 58.78961268748697" Properties=species:S:1:pos:R:3 unique_starting_index=4 config_type=initial n_minim_iter=2 stress="0.00037423804719932457 5.946403909891973e-16 2.6388453337150363e-16 5.946403909891973e-16 0.00010076754819413698 -5.143948018937693e-18 2.6388453337150363e-16 -5.143948018937693e-18 -0.00017191119193979144" pbc="T T T"
Si       1.38078187       4.79427070      35.82823640
Si       1.38078187       4.06841089      22.96137629
Si       0.58653335       3.43841686      31.36637239
Si       0.58653335       5.42426473      27.42324030
Si       0.27616241       0.36292991      52.35618263
Si       0.27616241       8.49975168       6.43343005
Si       1.07041093       7.86975765      56.81804665
Si       1.07041093       0.99292394       1.97156604
Si       1.09774248       6.33738103      10.63768947
Si       1.09774248       2.52530055      48.15192322
Si       1.11611310       6.93410387      48.21085300
Si       1.11611310       1.92857772      10.57875968
Si       0.55920181       1.90604024      18.75711687
Si       0.55920181       6.95664135      40.03249582
Si       0.54083118       2.50276307      39.97356603
Si       0.54083118       6.35991851      18.81604666
Si       1.33869066       4.73675303      53.56973838
Si       1.33869066       4.12592855       5.21987431
Si       0.31825362       8.55726934      24.17493203
Si       0.31825362       0.30541224      34.61468065
20
Lattice="1.6567645435516751 3.159716944136579e-16 1.678839458557583e-14 -1.6902730517877024e-15 8.862770022179625 -1.137938982587077e-14 -5.95778447565887e-13 7.91189657250036e-14 58.79446082280223" Properties=species:S:1:pos:R:3 unique_starting_index=4 config_type=initial n_minim_iter=3 stress="-0.0026367619459376312 3.3924881342558293e-16 1.2259510759613654e-15 3.3924881342558293e-16 0.0012409510652246212 -6.018001316551774e-15 1.2259510759613654e-15 -6.018001316551774e-15 0.0012061257630396666" pbc="T T T"
Si       1.38073674       4.79439464      35.83122843
Si       1.38073674       4.06837538      22.96323240
Si       0.58637854       3.43848501      31.36892002
Si       0.58637854       5.42428501      27.42554080
Si       0.27602780       0.36300963      52.36046281
Si       0.27602780       8.49976039       6.43399802
Si       1.07038601       7.86987002      56.82277121
Si       1.07038601       0.99290000       1.97168961
Si       1.09762157       6.33739593      10.63853302
Si       1.09762157       2.52537409      48.15592781
Si       1.11598905       6.93414925      48.21481977
Si       1.11598905       1.92862077      10.57964106
Si       0.55914298       1.90601092      18.75869739
Si       0.55914298       6.95675910      40.03576343
Si       0.54077549       2.50276424      39.97687147
Si       0.54077549       6.36000578      18.81758936
Si       1.33856372       4.73684109      53.57413302
Si       1.33856372       4.12592893       5.22032781
Si       0.31820083       8.55731394      24.17690261
Si       0.31820083       0.30545608      34.61755822
20
Lattice="1.6569817841254477 3.1601312569151967e-16 1.679059593668914e-14 -1.6897485654496292e-15 8.860019932902494 -1.1393913105844502e-14 -5.96047910866257e-13 7.902649299178431e-14 58.82105283787337" Properties=species:S:1:pos:R:3 unique_starting_index=4 config_type=initial n_minim_iter=4 stress="0.0012942453720544925 3.370991756364272e-16 1.0506386206334414e-15 3.370991756364272e-16 -0.0030199775551744234 -6.230806425645999e-15 1.0506386206334414e-15 -6.230806425645999e-15 0.005466540497863988" pbc="T T T"
Si       1.38227487       4.79388626      35.84791684
Si       1.38227487       4.06613367      22.97313599
Si       0.58527349       3.43785698      31.38261147
Si       0.58527349       5.42216295      27.43844137
Si       0.27470691       0.36387630      52.38366241
Si       0.27470691       8.49614364       6.43739042
Si       1.07170830       7.86786695      56.84896779
Si       1.07170830       0.99215298       1.97208505
Si       1.09774170       6.33481249      10.64290224
Si       1.09774170       2.52520744      48.17815060
Si       1.11609665       6.93169943      48.23651706
Si       1.11609665       1.92832050      10.58453578
Si       0.55924009       1.90480253      18.76762418
Si       0.55924009       6.95521741      40.05342865
Si       0.54088513       2.50168947      39.99506220
Si       0.54088513       6.35833046      18.82599064
Si       1.33897692       4.73590992      53.59806994
Si       1.33897692       4.12411001       5.22298290
Si       0.31800487       8.55411998      24.18754352
Si       0.31800487       0.30589995      34.63350932
20
Lattice="1.6568773331247668 3.159932052026505e-16 1.6789537509514794e-14 -1.6902294873908616e-15 8.862541596819378 -1.1533672741411244e-14 -5.956796797219806e-13 7.808037432882691e-14 58.78471390739599" Properties=species:S:1:pos:R:3 unique_starting_index=4 config_type=initial n_minim_iter=5 stress="-0.00012989435287722088 7.341438113077095e-16 1.1730481133552845e-15 7.341438113077095e-16 8.988911074177026e-06 -3.04152642778639e-15 1.1730481133552845e-15 -3.04152642778639e-15 -0.00036624520949849767" pbc="T T T"
Si       1.38614606       4.79805125      35.82714875
Si       1.38614606       4.06449035      22.95756515
Si       0.58179476       3.44011060      31.36183826
Si       0.58179476       5.42243100      27.42287565
Si       0.27073127       0.36678045      52.34992211
Si       0.27073127       8.49576115       6.43479180
Si       1.07508257       7.87138140      56.81523260
Si       1.07508257       0.99116020       1.96948131
Si       1.09760205       6.33488067      10.63503365
Si       1.09760205       2.52766092      48.14968026
Si       1.11591177       6.93287529      48.20641756
Si       1.11591177       1.92966631      10.57829635
Si       0.55927529       1.90360987      18.75732331
Si       0.55927529       6.95893172      40.02739060
Si       0.54096556       2.50160449      39.97065330
Si       0.54096556       6.36093711      18.81406061
Si       1.33959398       4.73889245      53.56413377
Si       1.33959398       4.12364915       5.22058014
Si       0.31728335       8.55491994      24.17177682
Si       0.31728335       0.30762165      34.61293709
20
Lattice="1.6567684597561771 3.159724412969462e-16 1.678843426942022e-14 -1.6901544479389532e-15 8.862148135298861 -1.1525847074268767e-14 -5.959845876318976e-13 7.816797003090076e-14 58.814803777611075" Properties=species:S:1:pos:R:3 unique_starting_index=4 config_type=initial n_minim_iter=6 stress="-0.00028595130438602626 8.927553595883014e-16 1.60976236425765e-15 8.927553595883014e-16 -0.0010763282718111227 -3.797810098248621e-15 1.60976236425765e-15 -3.797810098248621e-15 -0.00042030902223536313" pbc="T T T"
Si       1.40343050       4.80632086      35.84829468
Si       1.40343050       4.05582728      22.96650910
Si       0.56668638       3.44208727      31.38028114
Si       0.56668638       5.42006087      27.43452264
Si       0.25333796       0.37524679      52.37391099
Si       0.25333796       8.48690135       6.44089279
Si       1.09008208       7.87316133      56.84192453
Si       1.09008208       0.98898680       1.97287925
Si       1.09706149       6.33218661      10.63614009
Si       1.09706149       2.52996152      48.17866369
Si       1.11515388       6.93532702      48.22998936
Si       1.11515388       1.92682112      10.58481442
Si       0.55970697       1.90111255      18.77126180
Si       0.55970697       6.96103559      40.04354198
Si       0.54161458       2.50425295      39.99221631
Si       0.54161458       6.35789519      18.82258747
Si       1.34296432       4.75025047      53.58928297
Si       1.34296432       4.11189766       5.22552081
Si       0.31380414       8.54297173      24.18188108
Si       0.31380414       0.31917641      34.63292270
20
Lattice="1.656511414271494 3.1592341858115763e-16 1.6785829565547213e-14 -1.6898559808724839e-15 8.860583154441585 -1.1485091047465965e-14 -5.964573236447892e-13 7.848520771374592e-14 58.86145578240097" Properties=species:S:1:pos:R:3 unique_starting_index=4 config_type=initial n_minim_iter=7 stress="0.0012573647947994619 3.389981151924677e-16 2.275900727489082e-15 3.389981151924677e-16 -0.00027199653448996974 -8.220254523363067e-15 2.275900727489082e-15 -8.220254523363067e-15 0.0018746796167070758" pbc="T T T"
Si       1.43805428       4.82291579      35.87279730
Si       1.43805428       4.03766736      22.98865848
Si       0.53467024       3.45147455      31.40843286
Si       0.53467024       5.40910860      27.45302292
Si       0.21845714       0.39262421      52.41938637
Si       0.21845714       8.46795894       6.44206941
Si       1.12184118       7.88176613      56.88375081
Si       1.12184118       0.97881702       1.97770497
Si       1.09505256       6.32615703      10.64023089
Si       1.09505256       2.53442613      48.22122489
Si       1.11240767       6.94391332      48.26660759
Si       1.11240767       1.91666984      10.59484819
Si       0.56145885       1.89586545      18.79049700
Si       0.56145885       6.96471771      40.07095878
Si       0.54410375       2.51362174      40.02557608
Si       0.54410375       6.34696141      18.83587970
Si       1.35008117       4.76780803      53.62258342
Si       1.35008117       4.09277512       5.23887236
Si       0.30643024       8.52306670      24.19185553
Si       0.30643024       0.33751645      34.66960026
20
Lattice="1.6564085042541685 3.1590379198262027e-16 1.678478675352888e-14 -1.6898936064137988e-15 8.860780440033215 -1.1418299792840677e-14 -5.964980164897634e-13 7.893518831486312e-14 58.865471560228286" Properties=species:S:1:pos:R:3 unique_starting_index=4 config_type=initial n_minim_iter=8 stress="0.0013378939580361558 1.2901609367075393e-16 9.113367891563613e-16 1.2901609367075393e-16 0.0002189022884343812 -5.8766573662857754e-15 9.113367891563613e-16 -5.8766573662857754e-15 0.0020943784608428604" pbc="T T T"
Si       1.44788958       4.82652924      35.87264819
Si       1.44788958       4.03425120      22.99282337
Si       0.52484344       3.45466200      31.41312737
Si       0.52484344       5.40611844      27.45234419
Si       0.20851892       0.39613902      52.42555915
Si       0.20851892       8.46464142       6.43991241
Si       1.13156506       7.88505222      56.88507997
Si       1.13156506       0.97572822       1.98039159
Si       1.09377882       6.32089934      10.64132182
Si       1.09377882       2.53988110      48.22414974
Si       1.11054163       6.94579737      48.27078623
Si       1.11054163       1.91498307      10.59468533
Si       0.56262968       1.89050912      18.79141396
Si       0.56262968       6.97027132      40.07405760
Si       0.54586688       2.51540715      40.02742111
Si       0.54586688       6.34537329      18.83805045
Si       1.35313101       4.77457232      53.62294427
Si       1.35313101       4.08620812       5.24252729
Si       0.30327750       8.51659834      24.19020849
Si       0.30327750       0.34418210      34.67526307
20
Lattice="1.6558971059763774 3.1580626009072357e-16 1.6779604631475806e-14 -1.6900167884615544e-15 8.86142633222136 -1.1400787117520048e-14 -5.965508630804331e-13 7.906381740271872e-14 58.87068673176982" Properties=species:S:1:pos:R:3 unique_starting_index=4 config_type=initial n_minim_iter=9 stress="-0.001995438148075424 1.3417594046271355e-16 2.126444466404049e-15 1.3417594046271355e-16 0.001008228676791017 -5.178882851422898e-15 2.126444466404049e-15 -5.178882851422898e-15 -0.0026237236798852077" pbc="T T T"
Si       1.46851544       4.83715523      35.87455668
Si       1.46851544       4.02427110      22.99613005
Si       0.49878154       3.46606021      31.42032226
Si       0.49878154       5.39536613      27.45036447
Si       0.18738167       0.40644206      52.43147342
Si       0.18738167       8.45498427       6.43921331
Si       1.15711557       7.89677337      56.88570783
Si       1.15711557       0.96465296       1.98497890
Si       1.08604621       6.30667310      10.64765228
Si       1.08604621       2.55475324      48.22303445
Si       1.09893607       6.96442131      48.28769580
Si       1.09893607       1.89700502      10.58299093
Si       0.56985090       1.87595993      18.78769109
Si       0.56985090       6.98546640      40.08299564
Si       0.55696104       2.53370815      40.01833430
Si       0.55696104       6.32771819      18.85235243
Si       1.36654387       4.78742745      53.61315280
Si       1.36654387       4.07399889       5.25753393
Si       0.28935324       8.50471205      24.17780944
Si       0.28935324       0.35671428      34.69287729
20
Lattice="1.6558497075562078 3.157972204482514e-16 1.6779124331855903e-14 -1.6903002167709091e-15 8.86291245892789 -1.1377551158113534e-14 -5.964260650664063e-13 7.921540746410541e-14 58.85837102619768" Properties=species:S:1:pos:R:3 unique_starting_index=4 config_type=initial n_minim_iter=10 stress="-0.0021053940452684405 7.272229217633999e-16 1.987974006877785e-15 7.272229217633999e-16 0.0006340516707120867 -4.7350463834859765e-15 1.987974006877785e-15 -4.7350463834859765e-15 -0.0033308247060171185" pbc="T T T"
Si       1.47031008       4.84699843      35.86662443
Si       1.47031008       4.01591403      22.99174660
Si       0.49293693       3.46801267      31.41712214
Si       0.49293693       5.39489979      27.44124889
Si       0.18553963       0.41554220      52.42093211
Si       0.18553963       8.44737026       6.43743892
Si       1.16291278       7.89946890      56.87043440
Si       1.16291278       0.96344356       1.98793662
Si       1.08075632       6.29930247      10.64906857
Si       1.08075632       2.56360999      48.20930246
Si       1.09150286       6.97221840      48.28312987
Si       1.09150286       1.89069406      10.57524116
Si       0.57509339       1.86784624      18.78011695
Si       0.57509339       6.99506622      40.07825408
Si       0.56434684       2.54076217      40.00442667
Si       0.56434684       6.32215029      18.85394436
Si       1.37517165       4.79075628      53.59888194
Si       1.37517165       4.07215618       5.25948909
Si       0.28067806       8.50361241      24.16969642
Si       0.28067806       0.35930005      34.68867460
20
Lattice="1.6559910095646144 3.158241690180841e-16 1.6780556179176792e-14 -1.6896981922024647e-15 8.859755806046945 -1.1253463832163938e-14 -5.970954011830414e-13 8.009539427173581e-14 58.92442453358413" Properties=species:S:1:pos:R:3 unique_starting_index=4 config_type=initial n_minim_iter=11 stress="0.0017888737661804245 8.537410505183664e-16 2.6402019039721863e-15 8.537410505183664e-16 -0.0013149272879044956 -5.202580842148023e-15 2.6402019039721863e-15 -5.202580842148023e-15 0.0004164686119515435" pbc="T T T"
Si       1.47045756       4.87291799      35.90710147
Si       1.47045756       3.98683781      23.01732306
Si       0.47465968       3.47455248      31.45089416
Si       0.47465968       5.38520333      27.47353038
Si       0.18553345       0.44304009      52.47953533
Si       0.18553345       8.41671572       6.44488921
Si       1.18133133       7.90443038      56.93574264
Si       1.18133133       0.95532542       1.98868189
Si       1.05804787       6.26719897      10.67452132
Si       1.05804787       2.59255684      48.24990322
Si       1.06065149       6.99577182      48.35425081
Si       1.06065149       1.86398398      10.57017372
Si       0.59794314       1.83732107      18.78769095
Si       0.59794314       7.02243474      40.13673358
Si       0.59533952       2.56589392      40.03238599
Si       0.59533952       6.29386189      18.89203855
Si       1.41073688       4.81474542      53.65174984
Si       1.41073688       4.04501039       5.27267470
Si       0.24525413       8.47488829      24.18953757
Si       0.24525413       0.38486751      34.73488696
20
Lattice="1.6557425949040818 3.157767923395197e-16 1.677803893352611e-14 -1.689544493138944e-15 8.858949901076697 -1.0974088606959711e-14 -5.981297729401184e-13 8.207014442533105e-14 59.026501622805256" Properties=species:S:1:pos:R:3 unique_starting_index=4 config_type=initial n_minim_iter=12 stress="-0.0016812296733432854 1.216641971201727e-15 3.1016804722189054e-15 1.216641971201727e-15 -0.00015974592698812708 -5.665950900033675e-15 3.1016804722189054e-15 -5.665950900033675e-15 0.0033508033473842896" pbc="T T T"
Si       1.46210075       4.90710035      35.95949730
Si       1.46210075       3.95184955      23.06700432
Si       0.45603836       3.49276047      31.50970785
Si       0.45603836       5.36618943      27.51679377
Si       0.19364185       0.47762540      52.58025513
Si       0.19364185       8.38132450       6.44624649
Si       1.19970423       7.92223542      57.03004459
Si       1.19970423       0.93671448       1.99645704
Si       1.03100062       6.24991960      10.69000606
Si       1.03100062       2.60903030      48.33649557
Si       1.02667167       7.02057505      48.43837545
Si       1.02667167       1.83837485      10.58812618
Si       0.62474197       1.82044465      18.82324475
Si       0.62474197       7.03850525      40.20325687
Si       0.62907093       2.59110010      40.10137699
Si       0.62907093       6.26784980      18.92512464
Si       1.44454816       4.85366461      53.72716375
Si       1.44454816       4.00528530       5.29933787
Si       0.21119443       8.43476025      24.21391294
Si       0.21119443       0.42418966      34.81258868
20
Lattice="1.655452324057427 3.157214330118336e-16 1.6775097549049334e-14 -1.6901992647177734e-15 8.862383127391139 -1.0733533074122865e-14 -5.990056267938477e-13 8.380458606952029e-14 59.1129353555129" Properties=species:S:1:pos:R:3 unique_starting_index=4 config_type=initial n_minim_iter=13 stress="0.0024991687103508775 1.6800674862244428e-15 4.21380230191305e-15 1.6800674862244428e-15 0.005534429323579303 -1.668290115854689e-15 4.21380230191305e-15 -1.668290115854689e-15 0.005238517542108775" pbc="T T T"
Si       1.47623023       4.95574932      36.01161363
Si       1.47623023       3.90663381      23.10132173
Si       0.41202534       3.52646169      31.56868138
Si       0.41202534       5.33592144      27.54425398
Si       0.17922209       0.52455776      52.65778941
Si       0.17922209       8.33782537       6.45514595
Si       1.24342698       7.95765326      57.10072165
Si       1.24342698       0.90472987       2.01221370
Si       0.99952515       6.22060403      10.69227696
Si       0.99952515       2.64177909      48.42065840
Si       0.98646940       7.05325160      48.51598524
Si       0.98646940       1.80913153      10.59695011
Si       0.65592717       1.78941247      18.86419072
Si       0.65592717       7.07297066      40.24874464
Si       0.66898292       2.62206003      40.15341779
Si       0.66898292       6.24032310      18.95951756
Si       1.48606466       4.90924709      53.76906407
Si       1.48606466       3.95313604       5.34387128
Si       0.16938767       8.38432760      24.21259640
Si       0.16938767       0.47805552      34.90033896
20
Lattice="1.655535429573212 3.1573728257279917e-16 1.677593967727859e-14 -1.6904688354862515e-15 8.863796593530957 -1.0628368223585663e-14 -5.987205067475393e-13 8.448059016491086e-14 59.08479825276804" Properties=species:S:1:pos:R:3 unique_starting_index=4 config_type=initial n_minim_iter=14 stress="-0.0016869188090751362 2.2551990969348902e-15 3.636591775661531e-15 2.2551990969348902e-15 -0.0023457808695794874 -5.99269348947041e-17 3.636591775661531e-15 -5.99269348947041e-17 -0.0025263997731977223" pbc="T T T"
Si       1.45412544       4.95166459      35.99646395
Si       1.45412544       3.91213200      23.08833430
Si       0.42832429       3.52934871      31.55518834
Si       0.42832429       5.33444789      27.52960991
Si       0.20140999       0.51976630      52.63073343
Si       0.20140999       8.34403030       6.45406483
Si       1.22721114       7.96124700      57.07200904
Si       1.22721114       0.90254959       2.01278922
Si       0.99850139       6.22289235      10.68259455
Si       0.99850139       2.64090424      48.40220371
Si       0.98603363       7.04968963      48.49071658
Si       0.98603363       1.81410696      10.59408167
Si       0.65703403       1.79099406      18.85980458
Si       0.65703403       7.07280254      40.22499367
Si       0.66950180       2.61779133      40.13648080
Si       0.66950180       6.24600526      18.94831746
Si       1.48179785       4.90520011      53.74163364
Si       1.48179785       3.95859648       5.34316461
Si       0.17373758       8.39049478      24.19923452
Si       0.17373758       0.47330182      34.88556373
20
Lattice="1.6555314608898142 3.1573652568092636e-16 1.677589946165293e-14 -1.6904036127741626e-15 8.863454605059387 -1.0200414097710486e-14 -5.988887051544725e-13 8.733595273670154e-14 59.10139693082952" Properties=species:S:1:pos:R:3 unique_starting_index=4 config_type=initial n_minim_iter=15 stress="0.0008652130866236701 2.15582799802353e-15 3.310392947974522e-15 2.15582799802353e-15 0.0009678467198551195 -3.1533465111232532e-15 3.310392947974522e-15 -3.1533465111232532e-15 0.0009685263792124284" pbc="T T T"
Si       1.46452061       4.95753865      36.00801682
Si       1.46452061       3.90591596      23.09338011
Si       0.42154537       3.53231483      31.56569689
Si       0.42154537       5.33113977      27.53570004
Si       0.19101085       0.52581134      52.64407857
Si       0.19101085       8.33764326       6.45731836
Si       1.23398610       7.96404214      57.08639850
Si       1.23398610       0.89941247       2.01499843
Si       0.99922698       6.21588951      10.68848657
Si       0.99922698       2.64756510      48.41291036
Si       0.98655894       7.05595447      48.50802953
Si       0.98655894       1.80750014      10.59336740
Si       0.65630449       1.78416220      18.86221190
Si       0.65630449       7.07929240      40.23918503
Si       0.66897252       2.62422717      40.14406587
Si       0.66897252       6.23922744      18.95733106
Si       1.48415941       4.90819380      53.75748205
Si       1.48415941       3.95526081       5.34391489
Si       0.17137205       8.38698811      24.20678358
Si       0.17137205       0.47646649      34.89461335
20
Lattice="1.6555396557027313 3.157380885637827e-16 1.6775982501668598e-14 -1.6896721240242577e-15 8.85961912027889 -8.222084219100857e-15 -6.023428036536138e-13 1.0079297771211306e-13 59.44226501646883" Properties=species:S:1:pos:R:3 unique_starting_index=4 config_type=initial n_minim_iter=16 stress="0.003821914738106212 1.5499660446207217e-15 4.147642664629888e-15 1.5499660446207217e-15 0.003473828610994262 4.2429238092969477e-16 4.147642664629888e-15 4.2429238092969477e-16 0.010912927430367982" pbc="T T T"
Si       1.46608121       5.04510019      36.22549113
Si       1.46608121       3.81451893      23.21677389
Si       0.41313616       3.63243836      31.78114564
Si       0.41313616       5.22718076      27.66111938
Si       0.18945845       0.61529063      52.93790640
Si       0.18945845       8.24432849       6.50435862
Si       1.24240349       8.06224792      57.38225188
Si       1.24240349       0.79737120       2.06001313
Si       0.98552919       6.12110170      10.73887603
Si       0.98552919       2.73851742      48.70338899
Si       0.97050477       7.14749292      48.79601720
Si       0.97050477       1.71212620      10.64624782
Si       0.67001047       1.69129214      18.98225648
Si       0.67001047       7.16832698      40.46000853
Si       0.68503489       2.71768336      40.36738032
Si       0.68503489       6.14193576      19.07488469
Si       1.50707060       5.00361579      54.05164304
Si       1.50707060       3.85600333       5.39062197
Si       0.14846905       8.28581289      24.33051054
Si       0.14846905       0.57380623      35.11175448
20
Lattice="1.6556128760245568 3.157520528589758e-16 1.6776724460844275e-14 -1.6895631668616934e-15 8.859047814788811 -7.185743034985573e-15 -6.04013670099607e-13 1.0780250030984368e-13 59.607154653214025" Properties=species:S:1:pos:R:3 unique_starting_index=4 config_type=initial n_minim_iter=17 stress="0.0015447747606222157 1.6574600243002436e-15 3.3678109542180977e-15 1.6574600243002436e-15 0.002863745579813176 -1.2055824767619363e-14 3.3678109542180977e-15 -1.2055824767619363e-14 0.009297474977091855" pbc="T T T"
Si       1.46154119       5.10219961      36.33610023
Si       1.46154119       3.75684821      23.27105443
Si       0.43279197       3.70667739      31.89109565
Si       0.43279197       5.15237043      27.71605900
Si       0.19407168       0.67267570      53.07463175
Si       0.19407168       8.18637212       6.53252290
Si       1.22282090       8.13620129      57.51963633
Si       1.22282090       0.72284652       2.08751832
Si       0.99734934       6.05657196      10.75970192
Si       0.99734934       2.80247586      48.84745273
Si       0.98753721       7.21052139      48.92951389
Si       0.98753721       1.64852643      10.67764077
Si       0.65826353       1.62704805      19.04387540
Si       0.65826353       7.23199977      40.56327925
Si       0.66807567       2.78099748      40.48121809
Si       0.66807567       6.07805034      19.12593656
Si       1.49340386       5.05731215      54.20699489
Si       1.49340386       3.80173567       5.40015976
Si       0.16220902       8.23125958      24.40341756
Si       0.16220902       0.62778824      35.20373709
20
Lattice="1.6556583194581147 3.15760719653997e-16 1.6777184950113725e-14 -1.6897630086364237e-15 8.860095664240303 -7.495071211531492e-15 -6.042853379965631e-13 1.0578536666322515e-13 59.63396422913977" Properties=species:S:1:pos:R:3 unique_starting_index=4 config_type=initial n_minim_iter=18 stress="-0.0004101402018879534 1.3737104630178664e-15 2.901176490147535e-15 1.3737104630178664e-15 0.0009644620384688839 -7.398034951056677e-15 2.901176490147535e-15 -7.398034951056677e-15 -0.000985923655208148" pbc="T T T"
Si       1.45976854       5.13665412      36.35494711
Si       1.45976854       3.72344155      23.27901712
Si       0.44535924       3.74433762      31.91176831
Si       0.44535924       5.11575804      27.72219592
Si       0.19588977       0.70660628      53.09599923
Si       0.19588977       8.15348938       6.53796500
Si       1.21029908       8.17438545      57.53917803
Si       1.21029908       0.68571021       2.09478619
Si       1.00757146       6.01990928      10.76157991
Si       1.00757146       2.84018639      48.87238432
Si       1.00165679       7.24757601      48.94909133
Si       1.00165679       1.61251966      10.68487289
Si       0.64808686       1.58986145      19.05540220
Si       0.64808686       7.27023422      40.57856203
Si       0.65400153       2.81752817      40.50185501
Si       0.65400153       6.04256749      19.13210922
Si       1.47990026       5.08719030      54.23518740
Si       1.47990026       3.77290537       5.39877683
Si       0.17575806       8.20295320      24.41820529
Si       0.17575806       0.65714246      35.21575894
20
Lattice="1.6555745374604132 3.157447410770234e-16 1.6776335966930527e-14 -1.6899407090089e-15 8.861027417563886 -6.9195079743076135e-15 -6.058304805534507e-13 1.097421234595953e-13 59.78644679023014" Properties=species:S:1:pos:R:3 unique_starting_index=4 config_type=initial n_minim_iter=19 stress="-0.0011854393395499597 7.053193124800041e-16 2.3353259145627415e-15 7.053193124800041e-16 -0.0011848849362763412 -7.884082566135063e-15 2.3353259145627415e-15 -7.884082566135063e-15 0.002142128652256252" pbc="T T T"
Si       1.46196528       5.21542206      36.45148357
Si       1.46196528       3.64560536      23.33496322
Si       0.44277739       3.81882440      32.01325429
Si       0.44277739       5.04220302      27.77319250
Si       0.19360926       0.78490835      53.22818662
Si       0.19360926       8.07611907       6.55826017
Si       1.21279715       8.24933810      57.66641589
Si       1.21279715       0.61168931       2.12003090
Si       1.00598263       5.94099101      10.78085018
Si       1.00598263       2.92003641      49.00559661
Si       1.00096588       7.32731171      49.07863589
Si       1.00096588       1.53371571      10.70781090
Si       0.64959190       1.51047730      19.11237321
Si       0.64959190       7.35055012      40.67407358
Si       0.65460866       2.89679800      40.60103430