2
Lattice="2.6258814649504885 -8.054593109614158e-16 5.289367431420818e-41 -1.3129407324752438 2.2740800559738203 2.2684221601587993e-25 -2.1786149010980933e-40 -4.282936918009505e-25 4.293619414103047" Properties=species:S:1:pos:R:3 n_minim_iter=1 energy=-3186.5593551897036 free_energy=-3186.5593551897036 pbc="T T T"
Ti       0.00000000       0.00000000       0.00000000
Ti       0.00000000       1.51605337       2.14680971
2
Lattice="2.599184605392514 -7.482972195269406e-16 5.291489151134165e-41 -1.2995923026962566 2.25095989739535 2.2453595243786653e-25 -2.297965747895399e-40 -4.3713709423883505e-25 4.382274010518802" Properties=species:S:1:pos:R:3 n_minim_iter=2 stress="-0.27243889573515195 2.4387004664590904e-15 -2.8046854533484016e-16 2.4387004664590904e-15 -0.27243889573513086 -8.24932866811415e-16 -2.8046854533484016e-16 -8.24932866811415e-16 -0.27276665672251454" pbc="T T T"
Ti      -0.00000000      -0.00000000      -0.00000000
Ti       0.00000000       1.50063993       2.19113701
