2
Lattice="2.571822735423375 -7.404198216782132e-16 5.235785128497195e-41 -1.2859113677116873 2.2272638229070285 2.2217224055635747e-25 -2.1280189916116547e-40 -4.32535309391989e-25 4.336141384388216" Properties=species:S:1:pos:R:3 n_minim_iter=1 energy=-3186.3189731846014 free_energy=-3186.3189731846014 pbc="T T T"
Ti       0.00000000       0.00000000       0.00000000
Ti       0.00000000       1.48484255       2.16807069
2
Lattice="2.541177136717417 -7.152864619453654e-16 6.457146953438746e-41 -1.2705885683587084 2.200723955913486 2.1952485695798016e-25 -1.9888092828341965e-40 -4.430306268600781e-25 4.441356333150773" Properties=species:S:1:pos:R:3 n_minim_iter=2 stress="-0.3215770587527941 -2.6271042863774924e-15 6.362471362354465e-17 -2.6271042863774924e-15 -0.321577058752772 9.892013813110167e-16 6.362471362354465e-17 9.892013813110167e-16 -0.3221078503577511" pbc="T T T"
Ti      -0.00000000      -0.00000000      -0.00000000
Ti       0.00000000       1.46714930       2.22067817
