2
Lattice="2.760127758078956 -8.777918004513504e-16 4.703163917207525e-41 -1.3800638790394772 2.3903407561869656 2.3843936045353014e-25 -2.7655576292875582e-40 -4.360999794703193e-25 4.371876995129601" Properties=species:S:1:pos:R:3 n_minim_iter=1 stress="-0.1028027412995243 1.0946933306199195e-15 -2.2430329385688264e-15 1.0946933306199195e-15 -0.10280274129950866 -2.029181115977834e-15 -2.2430329385688264e-15 -2.029181115977834e-15 -0.10380859270895927" pbc="T T T"
Ti       0.00000000       0.00000000       0.00000000
Ti       0.00000000       1.59356050       2.18593850
