2
Lattice="2.5718227354233756 -7.404198216782134e-16 5.235785128497199e-41 -1.2859113677116873 2.22726382290703 2.2217224055635756e-25 -2.2737748382320386e-40 -4.325353093919894e-25 4.336141384388215" Properties=species:S:1:pos:R:3 n_minim_iter=2 stress="-0.27243889573515195 2.4387004664590904e-15 -2.8046854533484016e-16 2.4387004664590904e-15 -0.27243889573513086 -8.24932866811415e-16 -2.8046854533484016e-16 -8.24932866811415e-16 -0.27276665672251454" pbc="T T T"
Ti      -0.00000000      -0.00000000      -0.00000000
Ti       0.00000000       1.48484255       2.16807069
