2
Lattice="3.0166688382382234 -9.59378479177944e-16 5.140301201144802e-41 -1.5083344191191106 2.612511848719191 2.606011936890351e-25 -2.6763067914248e-40 -4.766334509602828e-25 4.7782226953860985" Properties=species:S:1:pos:R:3 n_minim_iter=1 stress="0.08026838735324557 -5.207421639963492e-16 1.429614741947837e-16 -5.207421639963492e-16 0.08026838735324672 -3.08957348642972e-16 1.429614741947837e-16 -3.08957348642972e-16 0.08619361173837521" pbc="T T T"
Ti       0.00000000       0.00000000       0.00000000
Ti       0.00000000       1.74167457       2.38911135
