2
Lattice="2.7601277580789563 -8.777918004513503e-16 4.703163917207528e-41 -1.3800638790394775 2.390340756186966 2.3843936045353023e-25 -2.1318633739809967e-40 -4.360999794703195e-25 4.371876995129601" Properties=species:S:1:pos:R:3 n_minim_iter=1 stress="-0.07595783799020522 3.2435378901194604e-16 -3.3143421630230244e-16 3.2435378901194604e-16 -0.07595783799021852 -1.3130974247570033e-16 -3.3143421630230244e-16 -1.3130974247570033e-16 -0.07682241263598745" pbc="T T T"
Ti       0.00000000       0.00000000       0.00000000
Ti       0.00000000       1.59356050       2.18593850
