2
Lattice="2.8103228638338615 -8.937551384256443e-16 4.788694671903896e-41 -1.4051614319169303 2.43381099291636 2.4277556876094103e-25 -2.4932422383384624e-40 -4.440308024277541e-25 4.451383035194464" Properties=species:S:1:pos:R:3 n_minim_iter=1 stress="-0.05013268483839942 5.627807874594008e-16 3.224843591010082e-16 5.627807874594008e-16 -0.050132684838397785 -3.5615719589053045e-16 3.224843591010082e-16 -3.5615719589053045e-16 -0.05168051957778455" pbc="T T T"
Ti       0.00000000       0.00000000       0.00000000
Ti       0.00000000       1.62254066       2.22569152
