16
Lattice="2.7456886709272843 -2.7456886709272843 0.0 2.7456886709272843 2.7456886709272843 0.0 0.0 0.0 31.671018985400895" Properties=species:S:1:pos:R:3:travel:I:3:map_shift:I:3:n_neighb:I:1:orig_index:I:1:forces:R:3 cutoff=2.0 nneightol=1.2 supercell_a1_in_bulk_lattice_coords="1 0 -1" bulk_struct_test=bulk_Si_diamond n_minim_iter=0 pbc="T T T"
Si       0.00000000       0.00000000       0.00606761        0        0        0        0        0        0       29        1       0.00000000      -0.00000000       0.00682530
Si       1.37284434       1.37284434       1.36677673        0        0        0       -1        0        0       29        2      -0.00000000      -0.00000000      -0.00682530
Si       0.00000000       2.74568867       2.72636333        0        0        0       -1        0        0       29        3       0.00000000       0.00000000       0.00177332
Si      -1.37284434       1.37284434       4.08674420        1        0        0        0        0        0       29        4      -0.00000000       0.00000000       0.00007280
Si      -0.00000000       0.00000000       5.44595781        1       -1        0        0        0        0       29        5       0.00000000      -0.00000000      -0.00019889
Si       1.37284434       1.37284434       6.80872012        1       -1        0        0        0        0       29        6      -0.00000000      -0.00000000       0.00013752
Si       0.00000000       2.74568867       8.17476750        1       -1        0        0        0        0       29        7      -0.00000000       0.00000000       0.00126127
Si      -1.37284434       1.37284434       9.54125063        2       -1        0        0        0        0       29        8      -0.00000000       0.00000000      -0.00116603
Si      -0.00000000      -0.00000000      10.87450394        2       -2        0        0        0        0       29        9       0.00000000      -0.00000000       0.00001770
Si       1.37284434       1.37284434      -9.50165961        2       -2        1        0        0        0       29       10      -0.00000000       0.00000000      -0.00001770
Si       0.00000000       2.74568867      -8.16840629        2       -2        1        0        0        0       35       11      -0.00000000      -0.00000000       0.00116603
Si      -1.37284434       1.37284434      -6.80192317        3       -2        1        0        0        0       35       12       0.00000000      -0.00000000      -0.00126127
Si      -0.00000000      -0.00000000      -5.43587579        3       -3        1        0        0        0       35       13      -0.00000000       0.00000000      -0.00013752
Si       1.37284434       1.37284434      -4.07311348        3       -3        1        0        0        0       35       14      -0.00000000      -0.00000000       0.00019889
Si       0.00000000       2.74568867      -2.71389987        3       -2        1        0        0        0       29       97      -0.00000000      -0.00000000      -0.00007280
Si      -1.37284434       1.37284434      -1.35351900        4       -2        1        0        0        0       29       98      -0.00000000       0.00000000      -0.00177332
