8
Lattice="-3.4555401106883994 3.4554202839038584 3.455457482930974 3.4553943724092644 -3.4555141977695034 3.455405658517496 3.455468768452751 3.4554428555338546 -3.4555513967966345" Properties=species:S:1:pos:R:3:forces:R:3 cutoff=-1.0 nneightol=1.2 n_minim_iter=1 energy=-1303.6560520183232 stress="0.0402680311951197 -9.406024571833156e-06 -1.9213360452628015e-05 -9.406024571833156e-06 0.04026803179427383 -1.2381463567358669e-05 -1.9213360452628015e-05 -1.2381463567358669e-05 0.040268031512103064" free_energy=-1303.6560520183232 pbc="T T T"
Si       2.76808836       0.68733247      -0.68741981       0.04198659      -0.04214153       0.04218247
Si       4.14277478      -0.68740381       0.68727407      -0.04198659       0.04214153      -0.04218247
Si       0.68732748       0.68733304       0.68732558      -0.04174302      -0.04179921      -0.04178818
Si       0.68730137      -0.68739717       2.76807508      -0.04227873       0.04224174       0.04209740
Si      -0.68739612       2.76807759       0.68732941       0.04232860       0.04215434      -0.04226876
Si       0.68732477       4.14278555      -0.68742332      -0.04232860      -0.04215434       0.04226875
Si      -0.68744711       0.68730325       4.14278806       0.04227873      -0.04224174      -0.04209740
Si       2.76799555       2.76801590       2.76798616       0.04174302       0.04179921       0.04178818
8
Lattice="-3.4543896708177546 3.4555399169027132 3.455182958088483 3.4557886939345943 -3.4546383163571344 3.4556803806600755 3.4550746451160372 3.4553232906554623 -3.4542813575424276" Properties=species:S:1:pos:R:3:forces:R:3 cutoff=-1.0 nneightol=1.2 n_minim_iter=2 energy=-1303.6575330324956 stress="0.03939129106193628 9.094352882093457e-05 0.00018586543244349004 9.094352882093457e-05 0.0393913445825998 0.00011974719936208529 0.00018586543244349004 0.00011974719936208529 0.03939131491701126" free_energy=-1303.6575330324956 pbc="T T T"
Si       2.77097012       0.68456647      -0.68372827       0.00032711       0.00111295      -0.00147160
Si       4.13989322      -0.68388149       0.68512729      -0.00032710      -0.00111295       0.00147160
Si       0.68461279       0.68455998       0.68463140      -0.00281356      -0.00229220      -0.00239949
Si       0.68486554      -0.68394535       2.77109713       0.00244949      -0.00209590      -0.00078189
Si      -0.68395603       2.77107289       0.68459597      -0.00293175      -0.00133440       0.00239938
Si       0.68464100       4.13979032      -0.68369437       0.00293175       0.00133440      -0.00239938
Si      -0.68346652       0.68484695       4.13976621      -0.00244949       0.00209590       0.00078189
Si       2.77186088       2.77166491       2.77195058       0.00281356       0.00229220       0.00239949
