8
Lattice="-3.50588942479886 3.505887628026299 3.505878852138372 3.505887911893329 -3.505896720368959 3.505886430871596 3.505874769960106 3.5058820645818405 -3.505887942238914" Properties=species:S:1:pos:R:3:forces:R:3 cutoff=-1.0 nneightol=1.2 n_minim_iter=1 energy=-1303.328063959381 stress="0.05100332816227047 -1.2447264444166296e-06 4.5735678853431093e-07 -1.2447264444166296e-06 0.051003923478262894 -5.621338641489799e-07 4.5735678853431093e-07 -5.621338641489799e-07 0.05100355782391517" free_energy=-1303.328063959381 pbc="T T T"
Si       2.81439138       0.69148398      -0.69149318       0.03682252      -0.03683253       0.03684738
Si       4.19737130      -0.69149864       0.69149167      -0.03682252       0.03683253      -0.03684738
Si       0.69149141       0.69149221       0.69149351      -0.03684953      -0.03685425      -0.03685893
Si       0.69148728      -0.69149640       2.81439427      -0.03679382       0.03682739       0.03680916
Si      -0.69149501       2.81439595       0.69148410       0.03679770       0.03679540      -0.03679792
Si       0.69148036       4.19737375      -0.69149319      -0.03679770      -0.03679540       0.03679792
Si      -0.69148879       0.69148730       4.19737101       0.03679382      -0.03682739      -0.03680916
Si       2.81438185       2.81438076       2.81438383       0.03684953       0.03685425       0.03685893
8
Lattice="-3.5058677272003655 3.5058451572065645 3.50592394463646 3.505827478525675 -3.5058066398845553 3.505845177898124 3.505958494585383 3.505897406260706 -3.505885424978843" Properties=species:S:1:pos:R:3:forces:R:3 cutoff=-1.0 nneightol=1.2 n_minim_iter=2 energy=-1303.329193201852 stress="0.050421757719522134 1.0644839475341927e-05 -4.50197668678204e-06 1.0644839475341927e-05 0.05041783334044175 4.595739271335201e-06 -4.50197668678204e-06 4.595739271335201e-06 0.05042023595688476" free_energy=-1303.329193201852 pbc="T T T"
Si       2.81699533       0.68893786      -0.68892227      -0.00077691       0.00079189      -0.00076365
Si       4.19479064      -0.68884710       0.68888202       0.00077692      -0.00079189       0.00076365
Si       0.68891792       0.68892192       0.68891178       0.00054407       0.00049158       0.00050699
Si       0.68888523      -0.68888347       2.81696682       0.00062187      -0.00065463      -0.00061382
Si      -0.68888006       2.81695790       0.68892870      -0.00052899      -0.00050847       0.00055660
Si       0.68897083       4.19478466      -0.68889018       0.00052899       0.00050847      -0.00055660
Si      -0.68892548       0.68892199       4.19480230      -0.00062187       0.00065463       0.00061382
Si       2.81700032       2.81701400       2.81697192      -0.00054407      -0.00049158      -0.00050699
