8
Lattice="-3.2396118012774835 3.2396118012774835 3.2396118012774835 3.2396118012774835 -3.2396118012774835 3.2396118012774835 3.2396118012774835 3.2396118012774835 -3.2396118012774835" Properties=species:S:1:pos:R:3:forces:R:3 cutoff=-1.0 nneightol=1.2 n_minim_iter=1 energy=-1303.7031992466154 stress="-0.07141801830462062 1.4652975967845298e-10 1.4097566614353916e-10 1.4652975967845298e-10 -0.07141801830462068 1.4190754816128423e-10 1.4097566614353916e-10 1.4190754816128423e-10 -0.07141801830462058" free_energy=-1303.7031992466154 pbc="T T T"
Si       2.59104152       0.64857028      -0.64857028      -0.43924304       0.43924305      -0.43924305
Si       3.88818208      -0.64857028       0.64857028       0.43924305      -0.43924304       0.43924304
Si       0.64857028       0.64857028       0.64857028       0.43924303       0.43924303       0.43924303
Si       0.64857028      -0.64857028       2.59104152       0.43924305      -0.43924305      -0.43924304
Si      -0.64857028       2.59104152       0.64857028      -0.43924305      -0.43924304       0.43924305
Si       0.64857028       3.88818208      -0.64857028       0.43924304       0.43924305      -0.43924304
Si      -0.64857028       0.64857028       3.88818208      -0.43924304       0.43924304       0.43924305
Si       2.59104152       2.59104152       2.59104152      -0.43924303      -0.43924303      -0.43924303
8
Lattice="-3.3718228675133686 3.371822866979144 3.371822866968655 3.371822866980904 -3.3718228675151285 3.371822866972175 3.371822866959926 3.371822866961686 -3.37182286750464" Properties=species:S:1:pos:R:3:forces:R:3 cutoff=-1.0 nneightol=1.2 n_minim_iter=2 energy=-1304.022827349795 stress="0.020514522654473292 -2.04299956434594e-11 -6.368921309947962e-12 -2.04299956434594e-11 0.020514522654473292 -1.4751077269233026e-11 -6.368921309947962e-12 -1.4751077269233026e-11 0.02051452265447279" free_energy=-1304.022827349795 pbc="T T T"
Si       2.69490119       0.67692167      -0.67692167       0.00189385      -0.00189385       0.00189384
Si       4.04874454      -0.67692167       0.67692167      -0.00189384       0.00189385      -0.00189385
Si       0.67692167       0.67692167       0.67692167      -0.00189386      -0.00189386      -0.00189386
Si       0.67692167      -0.67692167       2.69490119      -0.00189385       0.00189384       0.00189385
Si      -0.67692167       2.69490119       0.67692167       0.00189384       0.00189385      -0.00189385
Si       0.67692167       4.04874454      -0.67692167      -0.00189385      -0.00189384       0.00189385
Si      -0.67692167       0.67692167       4.04874454       0.00189385      -0.00189385      -0.00189384
Si       2.69490119       2.69490119       2.69490119       0.00189386       0.00189386       0.00189386
8
Lattice="-3.338006357628146 3.3380063568990983 3.338006356960456 3.33800635685541 -3.338006357584454 3.338006356873076 3.3380063569781173 3.3380063569344265 -3.338006357645812" Properties=species:S:1:pos:R:3:forces:R:3 cutoff=-1.0 nneightol=1.2 n_minim_iter=3 energy=-1304.085661829416 stress="0.005806617343801971 -4.980047881140841e-11 -7.742413400110189e-11 -4.980047881140841e-11 0.005806617343801773 -5.874850316681405e-11 -7.742413400110189e-11 -5.874850316681405e-11 0.005806617343803172" free_energy=-1304.085661829416 pbc="T T T"
Si       2.66677744       0.67122891      -0.67122891      -0.06025587       0.06025587      -0.06025588
Si       4.00923527      -0.67122891       0.67122891       0.06025588      -0.06025587       0.06025587
Si       0.67122891       0.67122891       0.67122891       0.06025587       0.06025587       0.06025587
Si       0.67122891      -0.67122891       2.66677744       0.06025587      -0.06025588      -0.06025587
Si      -0.67122891       2.66677744       0.67122891      -0.06025588      -0.06025587       0.06025587
Si       0.67122891       4.00923527      -0.67122891       0.06025587       0.06025588      -0.06025587
Si      -0.67122891       0.67122891       4.00923527      -0.06025587       0.06025587       0.06025588
Si       2.66677744       2.66677744       2.66677744      -0.06025587      -0.06025587      -0.06025587
8
Lattice="-3.323255128487481 3.3232551289788796 3.3232551287548553 3.323255129126266 -3.323255128634859 3.323255129049624 3.323255128678238 3.3232551288256156 -3.3232551284108376" Properties=species:S:1:pos:R:3:forces:R:3 cutoff=-1.0 nneightol=1.2 n_minim_iter=4 energy=-1304.0927252979793 stress="-0.0015928132940697742 9.080714123430602e-11 1.8607668515631006e-10 9.080714123430602e-11 -0.0015928132940712261 1.2075121061916447e-10 1.8607668515631006e-10 1.2075121061916447e-10 -0.0015928132940734776" free_energy=-1304.0927252979793 pbc="T T T"
Si       2.65325061       0.67000452      -0.67000452      -0.07184603       0.07184604      -0.07184604
Si       3.99325964      -0.67000452       0.67000452       0.07184604      -0.07184604       0.07184603
Si       0.67000452       0.67000452       0.67000452       0.07184603       0.07184603       0.07184603
Si       0.67000452      -0.67000452       2.65325061       0.07184604      -0.07184604      -0.07184603
Si      -0.67000452       2.65325061       0.67000452      -0.07184604      -0.07184603       0.07184604
Si       0.67000452       3.99325964      -0.67000452       0.07184603       0.07184604      -0.07184604
Si      -0.67000452       0.67000452       3.99325964      -0.07184604       0.07184603       0.07184604
Si       2.65325061       2.65325061       2.65325061      -0.07184603      -0.07184603      -0.07184603
8
Lattice="-3.3223964709958422 3.3223964634372667 3.3223964657905407 3.3223964618179305 -3.322396469376584 3.3223964625519553 3.322396466524386 3.3223964649051263 -3.322396471729865" Properties=species:S:1:pos:R:3:forces:R:3 cutoff=-1.0 nneightol=1.2 n_minim_iter=5 energy=-1304.0966010850232 stress="0.0002089080352732261 -8.859551329682149e-10 -1.8175016116317107e-09 -8.859551329682149e-10 0.00020890803528461244 -1.183720065651707e-09 -1.8175016116317107e-09 -1.183720065651707e-09 0.00020890803530055775" free_energy=-1304.0966010850232 pbc="T T T"
Si       2.64789897       0.67449749      -0.67449750       0.00017524      -0.00017526       0.00017527
Si       3.99689395      -0.67449749       0.67449749      -0.00017524       0.00017526      -0.00017527
Si       0.67449749       0.67449749       0.67449749      -0.00017523      -0.00017523      -0.00017523
Si       0.67449749      -0.67449749       2.64789897      -0.00017527       0.00017527       0.00017525
Si      -0.67449749       2.64789897       0.67449749       0.00017528       0.00017526      -0.00017527
Si       0.67449749       3.99689395      -0.67449750      -0.00017528      -0.00017526       0.00017527
Si      -0.67449750       0.67449749       3.99689396       0.00017527      -0.00017527      -0.00017525
Si       2.64789897       2.64789897       2.64789897       0.00017523       0.00017523       0.00017523
