8
Lattice="-3.555001375643704 3.5548178411279934 3.554940668281032 3.554993208801677 -3.554810844329056 3.5549255074926247 3.5550245032587893 3.554834008703652 -3.554933679110625" Properties=species:S:1:pos:R:3:forces:R:3 cutoff=-1.0 nneightol=1.2 n_minim_iter=3 energy=-1302.9145979899715 stress="0.06271323261626324 2.0225965052982037e-06 -6.404921497042917e-07 2.0225965052982037e-06 0.06268501844719308 5.554984382427873e-07 -6.404921497042917e-07 5.554984382427873e-07 0.06270155481262743" free_energy=-1302.9145979899715 pbc="T T T"
Si       2.86077036       0.69421295      -0.69422900      -0.00010766       0.00013660      -0.00014068
Si       4.24924735      -0.69418978       0.69422083       0.00010766      -0.00013660       0.00014068
Si       0.69424072       0.69420584       0.69422446       0.00008492       0.00010977       0.00011948
Si       0.69423408      -0.69419874       2.86070703       0.00010324      -0.00012918      -0.00013783
Si      -0.69423093       2.86062076       0.69422704      -0.00008185      -0.00010804       0.00012357
Si       0.69425406       4.24903109      -0.69422005       0.00008185       0.00010804      -0.00012357
Si      -0.69424224       0.69420574       4.24915914      -0.00010324       0.00012918       0.00013783
Si       2.86077561       2.86063517       2.86070804      -0.00008492      -0.00010977      -0.00011948
