8
Lattice="-3.1472242371988184 3.1471981403865934 3.147205246178433 3.147193305874166 -3.147217962981208 3.1471941376510393 3.147209647696317 3.147203373551109 -3.1472250686654264" Properties=species:S:1:pos:R:3:forces:R:3 cutoff=-1.0 nneightol=1.2 n_minim_iter=4 energy=-1302.7092360967101 stress="-0.14469636639694647 -2.3760503931268533e-06 -5.596051208574935e-06 -2.3760503931268533e-06 -0.14469684407133035 -3.4368850656208366e-06 -5.596051208574935e-06 -3.4368850656208366e-06 -0.14469666026273498" free_energy=-1302.7092360967101 pbc="T T T"
Si       2.47400242       0.67319567      -0.67321640      -0.00032313       0.00019661      -0.00009769
Si       3.82040053      -0.67321026       0.67318547       0.00032313      -0.00019661       0.00009769
Si       0.67320226       0.67320379       0.67320247       0.00026594       0.00019871       0.00019053
Si       0.67318738      -0.67321003       2.47400018       0.00014561      -0.00013793      -0.00030425
Si      -0.67320838       2.47400135       0.67319205      -0.00010488      -0.00027334       0.00019275
Si       0.67319379       3.82040017      -0.67321187       0.00010488       0.00027334      -0.00019275
Si      -0.67321831       0.67319020       3.82039920      -0.00014561       0.00013793       0.00030425
Si       2.47397646       2.47397976       2.47397184      -0.00026594      -0.00019871      -0.00019053
