8
Lattice="-3.4296326903408754 3.429644961300698 3.429641152227839 3.4296476147115205 -3.429635343688914 3.429646458986708 3.429639996618892 3.429642649966926 -3.4296315346160626" Properties=species:S:1:pos:R:3:forces:R:3 cutoff=-1.0 nneightol=1.2 n_minim_iter=2 energy=-1303.9129354891631 stress="0.029515677470099127 1.1562305658672388e-06 2.361891218244845e-06 1.1562305658672388e-06 0.029515677475346034 1.5220297584284548e-06 2.361891218244845e-06 1.5220297584284548e-06 0.029515677462987857" free_energy=-1303.9129354891631 pbc="T T T"
Si       2.74510516       0.68453976      -0.68453082      -0.00033537       0.00035150      -0.00035734
Si       4.11418245      -0.68453245       0.68454575       0.00033537      -0.00035150       0.00035734
Si       0.68454024       0.68453968       0.68454044       0.00031061       0.00031666       0.00031584
Si       0.68454295      -0.68453314       2.74510651       0.00036608      -0.00036327      -0.00034657
Si      -0.68453326       2.74510625       0.68454008      -0.00037226      -0.00035290       0.00036457
Si       0.68454056       4.11418136      -0.68453046       0.00037226       0.00035290      -0.00036458
Si      -0.68452803       0.68454276       4.11418110      -0.00036608       0.00036327       0.00034657
Si       2.74511468       2.74511259       2.74511563      -0.00031062      -0.00031666      -0.00031584
