8
Lattice="-3.2079164657507007 3.2077192683009725 3.207780428821824 3.2076773618472623 -3.207874556351621 3.2076966129690385 3.2077996789538807 3.207757769554793 -3.2079357168724774" Properties=species:S:1:pos:R:3:forces:R:3 cutoff=-1.0 nneightol=1.2 n_minim_iter=2 energy=-1303.5465150050982 stress="-0.08482357249654182 -2.8197473272137102e-05 -5.772949133305282e-05 -2.8197473272137102e-05 -0.08482357001719604 -3.749309862095461e-05 -5.772949133305282e-05 -3.749309862095461e-05 -0.0848235703160527" free_energy=-1303.5465150050982 pbc="T T T"
Si       2.53424085       0.67348440      -0.67362762      -0.00313554       0.00236156      -0.00179704
Si       3.88123619      -0.67360118       0.67338851       0.00313554      -0.00236156       0.00179704
Si       0.67347136       0.67348173       0.67346893       0.00343629       0.00310798       0.00309565
Si       0.67343456      -0.67359052       2.53421802       0.00185362      -0.00180751      -0.00291064
Si      -0.67358973       2.53422144       0.67347933      -0.00148946      -0.00263836       0.00211218
Si       0.67347294       3.88125560      -0.67363462       0.00148946       0.00263836      -0.00211218
Si      -0.67367366       0.67343524       3.88125902      -0.00185362       0.00180751       0.00291064
Si       2.53408921       2.53412075       2.53407239      -0.00343629      -0.00310798      -0.00309565
