8
Lattice="-3.1779341839009843 3.1777388295259064 3.1777994184196614 3.1776973147442114 -3.177892666201448 3.1777163859384348 3.1778184886334158 3.177776970933872 -3.177953255095208" Properties=species:S:1:pos:R:3:forces:R:3 cutoff=-1.0 nneightol=1.2 n_minim_iter=2 energy=-1303.5465150050982 stress="-0.08482357249654182 -2.8197473272137102e-05 -5.772949133305282e-05 -2.8197473272137102e-05 -0.08482357001719604 -3.749309862095461e-05 -5.772949133305282e-05 -3.749309862095461e-05 -0.0848235703160527" free_energy=-1303.5465150050982 pbc="T T T"
Si       2.51055497       0.66718978      -0.66733166      -0.00313554       0.00236156      -0.00179704
Si       3.84496083      -0.66730548       0.66709479       0.00313554      -0.00236156       0.00179704
Si       0.66717687       0.66718714       0.66717446       0.00343629       0.00310798       0.00309565
Si       0.66714041      -0.66729492       2.51053235       0.00185362      -0.00180751      -0.00291064
Si      -0.66729413       2.51053574       0.66718476      -0.00148946      -0.00263836       0.00211218
Si       0.66717844       3.84498006      -0.66733860       0.00148946       0.00263836      -0.00211218
Si      -0.66737728       0.66714108       3.84498345      -0.00185362       0.00180751       0.00291064
Si       2.51040475       2.51043599       2.51038809      -0.00343629      -0.00310798      -0.00309565
