8
Lattice="-3.084432638112805 3.0842237664520242 3.084285546875378 3.084162008825496 -3.0843935783134984 3.084184728029625 3.084310512097636 3.0842714514349305 -3.0844553577845195" Properties=species:S:1:pos:R:3:forces:R:3 cutoff=-1.0 nneightol=1.2 n_minim_iter=3 energy=-1301.4147670274194 stress="-0.20888386908500856 -3.087373394974429e-05 -7.013554328103663e-05 -3.087373394974429e-05 -0.20888134607118064 -4.358419669036291e-05 -7.013554328103663e-05 -4.358419669036291e-05 -0.2088823340230008" free_energy=-1301.4147670274194 pbc="T T T"
Si       2.41297049       0.67125671      -0.67142145      -0.00239121       0.00116965       0.00008059
Si       3.75550203      -0.67137884       0.67115082       0.00239121      -0.00116965      -0.00008060
Si       0.67125203       0.67126976       0.67125226       0.00230532       0.00168805       0.00163955
Si       0.67119247      -0.67137514       2.41294858       0.00025439      -0.00014056      -0.00231643
Si      -0.67136920       2.41295934       0.67124007       0.00042760      -0.00175456       0.00101639
Si       0.67124708       3.75553587      -0.67140988      -0.00042760       0.00175456      -0.00101639
Si      -0.67146310       0.67120533       3.75552169      -0.00025439       0.00014056       0.00231643
Si       2.41278785       2.41283188       2.41276265      -0.00230533      -0.00168805      -0.00163955
