24
Lattice="6.8715665654556615 -1.825309262756862 0.2416240976948669 0.6850498984071018 8.13973710649108 0.27343893919164874 2.051304094410465 2.952650458587214 9.650790571796271" Properties=species:S:1:pos:R:3 unique_starting_index=94 config_type=initial n_minim_iter=1 energy=-3922.023358625338 free_energy=-3922.023358625338 pbc="T T T"
Si       8.41585670       5.87944716       7.96876998
Si      -0.31409253       3.03629193       3.70447311
Si       2.77521072       6.91587723       1.45613890
Si       6.35392411       9.55028094       7.82375608
Si       5.31051714       1.55242476       1.82574282
Si       5.88489804       4.56308110       9.94506037
Si       4.50901179       0.74404617       3.61463729
Si       3.67593292       0.07470061       1.76054936
Si       6.74798162       0.42441107       5.92609784
Si       7.14444542       6.46413797       6.37535875
Si       4.68465103       6.29347405       9.59178907
Si       5.44527426       2.07470310       5.52924843
Si       1.25072410       6.22395592       2.75961710
Si       2.98521267       6.05264312       7.95636003
Si       6.98359539       3.28146416       4.50948668
Si       6.29556539       5.45219061       8.05613670
Si       5.16611987       2.67110629       9.20531582
Si       1.94915969       4.94555103       1.18181454
Si       6.98854316       2.69879960       2.46259310
Si       4.38598231       4.52979095       8.45240543
Si       6.02931182       4.68136334       3.20754771
Si       1.90696513       0.89498677       0.81674326
Si       4.78767994       8.96866593       9.17615730
Si       5.15533444       2.77403129       3.54877530
24
Lattice="6.871889164467387 -1.82480129135518 0.24106742850042978 0.6856082692382639 8.139463855900201 0.27289216377944764 2.0507605951875583 2.9521449494552945 9.64914046088515" Properties=species:S:1:pos:R:3 unique_starting_index=94 config_type=initial n_minim_iter=2 stress="6.642922469496599e-05 0.00031727206840370296 -0.0003260880516930203 0.00031727206840370296 -0.0004832136197064231 -1.9749094271957706e-05 -0.0003260880516930203 -1.9749094271957706e-05 -0.0010272075728157604" pbc="T T T"
Si       8.41601792       5.87923051       7.96634247
Si      -0.31448823       3.03591444       3.70372534
Si       2.77576184       6.91574529       1.45554303
Si       6.35425169       9.55007962       7.82146924
Si       5.31098051       1.55253099       1.82485968
Si       5.88443201       4.56278377       9.94285418
Si       4.50908725       0.74411526       3.61353711
Si       3.67624326       0.07510417       1.76040122
Si       6.74793319       0.42445757       5.92468385
Si       7.14476900       6.46396610       6.37354733
Si       4.68481247       6.29323348       9.59015357
Si       5.44511690       2.07459959       5.52812903
Si       1.25155847       6.22350449       2.75842741
Si       2.98545639       6.05209773       7.95474245
Si       6.98375824       3.28160036       4.50787897
Si       6.29557456       5.45212359       8.05396620
Si       5.16582361       2.67060623       9.20343183
Si       1.94929461       4.94569821       1.18151298
Si       6.98911194       2.69893298       2.46127464
Si       4.38547888       4.52923309       8.45014584
Si       6.02927752       4.68119520       3.20638598
Si       1.90706885       0.89511440       0.81656023
Si       4.78777723       8.96822376       9.17423192
Si       5.15557225       2.77415586       3.54771767
24
Lattice="6.871951475575122 -1.8250630277901143 0.2412585047377275 0.6854082108708908 8.139826104877418 0.27289381482333863 2.0509129048138455 2.9521839781902632 9.65006616884713" Properties=species:S:1:pos:R:3 unique_starting_index=94 config_type=initial n_minim_iter=3 stress="0.0004634744202976963 0.00020786827217925632 -0.0002419612933614099 0.00020786827217925632 0.0003997831953163247 -2.366431163290366e-05 -0.0002419612933614099 -2.366431163290366e-05 0.0003445428523518215" pbc="T T T"
Si       8.41606036       5.87922825       7.96720643
Si      -0.31451838       3.03604153       3.70402615
Si       2.77564250       6.91600930       1.45575291
Si       6.35419553       9.55034959       7.82227665
Si       5.31102284       1.55244088       1.82512359
Si       5.88451332       4.56279304       9.94387552
Si       4.50917169       0.74402404       3.61396134
Si       3.67631303       0.07504471       1.76070393
Si       6.74807357       0.42426320       5.92539005
Si       7.14475649       6.46404994       6.37427114
Si       4.68492665       6.29338273       9.59117692
Si       5.44517130       2.07452000       5.52878961
Si       1.25153324       6.22373219       2.75863375
Si       2.98554574       6.05226568       7.95552430
Si       6.98377281       3.28156220       4.50841633
Si       6.29561746       5.45220460       8.05479928
Si       5.16597780       2.67052097       9.20439354
Si       1.94916948       4.94591458       1.18168371
Si       6.98912480       2.69884998       2.46161884
Si       4.38552767       4.52926687       8.45094367
Si       6.02919028       4.68121381       3.20680616
Si       1.90707086       0.89511814       0.81670178
Si       4.78777113       8.96848617       9.17518885
Si       5.15559345       2.77414538       3.54816142
24
Lattice="6.871626090300255 -1.825316667538912 0.24158019902911584 0.6850270916509748 8.139601171411085 0.27293027919430907 2.051109348628862 2.9520260703743753 9.650273611802294" Properties=species:S:1:pos:R:3 unique_starting_index=94 config_type=initial n_minim_iter=4 stress="-0.0002237504250155911 -0.00016820702271576704 6.156376655459688e-05 -0.00016820702271576704 -8.078567263491658e-05 6.668984096183494e-05 6.156376655459688e-05 6.668984096183494e-05 6.40646282888886e-05" pbc="T T T"
Si       8.41566551       5.87869818       7.96765521
Si      -0.31449247       3.03598246       3.70404223
Si       2.77527341       6.91575475       1.45594063
Si       6.35375590       9.54986521       7.82265073
Si       5.31074102       1.55215897       1.82537470
Si       5.88439092       4.56241589       9.94425651
Si       4.50905041       0.74382716       3.61420913
Si       3.67618172       0.07492048       1.76092655
Si       6.74792530       0.42394854       5.92577075
Si       7.14433160       6.46358435       6.37467207
Si       4.68485055       6.29302405       9.59154221
Si       5.44498202       2.07422648       5.52912224
Si       1.25134256       6.22351897       2.75869539
Si       2.98551710       6.05200195       7.95575893
Si       6.98340336       3.28118960       4.50876682
Si       6.29535345       5.45182160       8.05516525
Si       5.16597500       2.67021105       9.20474979
Si       1.94887630       4.94574390       1.18180910
Si       6.98869977       2.69846186       2.46195168
Si       4.38544062       4.52896590       8.45121154
Si       6.02875445       4.68081468       3.20712473
Si       1.90696155       0.89502578       0.81682444
Si       4.78751948       8.96806949       9.17556152
Si       5.15532911       2.77384421       3.54844923
24
Lattice="6.872207110145258 -1.824869197069804 0.2429440927145419 0.6857923979197901 8.139927455451756 0.2718955211542484 2.0531202032831906 2.9509547598225367 9.649870216228976" Properties=species:S:1:pos:R:3 unique_starting_index=94 config_type=initial n_minim_iter=5 stress="0.00017602967385004815 0.00020426781490149267 0.0004928003989406653 0.00020426781490149267 -0.00013687390027359152 -0.0006840911060017174 0.0004928003989406653 -0.0006840911060017174 3.036465283392863e-05" pbc="T T T"
Si       8.41830093       5.87815101       7.96751328
Si      -0.31394252       3.03557486       3.70338216
Si       2.77684350       6.91654412       1.45583919
Si       6.35637713       9.54982779       7.82192610
Si       5.31181038       1.55224395       1.82566193
Si       5.88686200       4.56148445       9.94418845
Si       4.51021718       0.74387713       3.61480583
Si       3.67688742       0.07538962       1.76165252
Si       6.74962855       0.42355817       5.92652176
Si       7.14648730       6.46349779       6.37458793
Si       4.68770191       6.29196149       9.59133798
Si       5.44626215       2.07387730       5.52955393
Si       1.25233907       6.22342269       2.75780710
Si       2.98805287       6.05157158       7.95513373
Si       6.98496200       3.28135328       4.50896099
Si       6.29740493       5.45158291       8.05501278
Si       5.16817109       2.66930893       9.20505481
Si       1.94964666       4.94616811       1.18143338
Si       6.98992103       2.69852786       2.46251058
Si       4.38756334       4.52843612       8.45087710
Si       6.03035978       4.68084178       3.20728664
Si       1.90734776       0.89518196       0.81730307
Si       4.79017953       8.96751060       9.17527205
Si       5.15660574       2.77347188       3.54888774
24
Lattice="6.872310762612595 -1.8249778021174479 0.24258007057132822 0.6857617935479187 8.140401655536905 0.2725714244895666 2.05285683907095 2.9519435245658143 9.649842796278014" Properties=species:S:1:pos:R:3 unique_starting_index=94 config_type=initial n_minim_iter=6 stress="-5.356308346567019e-05 0.00019810798977815328 0.00015082388557663873 0.00019810798977815328 7.398844565310537e-05 0.00023073508640795466 0.00015082388557663873 0.00023073508640795466 -1.8260273990874407e-05" pbc="T T T"
Si       8.41817298       5.87893553       7.96732732
Si      -0.31419837       3.03606615       3.70353134
Si       2.77710760       6.91733432       1.45660500
Si       6.35617289       9.55110296       7.82228493
Si       5.31186905       1.55236695       1.82539860
Si       5.88662607       4.56244418       9.94416502
Si       4.51021144       0.74430436       3.61469630
Si       3.67691359       0.07578387       1.76161433
Si       6.74956879       0.42400166       5.92615722
Si       7.14632297       6.46436894       6.37472709
Si       4.68764218       6.29294599       9.59166412
Si       5.44597291       2.07439771       5.52946205
Si       1.25218913       6.22398618       2.75818271
Si       2.98810363       6.05272250       7.95538367
Si       6.98483451       3.28196014       4.50875337
Si       6.29704950       5.45265463       8.05504472
Si       5.16794366       2.67018776       9.20501217
Si       1.94962604       4.94666311       1.18179208
Si       6.98987353       2.69870002       2.46240375
Si       4.38735373       4.52943787       8.45088859
Si       6.03039749       4.68122253       3.20740756
Si       1.90734672       0.89535235       0.81749244
Si       4.78993738       8.96879233       9.17596531
Si       5.15655683       2.77372596       3.54897343
24
Lattice="6.872676790922557 -1.8255333945814254 0.24223363517777896 0.6851210277732824 8.140306972062033 0.2720080708470088 2.0520456670895753 2.9511603429072606 9.649476372262166" Properties=species:S:1:pos:R:3 unique_starting_index=94 config_type=initial n_minim_iter=7 stress="-7.18549906779331e-05 -0.00023257383068909184 -0.0003202492188701024 -0.00023257383068909184 -8.65398700842048e-05 -0.0002454728712634221 -0.0003202492188701024 -0.0002454728712634221 5.705698149806697e-05" pbc="T T T"
Si       8.41745253       5.87760767       7.96616700
Si      -0.31473496       3.03584182       3.70333086
Si       2.77672434       6.91714154       1.45618131
Si       6.35507392       9.55012420       7.82118098
Si       5.31179970       1.55178449       1.82485958
Si       5.88584743       4.56122648       9.94341319
Si       4.51006267       0.74375364       3.61433810
Si       3.67693091       0.07553832       1.76142938
Si       6.74937161       0.42305335       5.92559148
Si       7.14559424       6.46337796       6.37377350
Si       4.68673509       6.29188041       9.59100855
Si       5.44549864       2.07356462       5.52896460
Si       1.25149996       6.22369771       2.75765777
Si       2.98734796       6.05209012       7.95475617
Si       6.98444948       3.28113378       4.50796886
Si       6.29616792       5.45168857       8.05421610
Si       5.16727261       2.66920737       9.20449509
Si       1.94923707       4.94644651       1.18136507
Si       6.98967223       2.69786192       2.46168250
Si       4.38661551       4.52852201       8.45028715
Si       6.03003304       4.68040285       3.20666121
Si       1.90728948       0.89520852       0.81741779
Si       4.78880280       8.96785887       9.17516554
Si       5.15629592       2.77302651       3.54840124
24
Lattice="6.873931589639206 -1.8256853791605026 0.24311083298897398 0.6852123262388043 8.140743387377741 0.2721387477519451 2.053661791492764 2.9513770957449137 9.648984713195356" Properties=species:S:1:pos:R:3 unique_starting_index=94 config_type=initial n_minim_iter=8 stress="0.0007327175964549665 -0.00046192510018267684 0.0002391461052589433 -0.00046192510018267684 0.00024839171959604474 9.186648352470425e-05 0.0002391461052589433 9.186648352470425e-05 -0.0005050771666480169" pbc="T T T"
Si       8.41988752       5.87743491       7.96602359
Si      -0.31433255       3.03602765       3.70302104
Si       2.77781173       6.91783130       1.45722013
Si       6.35699736       9.55077936       7.82138349
Si       5.31284460       1.55166736       1.82533408
Si       5.88838112       4.56118658       9.94323518
Si       4.51127243       0.74387275       3.61461888
Si       3.67785550       0.07603440       1.76199070
Si       6.75130873       0.42299385       5.92576037
Si       7.14752289       6.46371444       6.37414389
Si       4.68898156       6.29215717       9.59130023
Si       5.44679423       2.07347756       5.52931517
Si       1.25183621       6.22409782       2.75752973
Si       2.98940023       6.05290483       7.95451592
Si       6.98604586       3.28133678       4.50834311
Si       6.29789156       5.45218180       8.05441085
Si       5.16929464       2.66955177       9.20453111
Si       1.94975695       4.94667632       1.18166732
Si       6.99102603       2.69757872       2.46216518
Si       4.38862429       4.52860235       8.45033240
Si       6.03150085       4.68016561       3.20710125
Si       1.90776242       0.89551179       0.81795837
Si       4.79094281       8.96863216       9.17545975
Si       5.15777191       2.77311447       3.54856676
24
Lattice="6.873057796218683 -1.8247448715327865 0.24335183249697404 0.6861856614963067 8.140479552074751 0.2719437024593888 2.054078022612974 2.951234090655623 9.649767837375599" Properties=species:S:1:pos:R:3 unique_starting_index=94 config_type=initial n_minim_iter=9 stress="3.681808175842079e-05 3.409190279499605e-05 9.743999262498073e-06 3.409190279499605e-05 -0.00021782911350973325 1.3054886318655935e-05 9.743999262498073e-06 1.3054886318655935e-05 7.761471153420363e-05" pbc="T T T"
Si       8.41998080       5.87766926       7.96625496
Si      -0.31384561       3.03574802       3.70324253
Si       2.77876359       6.91803571       1.45773929
Si       6.35768048       9.55103779       7.82189459
Si       5.31249162       1.55209739       1.82548370
Si       5.88879363       4.56127058       9.94394651
Si       4.51100650       0.74436396       3.61503155
Si       3.67757751       0.07678088       1.76237643
Si       6.75083485       0.42361752       5.92624111
Si       7.14773952       6.46416377       6.37460381
Si       4.68971626       6.29210635       9.59233260
Si       5.44642071       2.07376913       5.52987393
Si       1.25242118       6.22395956       2.75752747
Si       2.99048512       6.05309744       7.95507560
Si       6.98576341       3.28196632       4.50868060
Si       6.29790852       5.45265876       8.05507000
Si       5.16930611       2.66996456       9.20540706
Si       1.95026906       4.94663947       1.18177125
Si       6.99065568       2.69799968       2.46225461
Si       4.38908538       4.52862692       8.45113756
Si       6.03161895       4.68032485       3.20726950
Si       1.90777212       0.89589763       0.81829065
Si       4.79197917       8.96881148       9.17631445
Si       5.15781077       2.77353016       3.54875299
24
Lattice="6.872416585286979 -1.8249110028165334 0.24373040578219432 0.6864183730981952 8.142224188092028 0.27151906450928254 2.0544315086762164 2.951424801260958 9.648802652568671" Properties=species:S:1:pos:R:3 unique_starting_index=94 config_type=initial n_minim_iter=10 stress="-0.0005112038307823693 2.0294243017614352e-05 1.1835210400424291e-05 2.0294243017614352e-05 0.0008133128817409532 -0.00017681998738428692 1.1835210400424291e-05 -0.00017681998738428692 -0.0004352312932939623" pbc="T T T"
Si       8.41971745       5.87830964       7.96497300
Si      -0.31355823       3.03616758       3.70269847
Si       2.77907996       6.91951536       1.45791260
Si       6.35763877       9.55293032       7.82096886
Si       5.31202462       1.55231855       1.82535989
Si       5.88909406       4.56180038       9.94278821
Si       4.51085888       0.74456835       3.61495571
Si       3.67731025       0.07712092       1.76253365
Si       6.75046763       0.42358810       5.92576219
Si       7.14749600       6.46544977       6.37392779
Si       4.69007622       6.29287856       9.59157428
Si       5.44594858       2.07397013       5.52930104
Si       1.25256643       6.22524150       2.75685719
Si       2.99135651       6.05441491       7.95415610
Si       6.98530818       3.28255582       4.50834003
Si       6.29765727       5.45381425       8.05427899
Si       5.16926412       2.67033547       9.20470214
Si       1.95040263       4.94770708       1.18166543
Si       6.99023162       2.69835844       2.46189347
Si       4.38931254       4.52936932       8.45056517
Si       6.03129048       4.68116733       3.20674770
Si       1.90785576       0.89644529       0.81851722
Si       4.79246728       8.97076648       9.17550702
Si       5.15763173       2.77406112       3.54851512
24
Lattice="6.8733740456378 -1.8246147635373948 0.24414665781873546 0.6866894805771616 8.141525589350316 0.2716968019209292 2.0553909990921246 2.9513517155854543 9.649337733257669" Properties=species:S:1:pos:R:3 unique_starting_index=94 config_type=initial n_minim_iter=11 stress="5.268878198796418e-05 -3.939862764099157e-05 2.1811209621157412e-05 -3.939862764099157e-05 -1.1687045064309126e-05 1.3331540492261494e-05 2.1811209621157412e-05 1.3331540492261494e-05 -9.104088074555394e-05" pbc="T T T"
Si       8.42140505       5.87738341       7.96507377
Si      -0.31328198       3.03593091       3.70278443
Si       2.78002580       6.91892530       1.45895204
Si       6.35898288       9.55238258       7.82184446
Si       5.31275183       1.55204416       1.82567128
Si       5.89091848       4.56151525       9.94323511
Si       4.51183197       0.74478367       3.61557636
Si       3.67786900       0.07758390       1.76301356
Si       6.75169915       0.42369747       5.92615740
Si       7.14882787       6.46515587       6.37462433
Si       4.69162294       6.29222404       9.59267287
Si       5.44666554       2.07379055       5.52961296
Si       1.25295743       6.22483371       2.75694625
Si       2.99321521       6.05452144       7.95475899
Si       6.98642177       3.28227657       4.50894159
Si       6.29885178       5.45387778       8.05499743
Si       5.17048143       2.67048838       9.20552596
Si       1.95101538       4.94736776       1.18213119
Si       6.99141566       2.69784386       2.46206715
Si       4.39062835       4.52933607       8.45161776
Si       6.03220517       4.68067775       3.20696221
Si       1.90847871       0.89686700       0.81905309
Si       4.79414688       8.97072854       9.17674818
Si       5.15861571       2.77389241       3.54905455
24
Lattice="6.8733578349841675 -1.8242561887740227 0.24441797559198533 0.6872969156190141 8.14219898710279 0.2718495883165049 2.056057871219245 2.9518724328198576 9.64938713953175" Properties=species:S:1:pos:R:3 unique_starting_index=94 config_type=initial n_minim_iter=12 stress="8.785239372610406e-05 0.00017430008833535778 3.1829562866694195e-05 0.00017430008833535778 0.0003032490329148213 0.00011922184012664267 3.1829562866694195e-05 0.00011922184012664267 -2.3603920744133238e-05" pbc="T T T"
Si       8.42214855       5.87740885       7.96434269
Si      -0.31283370       3.03615767       3.70242633
Si       2.78110830       6.91960330       1.45982713
Si       6.35979317       9.55370193       7.82208303
Si       5.31289265       1.55245506       1.82601395
Si       5.89222624       4.56216317       9.94313950
Si       4.51233613       0.74537331       3.61621261
Si       3.67775947       0.07826637       1.76331202
Si       6.75181792       0.42424009       5.92617592
Si       7.14925859       6.46641134       6.37478269
Si       4.69267802       6.29313692       9.59360121
Si       5.44652998       2.07404462       5.52966934
Si       1.25327002       6.22552149       2.75695150
Si       2.99528235       6.05600697       7.95497523
Si       6.98663240       3.28266317       4.50900690
Si       6.29945416       5.45544580       8.05498698
Si       5.17090732       2.67135686       9.20605419
Si       1.95195746       4.94799190       1.18240587
Si       6.99168289       2.69797464       2.46207968
Si       4.39134135       4.53019189       8.45222380
Si       6.03238057       4.68134981       3.20663595
Si       1.90927179       0.89764045       0.81971104
Si       4.79546049       8.97259947       9.17783999
Si       5.15894303       2.77427806       3.54900925
24
Lattice="6.87337688251731 -1.8241844805693797 0.2447592814939513 0.687439196795999 8.14235638804329 0.2718482291159122 2.0565881745699857 2.951920704595606 9.649340660192951" Properties=species:S:1:pos:R:3 unique_starting_index=94 config_type=initial n_minim_iter=13 stress="-8.222445821925704e-05 -2.501009619398093e-05 -1.877530367284058e-05 -2.501009619398093e-05 -8.616463257104104e-05 -2.2206771476686327e-05 -1.877530367284058e-05 -2.2206771476686327e-05 -4.6842015195687226e-06" pbc="T T T"
Si       8.42260231       5.87612569       7.96348409
Si      -0.31240924       3.03610300       3.70196346
Si       2.78175262       6.91981881       1.46038253
Si       6.35997583       9.55399460       7.82211652
Si       5.31286646       1.55225147       1.82618276
Si       5.89347543       4.56229390       9.94287861
Si       4.51262307       0.74531143       3.61681408
Si       3.67767716       0.07864070       1.76382012
Si       6.75172501       0.42435582       5.92625353
Si       7.14911610       6.46691518       6.37462807
Si       4.69341432       6.29315963       9.59445225
Si       5.44629114       2.07359296       5.52967488
Si       1.25273017       6.22526439       2.75681757
Si       2.99705772       6.05709760       7.95503957
Si       6.98653369       3.28225887       4.50874714
Si       6.29979060       5.45626982       8.05483686
Si       5.17122911       2.67149005       9.20658725
Si       1.95259567       4.94822248       1.18284694
Si       6.99226957       2.69812252       2.46231472
Si       4.39187712       4.53036915       8.45278893
Si       6.03215970       4.68129841       3.20611621
Si       1.91018301       0.89806828       0.82050419
Si       4.79612419       8.97349341       9.17862977
Si       5.15901209       2.77457290       3.54904167
24
Lattice="6.873178254504403 -1.8240599606731907 0.2444423386104978 0.6877438106103907 8.143196396973023 0.2728039556906832 2.056522949964317 2.9534270284003625 9.64975109067159" Properties=species:S:1:pos:R:3 unique_starting_index=94 config_type=initial n_minim_iter=14 stress="-7.780898510179943e-05 -4.1385445056604686e-05 -8.508056514481826e-05 -4.1385445056604686e-05 -0.00010519847839667857 1.6073245119485094e-05 -8.508056514481826e-05 1.6073245119485094e-05 6.677933482972882e-05" pbc="T T T"
Si       8.42253305       5.87612182       7.96287597
Si      -0.31226877       3.03669230       3.70204094
Si       2.78209476       6.92099757       1.46175555
Si       6.35964071       9.55628328       7.82325613
Si       5.31327687       1.55280830       1.82688405
Si       5.89404454       4.56424865       9.94299907
Si       4.51264703       0.74581547       3.61702267
Si       3.67765206       0.07942704       1.76433965
Si       6.75101924       0.42550169       5.92616302
Si       7.14851890       6.46899284       6.37480410
Si       4.69366825       6.29461561       9.59589724
Si       5.44567224       2.07401620       5.52943917
Si       1.25225625       6.22589826       2.75748651
Si       2.99834273       6.06005280       7.95581929
Si       6.98598737       3.28292487       4.50854314
Si       6.29957431       5.45865680       8.05519346
Si       5.17122356       2.67307921       9.20723757
Si       1.95326465       4.94904595       1.18415403
Si       6.99211807       2.69876753       2.46223149
Si       4.39209469       4.53219087       8.45392822
Si       6.03148340       4.68224565       3.20579829
Si       1.91115256       0.89843858       0.82147400
Si       4.79599595       8.97606717       9.17992310
Si       5.15869802       2.77539503       3.54906580
24
Lattice="6.872977958658031 -1.8234563695313053 0.24516419551958477 0.6884881613457967 8.143347911062593 0.2733624628876791 2.0579261424929753 2.9541990807226304 9.650185315634578" Properties=species:S:1:pos:R:3 unique_starting_index=94 config_type=initial n_minim_iter=15 stress="-5.5607284199578006e-05 -7.423307447978187e-06 -7.722786694329424e-06 -7.423307447978187e-06 -0.00017682715187287916 -1.9270629607396e-05 -7.722786694329424e-06 -1.9270629607396e-05 0.00016714175463478757" pbc="T T T"
Si       8.42384391       5.87540875       7.96286127
Si      -0.31158030       3.03681639       3.70198787
Si       2.78272943       6.92158529       1.46307013
Si       6.36081371       9.55775023       7.82478951
Si       5.31394238       1.55320311       1.82753714
Si       5.89659797       4.56502297       9.94418225
Si       4.51321975       0.74627563       3.61790302
Si       3.67809124       0.08037419       1.76521097
Si       6.75124485       0.42659977       5.92704232
Si       7.14926396       6.47045427       6.37554178
Si       4.69536720       6.29552714       9.59761496
Si       5.44596999       2.07421469       5.52966754
Si       1.25270275       6.22600720       2.75791800
Si       3.00101772       6.06221980       7.95660030
Si       6.98625227       3.28353088       4.50915188
Si       6.30077533       5.46037522       8.05598092
Si       5.17288166       2.67409583       9.20821063
Si       1.95452704       4.94931856       1.18535149
Si       6.99239992       2.69946961       2.46280047
Si       4.39373139       4.53345114       8.45526519
Si       6.03137399       4.68289369       3.20601796
Si       1.91229780       0.89869429       0.82263763
Si       4.79735181       8.97740945       9.18112331
Si       5.15891289       2.77603040       3.54974369
24
Lattice="6.872819408679493 -1.8232892764961182 0.24581114389030287 0.6887798752913165 8.143744723951436 0.2739756221557542 2.0590809727697774 2.955043814586754 9.650260240989466" Properties=species:S:1:pos:R:3 unique_starting_index=94 config_type=initial n_minim_iter=16 stress="-2.2142128481322314e-05 -1.8162773139545423e-05 1.0285772918992925e-05 -1.8162773139545423e-05 -9.477327012919806e-05 -2.856215546457475e-05 1.0285772918992925e-05 -2.856215546457475e-05 0.00013514889755849048" pbc="T T T"
Si       8.42441421       5.87417963       7.96193258
Si      -0.31101865       3.03702149       3.70179147
Si       2.78288095       6.92228223       1.46396616
Si       6.36133351       9.55942663       7.82584275
Si       5.31453881       1.55303023       1.82794512
Si       5.89868326       4.56605735       9.94449059
Si       4.51381446       0.74676376       3.61861235
Si       3.67860897       0.08044540       1.76611285
Si       6.75164775       0.42747821       5.92803265
Si       7.14996640       6.47155788       6.37627339
Si       4.69676831       6.29640312       9.59920907
Si       5.44576141       2.07446533       5.53024825
Si       1.25275249       6.22653124       2.75849183
Si       3.00340274       6.06462901       7.95720634
Si       6.98607406       3.28433893       4.50966930
Si       6.30141402       5.46166983       8.05703929
Si       5.17456167       2.67502266       9.20891758
Si       1.95584486       4.94944087       1.18651180
Si       6.99244311       2.70029520       2.46307858
Si       4.39507175       4.53495365       8.45626632
Si       6.03092484       4.68328637       3.20616893
Si       1.91328028       0.89895357       0.82360623
Si       4.79759744       8.97890561       9.18201640
Si       5.15863196       2.77633725       3.54983267
24
Lattice="6.873338939837157 -1.822982740284631 0.24674965777884608 0.6893591465760108 8.144371923469627 0.2751012842235124 2.0611053557476464 2.9565899487071055 9.65001068892787" Properties=species:S:1:pos:R:3 unique_starting_index=94 config_type=initial n_minim_iter=17 stress="0.00016631735270593951 2.081929086171111e-05 1.1906259283852316e-05 2.081929086171111e-05 0.00020439275772027454 -4.402774287190126e-05 1.1906259283852316e-05 -4.402774287190126e-05 -3.8939912612775356e-05" pbc="T T T"
Si       8.42629510       5.87071311       7.95918185
Si      -0.30981787       3.03801323       3.70200870
Si       2.78365275       6.92349760       1.46477785
Si       6.36258951       9.56230118       7.82720862
Si       5.31662837       1.55225727       1.82874845
Si       5.90192346       4.56696534       9.94554671
Si       4.51481203       0.74723999       3.61947506
Si       3.67993609       0.07973268       1.76707766
Si       6.75357538       0.42929466       5.92965632
Si       7.15194566       6.47339049       6.37696580
Si       4.70021074       6.29768814       9.60211584
Si       5.44530708       2.07567258       5.52997761
Si       1.25259162       6.22776898       2.75960643
Si       3.00823349       6.06932649       7.95823426
Si       6.98552641       3.28616108       4.51005418
Si       6.30349325       5.46429860       8.05792652
Si       5.17798637       2.67703582       9.21001929