14
Lattice="7.9105699321288 -1.033711869093426 1.9145295269648879 -1.4499384661875572 7.071873843119785 -0.8311082219995941 -1.8543026054278096 -0.08371758729870878 5.6347823845086005" Properties=species:S:1:pos:R:3 unique_starting_index=20 config_type=initial n_minim_iter=1 energy=-2285.2131442972527 free_energy=-2285.2131442972527 pbc="T T T"
Si       3.29258402       3.55846921       6.03765150
Si       5.26816436       1.70712844       1.63524352
Si       1.31374485       2.39597518       0.68055219
Si      -0.66183550       4.24731595       5.08296017
Si       4.69314413       3.45854730       4.39403887
Si       5.72601178       1.73186117       3.71723906
Si      -0.08681527       2.49589708       2.32416482
Si      -1.11968292       4.22258322       3.00096463
Si       0.78026358       4.28601157       1.54519201
Si       0.39304901       2.53714690       4.40712777
Si       3.82606528       1.66843282       5.17301168
Si       4.21327985       3.41729749       2.31107592
Si       2.77243680       3.93183559       0.82318641
Si       1.83389206       2.02260880       5.89501728
14
Lattice="7.910453414669711 -1.0336798046398372 1.914473768979613 -1.4498940094221475 7.071769713021367 -0.8311172472110683 -1.8542929123629857 -0.08374590740904674 5.634674388083177" Properties=species:S:1:pos:R:3 unique_starting_index=20 config_type=initial n_minim_iter=2 stress="-4.995381128864986e-05 4.441023675861983e-05 3.576518715785942e-05 4.441023675861983e-05 -4.337100752420135e-05 1.8977863514377595e-05 3.576518715785942e-05 1.8977863514377595e-05 -4.2967214567299316e-05" pbc="T T T"
Si       3.29253430       3.55840098       6.03750517
Si       5.26809030       1.70711621       1.63519151
Si       1.31373219       2.39594302       0.68052574
Si      -0.66182380       4.24722779       5.08283940
Si       4.69307662       3.45849185       4.39391912
Si       5.72592625       1.73184010       3.71714097
Si      -0.08681013       2.49585215       2.32411179
Si      -1.11965975       4.22250390       3.00088994
Si       0.78026067       4.28594511       1.54514219
Si       0.39303947       2.53709520       4.40702361
Si       3.82600582       1.66839889       5.17288872
Si       4.21322702       3.41724880       2.31100730
Si       2.77241082       3.93178113       0.82314893
Si       1.83385567       2.02256287       5.89488198
14
Lattice="7.91050165089538 -1.033899952767865 1.9142715383450173 -1.4500469715837372 7.071846610857453 -0.8312056322266135 -1.854459599278202 -0.08380865884627813 5.634696942808638" Properties=species:S:1:pos:R:3 unique_starting_index=20 config_type=initial n_minim_iter=3 stress="0.0001031323921415323 -6.746401538087922e-05 -0.00019033249506602117 -6.746401538087922e-05 4.653140363966228e-05 4.376805815610171e-05 -0.00019033249506602117 4.376805815610171e-05 -0.00014053792148994095" pbc="T T T"
Si       3.29233338       3.55822217       6.03731002
Si       5.26803254       1.70699146       1.63503468
Si       1.31366170       2.39591583       0.68045282
Si      -0.66203746       4.24714654       5.08272817
Si       4.69289509       3.45831554       4.39367168
Si       5.72581712       1.73165462       3.71693707
Si      -0.08690001       2.49582246       2.32409117
Si      -1.11982204       4.22248338       3.00082578
Si       0.78010499       4.28592424       1.54505698
Si       0.39287107       2.53703535       4.40689391
Si       3.82589009       1.66821376       5.17270587
Si       4.21312401       3.41710265       2.31086894
Si       2.77234794       3.93171031       0.82303745
Si       1.83364714       2.02242769       5.89472540
14
Lattice="7.910452949452653 -1.0339697936931245 1.9144517961965037 -1.4500757201681753 7.071839970719054 -0.8313897778336933 -1.8543574057069405 -0.0839149300665591 5.634798066701261" Properties=species:S:1:pos:R:3 unique_starting_index=20 config_type=initial n_minim_iter=4 stress="0.00011828490536805416 1.8947653068298418e-05 -3.546080799249711e-05 1.8947653068298418e-05 -0.00018972939268466058 -9.115029913913803e-05 -3.546080799249711e-05 -9.115029913913803e-05 0.00010983811764892285" pbc="T T T"
Si       3.29238376       3.55806461       6.03741477
Si       5.26796944       1.70694613       1.63512956
Si       1.31363607       2.39589064       0.68044531
Si      -0.66194962       4.24700912       5.08273052
Si       4.69287109       3.45818705       4.39374542
Si       5.72578205       1.73155444       3.71707460
Si      -0.08685126       2.49576820       2.32411466
Si      -1.11976223       4.22240081       3.00078548
Si       0.78008165       4.28587719       1.54503364
Si       0.39292236       2.53695321       4.40691209
Si       3.82593817       1.66807806       5.17282644
Si       4.21309747       3.41700203       2.31094800
Si       2.77233256       3.93165828       0.82305244
Si       1.83368727       2.02229697       5.89480764
14
Lattice="7.9101468887385815 -1.0341149983375495 1.9146635944504051 -1.4501156323606317 7.072232431561275 -0.8314094732073293 -1.8541104302615978 -0.08388324166313582 5.63472084803269" Properties=species:S:1:pos:R:3 unique_starting_index=20 config_type=initial n_minim_iter=5 stress="1.1231620787680694e-05 -2.5837269698554644e-05 4.823955946863122e-05 -2.5837269698554644e-05 3.1982217599554016e-05 -1.8503435745362128e-05 4.823955946863122e-05 -1.8503435745362128e-05 -4.1054280872788586e-05" pbc="T T T"
Si       3.29237507       3.55822421       6.03748830
Si       5.26770519       1.70700354       1.63528392
Si       1.31354575       2.39600998       0.68048667
Si      -0.66178436       4.24723065       5.08269105
Si       4.69269370       3.45832467       4.39384168
Si       5.72556227       1.73159777       3.71723088
Si      -0.08677288       2.49590952       2.32413329
Si      -1.11964144       4.22263642       3.00074409
Si       0.78001142       4.28610969       1.54508007
Si       0.39300700       2.53711850       4.40687122
Si       3.82590941       1.66812451       5.17289490
Si       4.21291382       3.41711569       2.31110375
Si       2.77220310       3.93183512       0.82319645
Si       1.83371773       2.02239907       5.89477852
14
Lattice="7.909941652092448 -1.0340592282734589 1.9146018415949841 -1.4500320239942772 7.072282966810199 -0.8313394028704454 -1.8541321332427605 -0.08383934192766719 5.6348488171420135" Properties=species:S:1:pos:R:3 unique_starting_index=20 config_type=initial n_minim_iter=6 stress="-9.106595936129549e-05 4.300848606136761e-05 -5.228763191834042e-05 4.300848606136761e-05 2.774425710972051e-05 3.6470787799219204e-06 -5.228763191834042e-05 3.6470787799219204e-06 6.832921579285325e-05" pbc="T T T"
Si       3.29226214       3.55832857       6.03761474
Si       5.26754240       1.70708264       1.63525960
Si       1.31351536       2.39605583       0.68049652
Si      -0.66176491       4.24730176       5.08285165
Si       4.69254712       3.45842596       4.39390556
Si       5.72537887       1.73169654       3.71726161
Si      -0.08676962       2.49595844       2.32420569
Si      -1.11960137       4.22268786       3.00084965
Si       0.77998649       4.28617656       1.54514803
Si       0.39297970       2.53719824       4.40697412
Si       3.82579101       1.66820783       5.17296323
Si       4.21279780       3.41718616       2.31113714
Si       2.77217551       3.93188249       0.82325307
Si       1.83360199       2.02250191       5.89485819
14
Lattice="7.910225796834482 -1.0341942014137042 1.914690758267209 -1.4502366680661405 7.072281310952472 -0.8312470904925927 -1.8540954657695865 -0.08371542824914079 5.634756609537192" Properties=species:S:1:pos:R:3 unique_starting_index=20 config_type=initial n_minim_iter=7 stress="-6.358296749363387e-06 -4.226145778642636e-05 1.3158986048911954e-05 -4.226145778642636e-05 -7.242350597006582e-05 6.785946666343693e-05 1.3158986048911954e-05 6.785946666343693e-05 1.5238216721609902e-05" pbc="T T T"
Si       3.29239031       3.55830803       6.03769827
Si       5.26760663       1.70702155       1.63531023
Si       1.31350336       2.39606365       0.68050201
Si      -0.66171297       4.24735013       5.08289005
Si       4.69266024       3.45837578       4.39399040
Si       5.72551128       1.73165854       3.71733938
Si      -0.08676658       2.49599591       2.32420988
Si      -1.11961761       4.22271314       3.00086089
Si       0.77991202       4.28618093       1.54520243
Si       0.39303634       2.53726738       4.40696946
Si       3.82598165       1.66819075       5.17299785
Si       4.21285732       3.41710430       2.31123082
Si       2.77222459       3.93178375       0.82340815
Si       1.83366908       2.02258794       5.89479212
14
Lattice="7.910411057898019 -1.0342217349268001 1.9147149834370187 -1.450231652583441 7.072510004780676 -0.8313968589914116 -1.8541204727622187 -0.08385306907449079 5.634678688114645" Properties=species:S:1:pos:R:3 unique_starting_index=20 config_type=initial n_minim_iter=8 stress="0.00010965530339924097 0.00010782193536226713 1.0176024648152384e-05 0.00010782193536226713 2.3548059139493194e-05 1.5417495907541138e-05 1.0176024648152384e-05 1.5417495907541138e-05 -5.6943843284487955e-05" pbc="T T T"
Si       3.29252186       3.55827618       6.03758851
Si       5.26767962       1.70709179       1.63523841
Si       1.31353707       2.39615902       0.68040830
Si      -0.66162068       4.24734341       5.08275840
Si       4.69280361       3.45841405       4.39387806
Si       5.72562458       1.73169424       3.71726351
Si      -0.08674467       2.49602116       2.32411875
Si      -1.11956565       4.22274096       3.00073331
Si       0.77995013       4.28629519       1.54507249
Si       0.39309185       2.53726600       4.40684654
Si       3.82610881       1.66814001       5.17292432
Si       4.21296708       3.41716920       2.31115027
Si       2.77232423       3.93188198       0.82335726
Si       1.83373470       2.02255322       5.89463956
14
Lattice="7.910385683327773 -1.0345681910716187 1.914762490814324 -1.4504398162499434 7.072810146993681 -0.8316558430073606 -1.8541014724455294 -0.08400208034943343 5.6346992739969926" Properties=species:S:1:pos:R:3 unique_starting_index=20 config_type=initial n_minim_iter=9 stress="4.3273993897076025e-06 2.4380368140210434e-06 1.9785280211855173e-06 2.4380368140210434e-06 2.6123588009766377e-06 -1.1641225102144992e-05 1.9785280211855173e-06 -1.1641225102144992e-05 -8.901989105029546e-06" pbc="T T T"
Si       3.29240820       3.55801739       6.03753439
Si       5.26749135       1.70695213       1.63514270
Si       1.31343620       2.39622249       0.68027154
Si      -0.66164695       4.24728775       5.08266322
Si       4.69266859       3.45822017       4.39378800
Si       5.72547244       1.73148423       3.71719676
Si      -0.08682420       2.49601970       2.32401792
Si      -1.11962805       4.22275565       3.00060916
Si       0.77980271       4.28636199       1.54489412
Si       0.39303715       2.53719396       4.40674676
Si       3.82604169       1.66787788       5.17291180
Si       4.21280725       3.41704592       2.31105916
Si       2.77217407       3.93185999       0.82326801
Si       1.83367033       2.02237989       5.89453791
14
Lattice="7.910441296586782 -1.035372712074655 1.9148598662121528 -1.4509290238283425 7.073686976558599 -0.8322172009968304 -1.8540959661761798 -0.08432181745688457 5.634771795286875" Properties=species:S:1:pos:R:3 unique_starting_index=20 config_type=initial n_minim_iter=10 stress="8.416642481742259e-06 1.1199610655103748e-05 -1.4929633536877637e-06 1.1199610655103748e-05 -1.3301867787597682e-05 -2.79577543054704e-06 -1.4929633536877637e-06 -2.79577543054704e-06 -1.4943538002405388e-05" pbc="T T T"
Si       3.29241466       3.55749514       6.03759119
Si       5.26694149       1.70669446       1.63500841
Si       1.31300165       2.39649731       0.67982327
Si      -0.66152518       4.24729799       5.08240605
Si       4.69248778       3.45781462       4.39382061
Si       5.72511988       1.73120245       3.71685205
Si      -0.08707148       2.49617783       2.32359385
Si      -1.11970358       4.22279000       3.00056241
Si       0.77944733       4.28651973       1.54449208
Si       0.39299362       2.53711933       4.40641741
Si       3.82596898       1.66747271       5.17292238
Si       4.21242269       3.41687312       2.31099705
Si       2.77194874       3.93190398       0.82317769
Si       1.83346757       2.02208847       5.89423677
14
Lattice="7.910354677810052 -1.0356265382715952 1.9149280984540853 -1.4510743966692343 7.073975809061994 -0.8323621931261528 -1.8540379429077325 -0.08438838496039203 5.634791921502374" Properties=species:S:1:pos:R:3 unique_starting_index=20 config_type=initial n_minim_iter=11 stress="-3.1665073414476255e-06 8.194279656341192e-06 2.4592645152986024e-06 8.194279656341192e-06 0.00019762928174111034 -0.0001403547509696466 2.4592645152986024e-06 -0.0001403547509696466 7.709754593039567e-05" pbc="T T T"
Si       3.29238941       3.55738868       6.03769182
Si       5.26671167       1.70661201       1.63498877
Si       1.31285293       2.39657220       0.67966600
Si      -0.66146933       4.24734887       5.08236906
Si       4.69240138       3.45773256       4.39385247
Si       5.72499378       1.73111432       3.71681582
Si      -0.08715904       2.49622832       2.32350536
Si      -1.11975144       4.22284656       3.00054200
Si       0.77933592       4.28658806       1.54440237
Si       0.39296307       2.53712161       4.40630267
Si       3.82590642       1.66737282       5.17295546
Si       4.21227927       3.41683928       2.31105516
Si       2.77186543       3.93189959       0.82316659
Si       1.83337691       2.02206129       5.89419124
14
Lattice="7.910293612027977 -1.0357820552956298 1.9150446041877196 -1.4513420179344234 7.073887810500808 -0.8318827084577111 -1.8539089673257771 -0.08389174659074777 5.634936003386312" Properties=species:S:1:pos:R:3 unique_starting_index=20 config_type=initial n_minim_iter=12 stress="-1.3012167088593262e-05 3.948094628128782e-06 5.2818786999947726e-06 3.948094628128782e-06 0.00012217906429241765 -6.026835349368967e-05 5.2818786999947726e-06 -6.026835349368967e-05 6.473221275768699e-05" pbc="T T T"
Si       3.29253889       3.55758536       6.03860798
Si       5.26623575       1.70654602       1.63520436
Si       1.31250374       2.39662865       0.67948992
Si      -0.66119312       4.24766799       5.08289353
Si       4.69244038       3.45786417       4.39444611
Si       5.72490420       1.73129747       3.71703029
Si      -0.08739775       2.49634984       2.32365179
Si      -1.11986158       4.22291654       3.00106761
Si       0.77920588       4.28658303       1.54469578
Si       0.39290102       2.53742000       4.40630787
Si       3.82583675       1.66763098       5.17340212
Si       4.21214161       3.41679400       2.31179002
Si       2.77177031       3.93170124       0.82365656
Si       1.83327232       2.02251277       5.89444134
14
Lattice="7.910207968465751 -1.0360224005239245 1.9151143299358568 -1.4515710930664485 7.073805254997903 -0.8318339688762509 -1.8538338760303597 -0.0837701175272978 5.634990081467585" Properties=species:S:1:pos:R:3 unique_starting_index=20 config_type=initial n_minim_iter=13 stress="-3.691387783424798e-05 -1.915939742274761e-05 1.0982189579491842e-05 -1.915939742274761e-05 -8.304492357504931e-05 6.06723490923508e-05 1.0982189579491842e-05 6.06723490923508e-05 -4.532573846234119e-05" pbc="T T T"
Si       3.29250398       3.55741163       6.03895321
Si       5.26598910       1.70636030       1.63532595
Si       1.31229902       2.39660111       0.67931723
Si      -0.66118610       4.24765244       5.08294449
Si       4.69238976       3.45775913       4.39463741
Si       5.72481378       1.73115692       3.71707006
Si      -0.08758676       2.49625360       2.32363304
Si      -1.12001078       4.22285582       3.00120038
Si       0.77910587       4.28651919       1.54470251
Si       0.39281542       2.53739562       4.40629166
Si       3.82569713       1.66749355       5.17356793
Si       4.21198758       3.41661712       2.31197878
Si       2.77168630       3.93149640       0.82385920
Si       1.83311670       2.02251634       5.89441124
14
Lattice="7.910242854323933 -1.0362930030599449 1.9150531198593637 -1.4517835996487714 7.073771650951538 -0.8319734631298018 -1.8538932293942942 -0.0838364555866708 5.634997396209664" Properties=species:S:1:pos:R:3 unique_starting_index=20 config_type=initial n_minim_iter=14 stress="-1.914439468245513e-05 -2.0225528180614487e-05 4.39551039851715e-06 -2.0225528180614487e-05 0.00011040261949192818 -6.99517747059349e-05 4.39551039851715e-06 -6.99517747059349e-05 3.8913205750827324e-05" pbc="T T T"
Si       3.29242250       3.55709285       6.03894058
Si       5.26586179       1.70615780       1.63521600
Si       1.31214352       2.39654935       0.67913648
Si      -0.66129576       4.24748439       5.08286105
Si       4.69230041       3.45748295       4.39456832
Si       5.72472907       1.73092389       3.71696862
Si      -0.08773439       2.49615924       2.32350873
Si      -1.12016304       4.22271831       3.00110843
Si       0.77898192       4.28638883       1.54457758
Si       0.39267910       2.53725099       4.40616513
Si       3.82558410       1.66725336       5.17349947
Si       4.21188692       3.41639121       2.31191192
Si       2.77161081       3.93137939       0.82384423
Si       1.83295521       2.02226280       5.89423282
