12
Lattice="5.3950144004469935 0.1566288732160179 0.7922376432443695 -1.1756086796698995 7.146638707037273 -2.719658253508155 0.9009935399325959 -3.6469637586350094 8.016672969745398" Properties=species:S:1:pos:R:3 unique_starting_index=44 config_type=initial n_minim_iter=1 energy=-1958.6756553422917 free_energy=-1958.6756553422917 pbc="T T T"
Si       0.96338819       0.26953373       5.64335440
Si      -0.52258481       2.48852314       1.65547272
Si       0.61503690       3.24187474       3.32726653
Si       2.65249474       2.74240347       2.91612420
Si       5.63076460       2.37298589       5.98035143
Si       4.84759366      -1.01895689       6.07029368
Si       3.54687544       4.32803849      -0.69951982
Si      -0.27699735       3.23731338      -0.39299810
Si       2.82309157      -0.40560646       6.40883716
Si       5.43427376       0.37142772       2.46929635
Si       1.26294780      -1.82506322       6.17832743
Si       3.23622503      -2.35234057       5.58100593
