6
Lattice="3.2943269391026715 -0.7497369514902276 0.08466970314374435 -1.7331405296808577 5.170813649340854 -0.24924051553206214 -0.7041200209326312 -1.2972286630225363 9.325111232110435" Properties=species:S:1:pos:R:3 unique_starting_index=56 config_type=initial n_minim_iter=1 energy=-975.3939231247274 free_energy=-975.3939231247274 pbc="T T T"
Si      -1.06144038       3.37700281       7.16819983
Si       0.36437304       3.72070111      -0.05362478
Si      -1.30068010       4.24979577       1.67235822
Si       0.28355085       1.75000345       7.16912839
Si       1.66405902       0.16829892       6.83162406
Si      -0.21356208       2.24247312       1.71458667
6
Lattice="3.3056420166664706 -0.7605406876184765 0.08476119955588238 -1.751098597606882 5.192585820147461 -0.24941038101777394 -0.7027599067186442 -1.2998269969843406 9.330688550163476" Properties=species:S:1:pos:R:3 unique_starting_index=56 config_type=initial n_minim_iter=2 stress="0.0005684856403114196 -6.114002104738938e-05 -0.0009514362698528546 -6.114002104738938e-05 0.005130522159761452 0.0019620374884407217 -0.0009514362698528546 0.0019620374884407217 -7.036531580883455e-06" pbc="T T T"
Si      -1.07401863       3.39188427       7.17224277
Si       0.35610055       3.73214471      -0.05416723
Si      -1.31541096       4.26736866       1.67347521
Si       0.28092275       1.75485029       7.17361360
Si       1.66872221       0.16422222       6.83541757
Si      -0.21943723       2.25070915       1.71636844
6
Lattice="3.3177214667709105 -0.7676641907115748 0.09436221910568633 -1.7739728844354887 5.169567820056382 -0.27379596958349267 -0.6819302893592099 -1.3273628865772304 9.342519954091864" Properties=species:S:1:pos:R:3 unique_starting_index=56 config_type=initial n_minim_iter=3 stress="-0.010510544326979636 -0.00470589899426009 -0.0005648522691856726 -0.00470589899426009 0.0007254772767093988 0.0005528477306433378 -0.0005648522691856726 0.0005528477306433378 0.0012759238372741198" pbc="T T T"
Si      -1.07914865       3.34107006       7.15882173
Si       0.34518293       3.70604887      -0.07877539
Si      -1.33682387       4.23954697       1.65655025
Si       0.29438144       1.71849905       7.17494064
Si       1.68605239       0.13387220       6.84125069
Si      -0.21733619       2.23518086       1.72251356
6
Lattice="3.3768582617982386 -0.7705926963288977 0.11637162289448522 -1.8215026803656762 5.11892840488156 -0.32704195569822037 -0.6460988494589847 -1.3914585593494981 9.357924596727397" Properties=species:S:1:pos:R:3 unique_starting_index=56 config_type=initial n_minim_iter=4 stress="0.0268633813222531 0.014604946280850914 0.0038277254336665473 0.014604946280850914 -0.004425224102668696 -0.0019282369100707272 0.0038277254336665473 -0.0019282369100707272 0.005842090971967443" pbc="T T T"
Si      -1.07691282       3.23159753       7.12094320
Si       0.34052554       3.65479919      -0.13389485
Si      -1.38221498       4.17890405       1.61742478
Si       0.32526277       1.64151870       7.16952511
Si       1.74777034       0.07592891       6.84661805
Si      -0.20208220       2.20421641       1.73821543
6
Lattice="3.3824984484223544 -0.7847242857918082 0.12126614411657383 -1.8486405256509921 5.109868735689097 -0.3442665191806812 -0.6323127321638616 -1.4126908664906672 9.342191301756797" Properties=species:S:1:pos:R:3 unique_starting_index=56 config_type=initial n_minim_iter=5 stress="0.010668057889488604 0.0029828131720218247 0.00038652986887099906 0.0029828131720218247 -0.006679545075426106 -0.0043569152290010935 0.00038652986887099906 -0.0043569152290010935 -0.00028236561183466943" pbc="T T T"
Si      -1.08872947       3.19734846       7.08996540
Si       0.32220589       3.63570159      -0.15563717
Si      -1.41222787       4.16384407       1.59994612
Si       0.31722106       1.61076145       7.14890921
Si       1.75798209       0.05117864       6.83096534
Si      -0.20207297       2.19648561       1.74495158
6
Lattice="3.3684333423142836 -0.7885516666690265 0.12914454810927412 -1.844452530037412 5.126159437227154 -0.3319878788189435 -0.5990294002633573 -1.383886575994978 9.34555695182403" Properties=species:S:1:pos:R:3 unique_starting_index=56 config_type=initial n_minim_iter=6 stress="-0.01095898784535258 -0.009274231341807885 -0.002701104567218537 -0.009274231341807885 -0.003166272730765567 -0.00820203169426052 -0.002701104567218537 -0.00820203169426052 0.0029571306505768273" pbc="T T T"
Si      -1.06268454       3.23016532       7.09612588
Si       0.31523954       3.63999083      -0.15031202
Si      -1.42160716       4.18118918       1.61065014
Si       0.33777095       1.62726872       7.15597418
Si       1.77174063       0.08865065       6.84042297
Si      -0.17588312       2.22225767       1.78601458
6
Lattice="3.3384544337734505 -0.7932169109096404 0.13660061714941227 -1.8259969246377092 5.18459536528258 -0.22582269200733077 -0.5223212097876543 -1.189915293899271 9.220540460517935" Properties=species:S:1:pos:R:3 unique_starting_index=56 config_type=initial n_minim_iter=7 stress="-0.03851029503682495 -0.0073095731697071014 -0.004658351647845505 -0.0073095731697071014 -0.0007692483930585484 -0.0029486848088036465 -0.004658351647845505 -0.0029486848088036465 0.0010628602369055517" pbc="T T T"
Si      -0.99024776       3.41726393       7.07634012
Si       0.30568985       3.67145089      -0.07189940
Si      -1.42975743       4.26403201       1.67166227
Si       0.39075164       1.81130091       7.11578055
Si       1.80640060       0.25371033       6.77967574
Si      -0.11429160       2.32291108       1.87914051
6
Lattice="3.3563724017805354 -0.7928591832219359 0.1452939328919494 -1.8423826342195662 5.159557899668042 -0.18050504759786948 -0.47587683709289985 -1.089761068224576 9.103285500639302" Properties=species:S:1:pos:R:3 unique_starting_index=56 config_type=initial n_minim_iter=8 stress="-0.008100529995372347 -0.0030156439384419875 0.0023950228595616594 -0.0030156439384419875 0.008022728020519817 -0.0023261756825532017 0.0023950228595616594 -0.0023261756825532017 -0.00894395837119483" pbc="T T T"
Si      -0.96361505       3.47323523       7.01847193
Si       0.29691828       3.64500978      -0.03484252
Si      -1.44980065       4.25490673       1.68234405
Si       0.42962029       1.86806296       7.05246223
Si       1.84900446       0.32092115       6.71057667
Si      -0.08693084       2.34941339       1.91066728
6
Lattice="3.400540804072001 -0.7955152201470488 0.14204599951729205 -1.8942574370310223 5.062953596237038 -0.07432372731408848 -0.4402122657426352 -0.8544602158831044 9.11487496417322" Properties=species:S:1:pos:R:3 unique_starting_index=56 config_type=initial n_minim_iter=9 stress="0.029381776695431086 -0.0022009048485947045 0.00197864966792513 -0.0022009048485947045 0.02182466266307316 0.0008146855771536019 0.00197864966792513 0.0008146855771536019 0.007269142479973888" pbc="T T T"
Si      -0.96927618       3.57049777       7.10110241
Si       0.26547108       3.55450607       0.04911972
Si      -1.51050991       4.19688401       1.76345387
Si       0.44644194       1.98400181       7.11025224
Si       1.90324821       0.45538434       6.73910317
Si      -0.05770546       2.38905396       2.03081610
6
Lattice="3.4086322343454607 -0.7981059574952492 0.13632473601379827 -1.9160279651869014 5.009366297839499 -0.008786418095078241 -0.42473578697571474 -0.7165305587362655 9.076353533257633" Properties=species:S:1:pos:R:3 unique_starting_index=56 config_type=initial n_minim_iter=10 stress="0.028447759552803212 -0.0029069182129269826 0.0008932855866723829 -0.0029069182129269826 0.010758273004313585 0.004308451411407991 0.0008932855866723829 0.004308451411407991 0.003275473335080985" pbc="T T T"
Si      -0.97015565       3.63518519       7.11741256
Si       0.24395272       3.50405008       0.09952984
Si      -1.53351519       4.16240895       1.80469939
Si       0.44909923       2.05256849       7.11064462
Si       1.91434161       0.53029075       6.72217887
Si      -0.05117387       2.41541781       2.08602670
6
Lattice="3.403323428411802 -0.7992043931149517 0.1367988691201792 -1.91879846370524 4.994934055070559 0.011403446711232485 -0.4113867577927102 -0.6723839973682989 9.061077048396056" Properties=species:S:1:pos:R:3 unique_starting_index=56 config_type=initial n_minim_iter=11 stress="0.01066659783083704 -0.005722207452204684 0.0020101675537870702 -0.005722207452204684 -0.008934855884194995 0.005958756502401729 0.0020101675537870702 0.005958756502401729 0.0033804455850778192" pbc="T T T"
Si      -0.95952105       3.65879390       7.11677459
Si       0.23295700       3.48608558       0.11663513
Si      -1.53327229       4.14400810       1.81494290
Si       0.45522145       2.07535808       7.10781012
Si       1.91742671       0.55552214       6.71457937
Si      -0.04930870       2.43836851       2.11157667
6
Lattice="3.3685039287775873 -0.7899491689035996 0.11879431042030165 -1.8846047614690382 4.996828915322601 0.02872963874204854 -0.4552563824637819 -0.6632654835551007 9.013525508474983" Properties=species:S:1:pos:R:3 unique_starting_index=56 config_type=initial n_minim_iter=12 stress="-0.027298929764696386 0.015067896269147538 -0.0037661297607499353 0.015067896269147538 -0.05511111658387507 0.005084312499936562 -0.0037661297607499353 0.005084312499936562 -0.004697359707809308" pbc="T T T"
Si      -0.96432036       3.68151778       7.08323726
Si       0.22852242       3.48304040       0.13453033
Si      -1.48195184       4.11040813       1.81237389
Si       0.42593814       2.08755345       7.06836561
Si       1.86572661       0.56571719       6.66780432
Si      -0.08230822       2.48672964       2.10994518
6
Lattice="3.3608350441251558 -0.7890327025739007 0.11745139432945119 -1.8775851166217332 5.004149165906166 0.037328910032527085 -0.4543935337937706 -0.6516551918399696 8.984592680051758" Properties=species:S:1:pos:R:3 unique_starting_index=56 config_type=initial n_minim_iter=13 stress="-0.045105188808223624 0.02245667213671019 -0.005555035251523974 0.02245667213671019 -0.06562596427464029 0.005847296953704324 -0.005555035251523974 0.005847296953704324 -0.006047335934643203" pbc="T T T"
Si      -0.95749258       3.69699648       7.06327766
Si       0.22480916       3.48377278       0.14202269
Si      -1.47178393       4.10511307       1.81074283
Si       0.42761159       2.10060800       7.04836452
Si       1.86247713       0.57924459       6.64572059
Si      -0.08338114       2.51287148       2.11904581
6
Lattice="3.3645734136794556 -0.8063649979557983 0.13887735366384626 -1.8980398371130627 5.044150061649888 -0.010701494535677092 -0.40422556402128806 -0.7320737825982329 8.914776209746407" Properties=species:S:1:pos:R:3 unique_starting_index=56 config_type=initial n_minim_iter=14 stress="-0.06958086095029811 0.020154130270398044 -0.004268934209575824 0.020154130270398044 -0.05218563738138557 -0.0021743498209552373 -0.004268934209575824 -0.0021743498209552373 -0.006292570380603439" pbc="T T T"
Si      -0.92887660       3.64989908       6.96162038
Si       0.20279381       3.49166257       0.11083608
Si      -1.48033864       4.10460679       1.75209964
Si       0.45795560       2.05642372       6.97534947
Si       1.89259764       0.53326741       6.59094525
Si      -0.07905532       2.54141813       2.11036503
6
Lattice="3.390702763072949 -0.8419995566022351 0.1671201803599221 -1.959525249679127 5.083844523354183 -0.061148083161978055 -0.33040354076723044 -0.8027170400655446 8.856168857423997" Properties=species:S:1:pos:R:3 unique_starting_index=56 config_type=initial n_minim_iter=15 stress="-0.02203639144352518 0.021216976645048926 -0.0057344683338580674 0.021216976645048926 -0.024552836997714243 -0.004058073392346763 -0.0057344683338580674 -0.004058073392346763 0.002451166304164905" pbc="T T T"
Si      -0.90456751       3.60529779       6.87173337
Si       0.15804889       3.48990024       0.09481967
Si      -1.49367789       4.09854573       1.69271600
Si       0.49626079       2.01399192       6.91419413
Si       1.94048869       0.47646566       6.55062432
Si      -0.11211263       2.56875955       2.08773039
6
Lattice="3.419140785409495 -0.8828858022080629 0.19376029800410857 -2.0279309942376944 5.143167721895715 -0.03179120078535526 -0.2240349726488052 -0.7263713698206146 8.717552802180618" Properties=species:S:1:pos:R:3 unique_starting_index=56 config_type=initial n_minim_iter=16 stress="0.012251695045522969 -0.0028841576711156696 -0.00020669140360170645 -0.0028841576711156696 0.02721776814878097 -0.0028337477254950505 -0.00020669140360170645 -0.0028337477254950505 0.011635006562872197" pbc="T T T"
Si      -0.85497231       3.68686607       6.78600099
Si       0.10899974       3.49534487       0.14651165
Si      -1.52764661       4.15221145       1.67974453
Si       0.55408249       2.08644886       6.83056550
Si       2.00952395       0.53617630       6.47968574
Si      -0.11993347       2.63614107       2.10284170
6
Lattice="3.4265773203288434 -0.8910085393704636 0.19779876116142456 -2.0434177713290467 5.150463882545401 -0.02479413695664555 -0.20619562667993016 -0.7091400925763577 8.683422999812185" Properties=species:S:1:pos:R:3 unique_starting_index=56 config_type=initial n_minim_iter=17 stress="0.015512839812722234 -0.0051845329548487855 0.0028775935618410324 -0.0051845329548487855 0.027748192944322923 0.005121751540661841 0.0028775935618410324 0.005121751540661841 -0.005941810333878998" pbc="T T T"
Si      -0.84869733       3.70022733       6.76428246
Si       0.09892747       3.49194051       0.15950199
Si      -1.53621674       4.15940747       1.67640000
Si       0.56281415       2.10000310       6.80874928
Si       2.02183566       0.54839410       6.45999737
Si      -0.12352442       2.64817033       2.10292198
6
Lattice="3.463902226551666 -0.9106841591540126 0.2011460318462337 -2.10101544660284 5.118030658139395 -0.04644721933904822 -0.20208450325849509 -0.7301862671666448 8.696813341312845" Properties=species:S:1:pos:R:3 unique_starting_index=56 config_type=initial n_minim_iter=18 stress="0.040832821225578665 -0.02116210748681801 0.0060199584868164645 -0.02116210748681801 0.039630478366916876 -0.00279516032270222 0.0060199584868164645 -0.00279516032270222 0.005021185227144055" pbc="T T T"
Si      -0.87602479       3.63751208       6.74881402
Si       0.07548446       3.44010493       0.15220514
Si      -1.59091503       4.13561683       1.65311693
Si       0.55140004       2.05385967       6.80517159
Si       2.03241332       0.51898361       6.46284660
Si      -0.14161422       2.62136692       2.10688852
6
Lattice="3.468050967049014 -0.9178752249865585 0.17864249757348816 -2.121740749973482 5.080629427404221 -0.029090109686118436 -0.25874059282922096 -0.704095018148725 8.729464228166092" Properties=species:S:1:pos:R:3 unique_starting_index=56 config_type=initial n_minim_iter=19 stress="-0.006531905204016158 0.010926588441676873 -0.0021893060488391027 0.010926588441676873 -0.01193491227691786 0.004715377236001551 -0.0021893060488391027 0.004715377236001551 0.007415873382199594" pbc="T T T"
Si      -0.92037500       3.61723187       6.76366002
Si       0.05671825       3.37586094       0.17032600
Si      -1.62042299       4.09801070       1.65409808
Si       0.49798720       2.04634907       6.82673985
Si       1.98178904       0.52914734       6.46039261
Si      -0.17186013       2.64072803       2.15355136
6
Lattice="3.482864450624377 -0.9338885112919839 0.19432954806388392 -2.1563643821354077 5.073438175618177 -0.07297121016724416 -0.2237803817261016 -0.7691681008180067 8.642867190030072" Properties=species:S:1:pos:R:3 unique_starting_index=56 config_type=initial n_minim_iter=20 stress="0.010337702961861064 -0.006380231254929445 0.0005020542533573088 -0.006380231254929445 0.002025854094762444 0.002963002090615537 0.0005020542533573088 0.002963002090615537 -0.01279638475655362" pbc="T T T"
Si      -0.91579268       3.54894579       6.64921841
Si       0.03599920       3.33526931       0.15100052
Si      -1.64031603       4.08455303       1.58468893
Si       0.51613381       1.97926443       6.74669454
Si       2.00749837       0.48075614       6.38552190
Si      -0.18644832       2.63061804       2.13989617
6
Lattice="3.4892889662464195 -0.9417942209401781 0.20652296980037443 -2.174225629720841 5.0662624119117226 -0.0917710942406582 -0.191218150232876 -0.789809460898914 8.603782020382944" Properties=species:S:1:pos:R:3 unique_starting_index=56 config_type=initial n_minim_iter=21 stress="0.004379408686343305 -0.0043838441377094094 -0.00041057416207689073 -0.0043838441377094094 0.0009075809112187307 -0.005619319989476898 -0.00041057416207689073 -0.005619319989476898 0.0066262119737615565" pbc="T T T"
Si      -0.89956927       3.51922968       6.59233305
Si       0.02244514       3.30365742       0.14397039
Si      -1.64941197       4.07261188       1.54967302
Si       0.53461855       1.95327624       6.71522284
Si       2.03152304       0.46475396       6.35012458
Si      -0.18982814       2.63990282       2.15547634
