20
Lattice="9.361119657489219 0.5241473039613772 1.5459397010470213 -1.7393905802225964 8.81052197450784 -0.01929611748708959 -2.781897379462195 -3.688404602318083 5.918635616953369" Properties=species:S:1:pos:R:3 unique_starting_index=76 config_type=initial n_minim_iter=1 energy=-3270.697158405971 free_energy=-3270.697158405971 pbc="T T T"
Si       6.07967255       0.82731124       5.09088902
Si      -2.99749018      -0.23222026       5.59073980
Si       4.43808436       0.33558429       2.12452594
Si       0.42488567       2.94968449       1.64819608
Si       8.86735266       6.02621727       0.65888329
Si       4.70180988       2.42831309       4.89964842
Si      -3.74109252       7.49181522       3.99437441
Si      -1.44759643       0.77412994       4.51261596
Si       6.03464226      -0.36461241       3.36530075
Si      -0.96328090      -0.84853427       5.82042410
Si       4.17868711       0.44733508       4.23335308
Si       2.47602317       3.48827858       1.82221997
Si       1.55253274       2.88568958       3.62992013
Si      -1.37851270       2.75573052       5.37174233
Si       1.14801545       4.73410458       0.69183131
Si       0.84075150       4.70580266       2.80841766
Si       3.15090780       1.62226270       1.03411989
Si       3.51491991       2.11486630       3.10772897
Si       0.16079454       4.11680955       4.75269936
Si       0.32014941       5.86416048       5.94570567
20
Lattice="9.362821182520353 0.5245272427205996 1.5475320447118257 -1.73907300559972 8.810235369337013 -0.020890949801722892 -2.781599597058211 -3.6893960149192875 5.9192965324866815" Properties=species:S:1:pos:R:3 unique_starting_index=76 config_type=initial n_minim_iter=2 stress="0.0012343631557889484 -7.69779211683815e-05 0.0005426864229430002 -7.69779211683815e-05 0.0009414413904104552 -0.00046552941372054275 0.0005426864229430002 -0.00046552941372054275 0.001217000338039309" pbc="T T T"
Si       6.08155113       0.82682956       5.09219623
Si      -2.99698764      -0.23312496       5.59088395
Si       4.43909981       0.33556509       2.12529308
Si       0.42524055       2.94943567       1.64789735
Si       8.86924045       6.02649636       0.65953315
Si       4.70346697       2.42791952       4.90053558
Si      -3.74054515       7.49086929       3.99289615
Si      -1.44699363       0.77338929       4.51286485
Si       6.03597898      -0.36472017       3.36661637
Si      -0.96257428      -0.84946766       5.82093294
Si       4.18002125       0.44697431       4.23438898
Si       2.47698780       3.48832975       1.82234192
Si       1.55352027       2.88515923       3.63028820
Si      -1.37762744       2.75480382       5.37155801
Si       1.14862873       4.73381965       0.69144364
Si       0.84152028       4.70539980       2.80802766
Si       3.15170097       1.62215207       1.03449922
Si       3.51620335       2.11455846       3.10827222
Si       0.16200108       4.11608264       4.75246192
Si       0.32149055       5.86312879       5.94551924
20
Lattice="9.362202479891678 0.5252375624829215 1.5480619790530694 -1.7380112005913873 8.807931144374244 -0.02180153040772936 -2.7812270860506922 -3.689306638933802 5.918458040863358" Properties=species:S:1:pos:R:3 unique_starting_index=76 config_type=initial n_minim_iter=3 stress="0.00012710645747278067 0.0005792638192038586 0.0004789678335605531 0.0005792638192038586 -0.001071990410876861 -0.0004987866106319701 0.0004789678335605531 -0.0004987866106319701 -0.0008071601453966798" pbc="T T T"
Si       6.08168718       0.82663598       5.09179904
Si      -2.99614739      -0.23365191       5.58989302
Si       4.43890400       0.33577538       2.12514614
Si       0.42538194       2.94868394       1.64726793
Si       8.86922882       6.02575410       0.65974830
Si       4.70372811       2.42751140       4.90000605
Si      -3.73914452       7.48840958       3.99108069
Si      -1.44635772       0.77270891       4.51225667
Si       6.03553036      -0.36431706       3.36657138
Si      -0.96213333      -0.84991144       5.81999463
Si       4.18006655       0.44695063       4.23409013
Si       2.47735425       3.48795785       1.82208814
Si       1.55396233       2.88426920       3.62991754
Si      -1.37669410       2.75353806       5.37027898
Si       1.14910879       4.73247638       0.69112341
Si       0.84196712       4.70417964       2.80710354
Si       3.15174187       1.62178183       1.03448517
Si       3.51657320       2.11407897       3.10790187
Si       0.16304796       4.11477099       4.75120401
Si       0.32248551       5.86114530       5.94423602
20
Lattice="9.360006068243882 0.524280390118832 1.5471802767555933 -1.7388223543446977 8.809567063108043 -0.02041720217999921 -2.7809015093356053 -3.6887396235994947 5.919154830001559" Properties=species:S:1:pos:R:3 unique_starting_index=76 config_type=initial n_minim_iter=4 stress="-0.0003968984630262952 0.0002428553649413574 -0.00010612338549545258 0.0002428553649413574 -2.333207332487677e-06 -1.795817772354304e-05 -0.00010612338549545258 -1.795817772354304e-05 0.00018857943325284492" pbc="T T T"
Si       6.07988889       0.82635727       5.09173217
Si      -2.99603661      -0.23221755       5.59123724
Si       4.43764799       0.33551826       2.12465154
Si       0.42426401       2.94940790       1.64758771
Si       8.86661813       6.02541955       0.65964837
Si       4.70180578       2.42814502       4.90049767
Si      -3.73987962       7.49071868       3.99271904
Si      -1.44667433       0.77365923       4.51356519
Si       6.03356666      -0.36476866       3.36607543
Si      -0.96260642      -0.84930612       5.82078324
Si       4.17862990       0.44704746       4.23431069
Si       2.47618299       3.48904818       1.82274989
Si       1.55277242       2.88494516       3.63110736
Si      -1.37733014       2.75487835       5.37146137
Si       1.14821125       4.73285341       0.69188666
Si       0.84043896       4.70532371       2.80777188
Si       3.15077301       1.62140569       1.03444747
Si       3.51550312       2.11427473       3.10816346
Si       0.16221601       4.11612810       4.75208915
Si       0.32075500       5.86269848       5.94603041
20
Lattice="9.361217679360244 0.5228067823888478 1.5471877869764306 -1.7405146332352721 8.809727594900817 -0.019985995377843607 -2.7805481654069157 -3.687915376592347 5.918100074995196" Properties=species:S:1:pos:R:3 unique_starting_index=76 config_type=initial n_minim_iter=5 stress="0.00022960088024320962 -0.00031736485945418555 0.00021448649603500453 -0.00031736485945418555 0.00014131087439271046 0.00019170299784346658 0.00021448649603500453 0.00019170299784346658 -0.0006796340985764794" pbc="T T T"
Si       6.08072478       0.82557398       5.09112867
Si      -2.99631256      -0.23134845       5.59040906
Si       4.43823523       0.33485710       2.12437830
Si       0.42366876       2.94942266       1.64746720
Si       8.86685279       6.02382638       0.66009320
Si       4.70217105       2.42768042       4.90011133
Si      -3.74147845       7.49143293       3.99232731
Si      -1.44683736       0.77414121       4.51312205
Si       6.03430746      -0.36561169       3.36561997
Si      -0.96243197      -0.84898392       5.81997868
Si       4.17920520       0.44657570       4.23386193
Si       2.47596070       3.48879158       1.82294890
Si       1.55263170       2.88491062       3.63090812
Si      -1.37777538       2.75527137       5.37086276
Si       1.14767654       4.73270629       0.69210108
Si       0.83962331       4.70526392       2.80754498
Si       3.15082678       1.62090272       1.03448551
Si       3.51585489       2.11381419       3.10785920
Si       0.16182556       4.11636609       4.75152647
Si       0.31990049       5.86276575       5.94562344
20
Lattice="9.361204556058668 0.522135452067212 1.545849737073869 -1.7409571044966665 8.807257431942485 -0.02026373529008615 -2.781552636141142 -3.6871213774571183 5.920415827635621" Properties=species:S:1:pos:R:3 unique_starting_index=76 config_type=initial n_minim_iter=6 stress="0.0005565212925551054 2.3913857996738523e-06 -0.00023402032070990306 2.3913857996738523e-06 -0.0008112556209061023 0.0003345798692580123 -0.00023402032070990306 0.0003345798692580123 0.0003385300212451562" pbc="T T T"
Si       6.08004376       0.82473821       5.09104453
Si      -2.99755774      -0.23144784       5.59233091
Si       4.43796398       0.33428702       2.12386212
Si       0.42271091       2.94854650       1.64755843
Si       8.86676718       6.02145253       0.65832917
Si       4.70151567       2.42664072       4.90060014
Si      -3.74243567       7.48916020       3.99306917
Si      -1.44750932       0.77371025       4.51486169
Si       6.03320531      -0.36609064       3.36508161
Si      -0.96332834      -0.84961338       5.82198841
Si       4.17854447       0.44597768       4.23423695
Si       2.47545436       3.48765283       1.82333859
Si       1.55209304       2.88407930       3.63169353
Si      -1.37860587       2.75395103       5.37240099
Si       1.14771451       4.73160315       0.69192302
Si       0.83827637       4.70359165       2.80751572
Si       3.15015049       1.62036407       1.03420507
Si       3.51577033       2.11285503       3.10764759
Si       0.16130706       4.11509159       4.75210801
Si       0.31840828       5.86030454       5.94698674
20
Lattice="9.358459913448176 0.5216886330228208 1.545552074965009 -1.7406340988277829 8.80880457262192 -0.022198858705979287 -2.780769231566626 -3.6890146772373056 5.921179398140953" Properties=species:S:1:pos:R:3 unique_starting_index=76 config_type=initial n_minim_iter=7 stress="-0.0002345212418081511 -0.0002399322257124497 -0.0001780300245014739 -0.0002399322257124497 -1.1948981928897352e-05 -0.0004775044180916835 -0.0001780300245014739 -0.0004775044180916835 -0.0001481223740893345" pbc="T T T"
Si       6.07828012       0.82368553       5.09048281
Si      -2.99684042      -0.23273769       5.59217084
Si       4.43659230       0.33368037       2.12350398
Si       0.42211968       2.94875847       1.64681405
Si       8.86406648       6.02206457       0.65687412
Si       4.70022118       2.42602926       4.90009163
Si      -3.74136019       7.48964277       3.99105534
Si      -1.44701013       0.77281561       4.51490676
Si       6.03084136      -0.36711230       3.36472865
Si      -0.96310342      -0.85138834       5.82227779
Si       4.17724669       0.44499036       4.23398116
Si       2.47444662       3.48779008       1.82295780
Si       1.55176009       2.88401882       3.63115978
Si      -1.37802320       2.75319801       5.37172889
Si       1.14758110       4.73249034       0.69100380
Si       0.83734972       4.70368451       2.80615942
Si       3.14882034       1.62042213       1.03392687
Si       3.51501240       2.11250429       3.10684657
Si       0.16149833       4.11487775       4.75080294
Si       0.31794475       5.85974057       5.94582455
20
Lattice="9.357881151761129 0.5228668904307716 1.546302143937301 -1.7395559182540836 8.809356221063767 -0.021557721418645107 -2.7805384848516628 -3.689110374807461 5.9209165564032515" Properties=species:S:1:pos:R:3 unique_starting_index=76 config_type=initial n_minim_iter=8 stress="-0.0001569630619552429 0.00036415875894113287 0.00026346310459821276 0.00036415875894113287 0.00025094103559347345 0.0002903275817332622 0.00026346310459821276 0.0002903275817332622 -0.00010219554658686334" pbc="T T T"
Si       6.07834780       0.82490477       5.09108251
Si      -2.99625777      -0.23269620       5.59200979
Si       4.43631993       0.33432498       2.12379845
Si       0.42226247       2.94924468       1.64710325
Si       8.86403282       6.02353794       0.65806357
Si       4.70059278       2.42725959       4.90096915
Si      -3.73983184       7.49025720       3.99141312
Si      -1.44635099       0.77296725       4.51527469
Si       6.03018269      -0.36629353       3.36507385
Si      -0.96280951      -0.85117808       5.82246071
Si       4.17717099       0.44583111       4.23438688
Si       2.47457953       3.48846998       1.82377522
Si       1.55238437       2.88499277       3.63177678
Si      -1.37695488       2.75377730       5.37212635
Si       1.14829280       4.73323138       0.69163465
Si       0.83761576       4.70433487       2.80660669
Si       3.14861887       1.62097627       1.03448114
Si       3.51541945       2.11336185       3.10727328
Si       0.16247752       4.11568652       4.75117763
Si       0.31883269       5.86067319       5.94682439
20
Lattice="9.35738057741132 0.5194310806771141 1.5439867515893475 -1.742331448450447 8.80744309300583 -0.023091464128202184 -2.7811361952084903 -3.6885733863096153 5.924587473486422" Properties=species:S:1:pos:R:3 unique_starting_index=76 config_type=initial n_minim_iter=9 stress="-3.432310472231812e-05 -8.6647654782728e-05 9.133046370961737e-05 -8.6647654782728e-05 -5.911017911109941e-05 1.3163225235814668e-05 9.133046370961737e-05 1.3163225235814668e-05 0.0001585192750298869" pbc="T T T"
Si       6.07738255       0.82196547       5.09055880
Si      -2.99761872      -0.23345881       5.59403526
Si       4.43488694       0.33226743       2.12261945
Si       0.41987735       2.94817336       1.64648623
Si       8.86197436       6.01886231       0.65448850
Si       4.69905607       2.42432214       4.90125826
Si      -3.74253860       7.48867881       3.99148773
Si      -1.44719859       0.77116002       4.51802723
Si       6.02793501      -0.36936128       3.36391346
Si      -0.96509360      -0.85194909       5.82512176
Si       4.17530151       0.44353247       4.23385412
Si       2.47217336       3.48600701       1.82343689
Si       1.55129150       2.88404229       3.63251756
Si      -1.37788171       2.75252908       5.37385110
Si       1.14761314       4.73180216       0.69069221
Si       0.83379363       4.70167626       2.80568739
Si       3.14719534       1.61904700       1.03448046
Si       3.51503538       2.11112815       3.10638070
Si       0.16049863       4.11340351       4.75127110
Si       0.31470359       5.85715949       5.94843133
20
Lattice="9.358387923019851 0.5195853779769888 1.541474602828189 -1.7423509081134703 8.808411228356166 -0.023524556241505894 -2.783192414026091 -3.6896671781906134 5.92561072319327" Properties=species:S:1:pos:R:3 unique_starting_index=76 config_type=initial n_minim_iter=10 stress="0.0006098147558856388 0.0003702021104663229 -0.0004994164214370746 0.0003702021104663229 0.000520440350143688 -0.00012167139947109933 -0.0004994164214370746 -0.00012167139947109933 -0.00029174876075695866" pbc="T T T"
Si       6.07723926       0.82175535       5.08863431
Si      -2.99933749      -0.23434215       5.59441155
Si       4.43442780       0.33213722       2.12133726
Si       0.41900289       2.94839904       1.64550705
Si       8.86354609       6.01977151       0.65176412
Si       4.69878554       2.42430261       4.89989799
Si      -3.74361544       7.48927339       3.99129717
Si      -1.44815853       0.77058962       4.51870148
Si       6.02736354      -0.36991090       3.36218015
Si      -0.96697247      -0.85282052       5.82603863
Si       4.17463199       0.44337565       4.23213177
Si       2.47184607       3.48607735       1.82225366
Si       1.55126429       2.88464028       3.63217966
Si      -1.37878423       2.75213001       5.37405585
Si       1.14804407       4.73242367       0.68976401
Si       0.83261320       4.70183438       2.80476747
Si       3.14707287       1.61904863       1.03369612
Si       3.51520795       2.11148533       3.10517981
Si       0.15966554       4.11339354       4.75062534
Si       0.31297192       5.85725415       5.94831161
20
Lattice="9.356121467663305 0.5169485629958476 1.5421635915046896 -1.7442469929840292 8.807430336487052 -0.02419673695945948 -2.781459690618833 -3.6887624935075847 5.92781917961604" Properties=species:S:1:pos:R:3 unique_starting_index=76 config_type=initial n_minim_iter=11 stress="-3.309985218931497e-05 -7.127843333147059e-05 9.454508020723805e-05 -7.127843333147059e-05 0.00010732547256509508 -2.669035392865465e-05 9.454508020723805e-05 -2.669035392865465e-05 0.00025451214724900116" pbc="T T T"
Si       6.07605133       0.81971306       5.09010176
Si      -2.99812331      -0.23415330       5.59561981
Si       4.43240773       0.33062550       2.12208682
Si       0.41733150       2.94774589       1.64495861
Si       8.86052494       6.01648434       0.65212777
Si       4.69753186       2.42237348       4.90170190
Si      -3.74415025       7.48914926       3.99147739
Si      -1.44732132       0.77034928       4.52071462
Si       6.02529895      -0.37220830       3.36330582
Si      -0.96670902      -0.85315779       5.82906420
Si       4.17341459       0.44210113       4.23279510
Si       2.46988828       3.48436630       1.82250044
Si       1.55128853       2.88446776       3.63378494
Si      -1.37812961       2.75134093       5.37597171
Si       1.14692165       4.73145422       0.68947811
Si       0.83021187       4.70045738       2.80512108
Si       3.14539955       1.61759858       1.03421862
Si       3.51442007       2.11062891       3.10617505
Si       0.15901526       4.11232080       4.75183292
Si       0.31085389       5.85585478       5.95088657
20
Lattice="9.35633309610449 0.5145317828735417 1.5392876442539893 -1.7463787638515826 8.80704499568778 -0.025133362597158038 -2.782894074016909 -3.688833694734269 5.930903649883162" Properties=species:S:1:pos:R:3 unique_starting_index=76 config_type=initial n_minim_iter=12 stress="8.58851622944227e-05 -8.704162619392634e-05 1.2671752509812742e-05 -8.704162619392634e-05 7.111727224647163e-05 -4.189760664952465e-05 1.2671752509812742e-05 -4.189760664952465e-05 0.00018484370313070724" pbc="T T T"
Si       6.07485878       0.81742883       5.08864048
Si      -2.99995844      -0.23455656       5.59642397
Si       4.43017155       0.32870059       2.12145250
Si       0.41463489       2.94709411       1.64300685
Si       8.86125399       6.01364879       0.64897799
Si       4.69638988       2.42000213       4.90117278
Si      -3.74650672       7.48967973       3.99201186
Si      -1.44803439       0.76950453       4.52266062
Si       6.02348667      -0.37515111       3.36215828
Si      -0.96952222      -0.85485272       5.83139588
Si       4.17233391       0.44085194       4.23100380
Si       2.46811596       3.48278876       1.82195510
Si       1.55181135       2.88539366       3.63432808
Si      -1.37916704       2.75004743       5.37786941
Si       1.14577217       4.73038349       0.68924042
Si       0.82674865       4.69879956       2.80393191
Si       3.14408343       1.61580030       1.03332304
Si       3.51370435       2.11070178       3.10548039
Si       0.15718637       4.11167311       4.75259345
Si       0.30632312       5.85428321       5.95266163
20
Lattice="9.35541394856707 0.5139077370882453 1.538576503338153 -1.7468318555280038 8.80856329180952 -0.02541801515850205 -2.782949022605185 -3.689526151701431 5.931891433093138" Properties=species:S:1:pos:R:3 unique_starting_index=76 config_type=initial n_minim_iter=13 stress="-6.422324311391195e-06 -4.896362000878397e-05 3.539765871534944e-06 -4.896362000878397e-05 7.409794185768656e-05 -4.854673179416432e-05 3.539765871534944e-06 -4.854673179416432e-05 0.00014067145031168373" pbc="T T T"
Si       6.07418471       0.81700910       5.08844175
Si      -3.00046291      -0.23471508       5.59601276
Si       4.42860260       0.32767577       2.12154170
Si       0.41400626       2.94724070       1.64224583
Si       8.86110254       6.01371005       0.64807861
Si       4.69587023       2.41968747       4.90130327
Si      -3.74662455       7.49161742       3.99181379
Si      -1.44810008       0.76915328       4.52381487
Si       6.02208224      -0.37639365       3.36217045
Si      -0.97037955      -0.85578354       5.83160211
Si       4.17174891       0.44083369       4.23056465
Si       2.46728915       3.48299889       1.82157357
Si       1.55205039       2.88704278       3.63550815
Si      -1.37875493       2.74988794       5.37908355
Si       1.14497312       4.73087810       0.68849686
Si       0.82529611       4.69886738       2.80390889
Si       3.14291959       1.61558541       1.03326592
Si       3.51323473       2.11142875       3.10527446
Si       0.15712947       4.11267933       4.75292314
Si       0.30471631       5.85505570       5.95346326
20
Lattice="9.355338953424937 0.512694531816551 1.5384389803566538 -1.7480851206982635 8.809940304029523 -0.025124125443041465 -2.782522871100448 -3.6894255908128994 5.931779855864424" Properties=species:S:1:pos:R:3 unique_starting_index=76 config_type=initial n_minim_iter=14 stress="-2.0387181921845735e-05 -2.9437673729945615e-05 1.7929027261518188e-05 -2.9437673729945615e-05 -7.696923233868018e-05 1.4850500613646513e-05 1.7929027261518188e-05 1.4850500613646513e-05 1.672200338706478e-05" pbc="T T T"
Si       6.07446453       0.81685216       5.08795551
Si      -3.00133628      -0.23462755       5.59509575
Si       4.42705180       0.32596011       2.12157983
Si       0.41375734       2.94739284       1.64113577
Si       8.86161703       6.01291522       0.64788057
Si       4.69621396       2.41931324       4.90166277
Si      -3.74734313       7.49393961       3.99050355
Si      -1.44779465       0.76923748       4.52407035
Si       6.02125980      -0.37805406       3.36256205
Si      -0.97049998      -0.85632694       5.83133440
Si       4.17171541       0.44145330       4.23021029
Si       2.46601508       3.48301322       1.82105820
Si       1.55293469       2.88954693       3.63727368
Si      -1.37736018       2.75047294       5.38017542
Si       1.14346888       4.73034357       0.68881613
Si       0.82353675       4.69877177       2.80356541
Si       3.14142632       1.61539197       1.03383483
Si       3.51334057       2.11193817       3.10512545
Si       0.15715089       4.11418898       4.75355414
Si       0.30288382       5.85628655       5.95420148
20
Lattice="9.354647316147881 0.5125283326989452 1.5377160024207286 -1.7481717916051116 8.811312925912548 -0.025224674172609082 -2.782701338013956 -3.6900752515483726 5.931953988536327" Properties=species:S:1:pos:R:3 unique_starting_index=76 config_type=initial n_minim_iter=15 stress="-9.714057629923415e-05 5.129582842726276e-05 -1.3668376310980952e-05 5.129582842726276e-05 -0.00012952334078208271 2.62463676102519e-05 -1.3668376310980952e-05 2.62463676102519e-05 -0.0001334850396020351" pbc="T T T"
Si       6.07416438       0.81727948       5.08658968
Si      -3.00211711      -0.23574968       5.59496440
Si       4.42515888       0.32460111       2.12093324
Si       0.41341122       2.94708300       1.64002670
Si       8.86232690       6.01347809       0.64659947
Si       4.69627823       2.41956041       4.90161602
Si      -3.74725345       7.49563825       3.98877626
Si      -1.44747480       0.76921432       4.52402269
Si       6.01967166      -0.37899778       3.36254344
Si      -0.97136711      -0.85689973       5.83066650
Si       4.17115315       0.44252466       4.23000862
Si       2.46545912       3.48319273       1.82085147
Si       1.55437805       2.89184452       3.63846946
Si      -1.37597809       2.75001313       5.38133572
Si       1.14215089       4.73041643       0.68812270
Si       0.82211584       4.69911544       2.80269275
Si       3.14026299       1.61520957       1.03453323
Si       3.51322464       2.11256648       3.10457624
Si       0.15705443       4.11548179       4.75427406
Si       0.30132290       5.85767667       5.95447874
20
Lattice="9.355036913957235 0.5119538943932386 1.5368823699332719 -1.7488202741435688 8.812055249741983 -0.025251352184603372 -2.782997976042293 -3.6902591962441833 5.931290476905075" Properties=species:S:1:pos:R:3 unique_starting_index=76 config_type=initial n_minim_iter=16 stress="-6.932148025424495e-05 4.699001643184805e-05 -2.9632828334247124e-05 4.699001643184805e-05 -9.582931993622293e-05 2.645233164096693e-05 -2.9632828334247124e-05 2.645233164096693e-05 -0.00019228964690147136" pbc="T T T"
Si       6.07514781       0.81735433       5.08469588
Si      -3.00292881      -0.23643127       5.59309543
Si       4.42425513       0.32279865       2.12029410
Si       0.41290444       2.94599619       1.63992915
Si       8.86395073       6.01282555       0.64547647
Si       4.69647686       2.42027536       4.90089777
Si      -3.74798998       7.49682693       3.98693897
Si      -1.44761159       0.76926407       4.52276047
Si       6.01846470      -0.37972952       3.36183341
Si      -0.97191213      -0.85706667       5.82957626
Si       4.17075336       0.44317553       4.22949559
Si       2.46514837       3.48346065       1.82009732
Si       1.55598275       2.89351598       3.63908632
Si      -1.37509339       2.74941630       5.38143144
Si       1.14106080       4.72993247       0.68784956
Si       0.82058094       4.69909221       2.80166835
Si       3.13927345       1.61479067       1.03484484
Si       3.51357425       2.11275493       3.10391857
Si       0.15650655       4.11610792       4.75430428
Si       0.29971389       5.85916213       5.95392228
20
Lattice="9.355957788638959 0.511683283480584 1.5363660561408323 -1.7493047811344753 8.812203724378811 -0.02493977208229704 -2.783387759503321 -3.69003755316649 5.9305874135627485" Properties=species:S:1:pos:R:3 unique_starting_index=76 config_type=initial n_minim_iter=17 stress="-3.8521524508347026e-05 4.084212662480939e-05 -5.062732235687019e-05 4.084212662480939e-05 -2.46727866826887e-05 2.956337369870967e-05 -5.062732235687019e-05 2.956337369870967e-05 -0.00021285029219315346" pbc="T T T"
Si       6.07553912       0.81799417       5.08264152
Si      -3.00321687      -0.23682014       5.59183987
Si       4.42378947       0.32155778       2.11988365
Si       0.41273375       2.94511917       1.64008344
Si       8.86583065       6.01215835       0.64508373
Si       4.69712604       2.42107858       4.90050929
Si      -3.74841000       7.49718632       3.98603740
Si      -1.44738479       0.76937374       4.52202904
Si       6.01787535      -0.37994701       3.36126418
Si      -0.97227172      -0.85684661       5.82863268
Si       4.17091436       0.44365800       4.22946818
Si       2.46499018       3.48374299       1.81960117
Si       1.55728952       2.89490980       3.63968819
Si      -1.37456270       2.74920415       5.38128318
Si       1.14040568       4.72904584       0.68768384
Si       0.81945867       4.69873387       2.80160238
Si       3.13859811       1.61444964       1.03504397
Si       3.51415169       2.11313635       3.10353931
Si       0.15625735       4.11660693       4.75430164
Si       0.29870777       5.86041431       5.95350868
20
Lattice="9.358342391551908 0.5112536266989348 1.5359660123879855 -1.7501935131618223 8.811573780246327 -0.024471336409989056 -2.784060687162023 -3.6893135117325015 5.92961917801012" Properties=species:S:1:pos:R:3 unique_starting_index=76 config_type=initial n_minim_iter=18 stress="4.192948056791581e-05 -1.6867165967216156e-05 -1.0330786651355536e-05 -1.6867165967216156e-05 9.94790754117201e-05 -2.4160977169029418e-05 -1.0330786651355536e-05 -2.4160977169029418e-05 0.00010705278826958417" pbc="T T T"
Si       6.07805547       0.81847811       5.08042320
Si      -3.00304114      -0.23773847       5.59066690
Si       4.42292559       0.32046408       2.11937618
Si       0.41309119       2.94419701       1.63995886
Si       8.86918062       6.01071964       0.64524081
Si       4.69876941       2.42212993       4.90022740
Si      -3.74972862       7.49751793       3.98515156
Si      -1.44750682       0.76917275       4.52065938
Si       6.01815517      -0.38019706       3.36076396
Si      -0.97224895      -0.85700727       5.82729905
Si       4.17141981       0.44373562       4.22970247
Si       2.46492936       3.48343508       1.81951372
Si       1.55911960       2.89612553       3.64086021
Si      -1.37449572       2.74899956       5.38059087
Si       1.13971266       4.72803341       0.68761493
Si       0.81785909       4.69782171       2.80181865
Si       3.13796274       1.61364802       1.03533581
Si       3.51541496       2.11391874       3.10310128
Si       0.15624109       4.11730400       4.75449516
Si       0.29764103       5.86137673       5.95243661
20
Lattice="9.360964539242508 0.5109049315361278 1.5358898342479221 -1.7510475603461095 8.810631507837332 -0.023916934459669238 -2.7845213806724893 -3.688371640836038 5.927911246185566" Properties=species:S:1:pos:R:3 unique_starting_index=76 config_type=initial n_minim_iter=19 stress="3.834636952649226e-05 -6.12206182699871e-05 5.633724875366129e-05 -6.12206182699871e-05 0.00010297389489455427 -5.6374890182044064e-05 5.633724875366129e-05 -5.6374890182044064e-05 0.00034218075754502387" pbc="T T T"
Si       6.08018873       0.81950489       5.07822345
Si      -3.00301992      -0.23846645       5.58842271
Si       4.42203958       0.31969329       2.11939920
Si       0.41388969       2.94331926       1.63982141
Si       8.87249176       6.00873750       0.64619081
Si       4.70121891       2.42232774       4.89962589
Si      -3.75082862       7.49736767       3.98373648
Si      -1.44755194       0.76912679       4.51913159
Si       6.01861112      -0.38025834       3.35991922
Si      -0.97170170      -0.85708698       5.82514956
Si       4.17271258       0.44454676       4.22966456
Si       2.46512481       3.48295204       1.81937412
Si       1.56086081       2.89654375       3.64251912
Si      -1.37454380       2.74909513       5.37874681
Si       1.13961481       4.72778096       0.68761471
Si       0.81646788       4.69733932       2.80098102
Si       3.13779795       1.61237746       1.03563505
Si       3.51727669       2.11444810       3.10317927
Si       0.15617641       4.11737169       4.75473405
Si       0.29672874       5.86265965       5.95106582
20