22
Lattice="5.386933889898323 0.3412272139758025 0.7054509860545369 2.93090556965624 6.794847058508562 1.3312774501334712 2.912504052577418 3.03805315468783 15.384957077983277" Properties=species:S:1:pos:R:3 unique_starting_index=40 config_type=initial n_minim_iter=1 energy=-3591.1465014857718 free_energy=-3591.1465014857718 pbc="T T T"
Si       9.40495663       4.94668669      12.96162343
Si       2.97907789       2.24424244       4.25087863
Si       5.60595310       2.30552209       7.58357729
Si       5.90166008       6.49396627      14.44891870
Si       7.06793764       4.97252996      15.37000281
Si       6.69997987       8.01996261       8.84837384
Si       5.50383275       4.18197883       2.40775687
Si       6.11985598       6.77093087      10.45959981
Si       4.15897227       3.89565524       0.79245820
Si       5.80822716       8.42267577      15.34426289
Si       5.59965827       4.71705868      10.82177298
Si       5.47615313       6.15891461      12.39051520
Si       2.09290921       3.45860716       0.98773109
Si       1.75032837       1.27089238       8.18987484
Si       4.49234904       2.17810043      15.33739101
Si       8.03767062       7.73879040      10.47793550
Si       4.69005468       3.76672386       4.32435076
Si       5.17815476       8.77426738       7.56265518
Si       4.83817860       5.93599089       3.39686670
Si       5.65904189       2.95986734       9.63086253
Si       8.89270144       3.99668181      14.84798316
Si       4.32531611       2.39861264       5.87990761
22
Lattice="5.386715465651287 0.34115464918642546 0.7045880520072417 2.9306937116322698 6.793914699613289 1.330111329815047 2.9099918645616754 3.035956657071754 15.385120877215316" Properties=species:S:1:pos:R:3 unique_starting_index=40 config_type=initial n_minim_iter=2 stress="-0.0001780399704792445 0.0002158047912873846 -0.000786266253360776 0.0002158047912873846 -0.0010465008386616951 -0.00045246382938104204 -0.000786266253360776 -0.00045246382938104204 0.00041587125873173754" pbc="T T T"
Si       9.40281134       4.94487192      12.96034460
Si       2.97800347       2.24342997       4.25027391
Si       5.60442444       2.30441147       7.58276708
Si       5.89928540       6.49118162      14.44798682
Si       7.06547078       4.97036450      15.36918263
Si       6.69846271       8.01801372       8.84681214
Si       5.50330312       4.18127049       2.40641045
Si       6.11799589       6.76904881      10.45850849
Si       4.15881292       3.89513603       0.79135807
Si       5.80579785       8.42012876      15.34352933
Si       5.59801446       4.71546262      10.82099912
Si       5.47393304       6.15675052      12.38990579
Si       2.09277771       3.45802825       0.98706462
Si       1.74890502       1.26981991       8.19018181
Si       4.48979761       2.17602636      15.33742980
Si       8.03584819       7.73670537      10.47649938
Si       4.68929631       3.76589765       4.32349798
Si       5.17717200       8.77246491       7.56112292
Si       4.83761386       5.93487033       3.39555598
Si       5.65747810       2.95837805       9.63008160
Si       8.89012249       3.99469718      14.84720659
Si       4.32452926       2.39776759       5.87960723
22
Lattice="5.38697008727187 0.34092511479571375 0.7050758974751066 2.9305191437334357 6.7953057867915225 1.3305391234548025 2.9114229734914603 3.0369981322177297 15.384390935007005" Properties=species:S:1:pos:R:3 unique_starting_index=40 config_type=initial n_minim_iter=3 stress="0.0005817929028314637 -4.3471537042966405e-06 -0.00016492494095615067 -4.3471537042966405e-06 0.000675915496059561 2.6263172414797794e-05 -0.00016492494095615067 2.6263172414797794e-05 0.000903876486930531" pbc="T T T"
Si       9.40424250       4.94606090      12.96046108
Si       2.97797451       2.24379265       4.25019492
Si       5.60503234       2.30481846       7.58271943
Si       5.90050248       6.49229545      14.44759623
Si       7.06708787       4.97167165      15.36880945
Si       6.69903753       8.01964147       8.84695527
Si       5.50344106       4.18194089       2.40678878
Si       6.11870123       6.77063701      10.45860926
Si       4.15880937       3.89578604       0.79179556
Si       5.80709227       8.42237305      15.34349793
Si       5.59920700       4.71674790      10.82090942
Si       5.47478050       6.15816993      12.38995409
Si       2.09280667       3.45861881       0.98727741
Si       1.74961723       1.27029438       8.19002348
Si       4.49134098       2.17667815      15.33688511
Si       8.03665473       7.73826586      10.47688499
Si       4.68967679       3.76670395       4.32382539
Si       5.17786205       8.77444943       7.56118792
Si       4.83779178       5.93596066       3.39592145
Si       5.65854172       2.95893272       9.62985808
Si       8.89163630       3.99572623      14.84733756
Si       4.32536228       2.39834218       5.87999623
22
Lattice="5.3867341294540445 0.34086501754148885 0.7051842587298621 2.9303545554898744 6.7951179569834546 1.3305321148751899 2.911754415762344 3.0369551268382637 15.38301102837278" Properties=species:S:1:pos:R:3 unique_starting_index=40 config_type=initial n_minim_iter=4 stress="-0.0003238815471524391 -4.014005889517384e-05 -2.65065818707798e-05 -4.014005889517384e-05 0.00011781590521143375 7.960670670188065e-05 -2.65065818707798e-05 7.960670670188065e-05 -0.00010054961096730935" pbc="T T T"
Si       9.40418796       4.94593907      12.95952651
Si       2.97787426       2.24370324       4.24988095
Si       5.60497021       2.30472351       7.58216539
Si       5.90061818       6.49204460      14.44640773
Si       7.06723578       4.97155945      15.36754946
Si       6.69890873       8.01939485       8.84632104
Si       5.50321052       4.18179177       2.40672947
Si       6.11865026       6.77047077      10.45783396
Si       4.15858935       3.89565529       0.79184755
Si       5.80725371       8.42219160      15.34228271
Si       5.59929474       4.71665099      10.82005189
Si       5.47481907       6.15800564      12.38899105
Si       2.09271744       3.45849783       0.98724992
Si       1.74977266       1.27028329       8.18933024
Si       4.49160411       2.17662020      15.33556663
Si       8.03652218       7.73803043      10.47617946
Si       4.68955977       3.76660568       4.32358371
Si       5.17782311       8.77422809       7.56062891
Si       4.83761958       5.93576493       3.39575918
Si       5.65857293       2.95883433       9.62909224
Si       8.89165499       3.99562886      14.84625549
Si       4.32534969       2.39828571       5.87960952
22
Lattice="5.387570550490985 0.34084359345260734 0.7054931459277948 2.930910107499117 6.794596274002384 1.3303937675083863 2.913236754797328 3.0361726228016415 15.382167536334139" Properties=species:S:1:pos:R:3 unique_starting_index=40 config_type=initial n_minim_iter=5 stress="0.0008497654251050436 0.00013923843975476198 0.00035845511118405343 0.00013923843975476198 -0.00038662792135989984 -0.00017468542864722603 0.00035845511118405343 -0.00017468542864722603 -0.00021872090492627448" pbc="T T T"
Si       9.40649226       4.94525559      12.95917773
Si       2.97846806       2.24334040       4.24979808
Si       5.60637993       2.30425364       7.58201813
Si       5.90246581       6.49087422      14.44571785
Si       7.06943617       4.97070469      15.36685531
Si       6.70045807       8.01843170       8.84586491
Si       5.50422184       4.18142268       2.40675068
Si       6.12018167       6.76968489      10.45740405
Si       4.15923954       3.89538921       0.79181469
Si       5.80926647       8.42101975      15.34155201
Si       5.60104717       4.71597825      10.81951186
Si       5.47636642       6.15712681      12.38843122
Si       2.09309895       3.45814863       0.98718502
Si       1.75055781       1.26991497       8.18896910
Si       4.49330491       2.17586670      15.33486701
Si       8.03839304       7.73709488      10.47584075
Si       4.69056312       3.76627373       4.32353328
Si       5.17921729       8.77337201       7.56015778
Si       4.83861326       5.93518612       3.39564173
Si       5.66009765       2.95834663       9.62873944
Si       8.89401579       3.99490895      14.84597145
Si       4.32634808       2.39799211       5.87937522
22
Lattice="5.387263250449021 0.34033963673196876 0.7053419359988417 2.9300441745626378 6.795100451561808 1.3303461465725275 2.9122931911620253 3.0362407175907276 15.382603088833525" Properties=species:S:1:pos:R:3 unique_starting_index=40 config_type=initial n_minim_iter=6 stress="3.3284231143808204e-05 0.00034802244527577537 2.967419942070937e-05 0.00034802244527577537 6.057712691433399e-05 8.542587437266787e-05 2.967419942070937e-05 8.542587437266787e-05 9.34180484718711e-05" pbc="T T T"
Si       9.40523087       4.94539991      12.95922857
Si       2.97738755       2.24303533       4.25021091
Si       5.60605709       2.30367446       7.58218601
Si       5.90095960       6.49018773      14.44615159
Si       7.06860135       4.97069892      15.36685061
Si       6.69870559       8.01825513       8.84562178
Si       5.50361255       4.18125222       2.40634411
Si       6.11836228       6.77021331      10.45776061
Si       4.15839995       3.89556233       0.79115610
Si       5.80804123       8.42126398      15.34244979
Si       5.60083763       4.71617013      10.81926027
Si       5.47447919       6.15733847      12.38886994
Si       2.09258288       3.45798782       0.98714867
Si       1.74995045       1.26999110       8.18943022
Si       4.49235276       2.17551428      15.33522854
Si       8.03659864       7.73705352      10.47610461
Si       4.68984072       3.76661934       4.32371581
Si       5.17814294       8.77401667       7.56017593
Si       4.83778231       5.93520171       3.39558797
Si       5.65934049       2.95842792       9.62869493
Si       8.89294113       3.99484666      14.84699046
Si       4.32537694       2.39821456       5.87887880
22
Lattice="5.387320070773161 0.33912092558922446 0.70522591342078 2.9286103451247123 6.794412487076352 1.32990645271606 2.9114651703262306 3.034781077486252 15.382087872652725" Properties=species:S:1:pos:R:3 unique_starting_index=40 config_type=initial n_minim_iter=7 stress="9.148106361059394e-05 -0.00037462005717690756 -8.35879807575185e-06 -0.00037462005717690756 -3.775526071807674e-05 -0.00014015880480252333 -8.35879807575185e-06 -0.00014015880480252333 5.665129520310221e-06" pbc="T T T"
Si       9.40418968       4.94275689      12.95850609
Si       2.97673083       2.24207926       4.25000605
Si       5.60564390       2.30190033       7.58179140
Si       5.89940956       6.48799966      14.44545337
Si       7.06759944       4.96834598      15.36610334
Si       6.69695682       8.01620813       8.84484362
Si       5.50278091       4.17990990       2.40588717
Si       6.11671504       6.76845287      10.45716846
Si       4.15767881       3.89461362       0.79078270
Si       5.80618494       8.41914202      15.34168923
Si       5.60004314       4.71444094      10.81859927
Si       5.47293069       6.15556402      12.38821576
Si       2.09183023       3.45736849       0.98695462
Si       1.74955548       1.26921387       8.18920442
Si       4.49176751       2.17368446      15.33473937
Si       8.03485228       7.73475066      10.47535867
Si       4.68909108       3.76550740       4.32337537
Si       5.17623033       8.77252885       7.55954248
Si       4.83660167       5.93388685       3.39511281
Si       5.65871192       2.95675416       9.62819827
Si       8.89220394       3.99214182      14.84657600
Si       4.32484569       2.39708076       5.87845642
22
Lattice="5.387321982286477 0.3384097488036006 0.7049664806598569 2.927634722124902 6.79451531500279 1.3299750852737184 2.9104568444492216 3.0352412787894956 15.380852300140592" Properties=species:S:1:pos:R:3 unique_starting_index=40 config_type=initial n_minim_iter=8 stress="0.00032606047122543127 -2.1199085329948034e-05 -0.00043418370362165415 -2.1199085329948034e-05 7.096275894625158e-05 0.00032331309287461787 -0.00043418370362165415 0.00032331309287461787 -0.0006248644660970674" pbc="T T T"
Si       9.40288578       4.94257551      12.95690280
Si       2.97529040       2.24156037       4.24963471
Si       5.60529940       2.30068803       7.58066897
Si       5.89771435       6.48772981      14.44457502
Si       7.06711166       4.96832994      15.36436925
Si       6.69548247       8.01549499       8.84394151
Si       5.50194216       4.17950376       2.40522463
Si       6.11441093       6.76928646      10.45675750
Si       4.15754177       3.89423673       0.79044869
Si       5.80478634       8.41908954      15.34085163
Si       5.60034887       4.71482354      10.81731196
Si       5.47103356       6.15644458      12.38716178
Si       2.09098946       3.45668250       0.98735904
Si       1.74889892       1.26971887       8.18864071
Si       4.49103669       2.17393331      15.33345028
Si       8.03290987       7.73468590      10.47441134
Si       4.68861183       3.76608349       4.32299909
Si       5.17444848       8.77276284       7.55982428
Si       4.83601816       5.93307337       3.39479033
Si       5.65816214       2.95682182       9.62693839
Si       8.89199839       3.99183495      14.84647623
Si       4.32448957       2.39757742       5.87761387
22
Lattice="5.386855122781271 0.3381762586805117 0.7055669636831255 2.927257146101138 6.794231814579009 1.3299400351366284 2.9116105424220446 3.0339922386495046 15.382809391050307" Properties=species:S:1:pos:R:3 unique_starting_index=40 config_type=initial n_minim_iter=9 stress="-0.00023208044481379107 -1.1476604322522478e-05 0.00015553794334731942 -1.1476604322522478e-05 -0.0001842497772381834 2.0687460319708854e-05 0.00015553794334731942 2.0687460319708854e-05 0.00012990951997734164" pbc="T T T"
Si       9.40304085       4.94130228      12.95894710
Si       2.97509707       2.24100995       4.25029746
Si       5.60545042       2.29968094       7.58187057
Si       5.89829355       6.48628951      14.44655402
Si       7.06798830       4.96692509      15.36648061
Si       6.69541793       8.01434439       8.84503870
Si       5.50146985       4.17908808       2.40568470
Si       6.11436365       6.76846455      10.45825409
Si       4.15710271       3.89392983       0.79059801
Si       5.80555491       8.41755509      15.34275096
Si       5.60106111       4.71388468      10.81878469
Si       5.47138156       6.15549474      12.38876144
Si       2.09075666       3.45633266       0.98754975
Si       1.74945479       1.26914141       8.18977387
Si       4.49211721       2.17265405      15.33564557
Si       8.03278589       7.73359449      10.47591734
Si       4.68850896       3.76578744       4.32371723
Si       5.17434605       8.77194624       7.56082331
Si       4.83577964       5.93240691       3.39524463
Si       5.65852567       2.95596032       9.62836597
Si       8.89270162       3.99041152      14.84922442
Si       4.32460820       2.39716040       5.87851941
22
Lattice="5.387043326083508 0.33781840897024107 0.705278820560277 2.9269846460348425 6.7949713539366785 1.3284545492286102 2.911092225944221 3.031428708228994 15.380959212626085" Properties=species:S:1:pos:R:3 unique_starting_index=40 config_type=initial n_minim_iter=10 stress="-0.00015392899472198673 8.591766625720045e-05 -6.487320504277974e-05 8.591766625720045e-05 0.00030043074972820944 -0.00031144513982994215 -6.487320504277974e-05 -0.00031144513982994215 -0.00030304024299923334" pbc="T T T"
Si       9.40259374       4.93909579      12.95627408
Si       2.97450903       2.24014240       4.24968315
Si       5.60506408       2.29770509       7.58029438
Si       5.89759593       6.48405807      14.44434397
Si       7.06790351       4.96458649      15.36373389
Si       6.69488596       8.01318631       8.84237553
Si       5.50134314       4.17892071       2.40441950
Si       6.11319954       6.76797544      10.45613415
Si       4.15673598       3.89396982       0.78945466
Si       5.80506198       8.41548942      15.33977727
Si       5.60143641       4.71251578      10.81689964
Si       5.47058254       6.15459063      12.38649933
Si       2.09103167       3.45623986       0.98700855
Si       1.74905879       1.26794170       8.18901894
Si       4.49199230       2.16981240      15.33409476
Si       8.03210515       7.73265256      10.47331008
Si       4.68852612       3.76597111       4.32244511
Si       5.17394387       8.77178694       7.55884327
Si       4.83576770       5.93215268       3.39373928
Si       5.65841156       2.95448091       9.62657536
Si       8.89305126       3.98764425      14.84773991
Si       4.32442243       2.39666367       5.87721857
22
Lattice="5.387387256076933 0.337224453310357 0.7055789417331758 2.926437659700483 6.7936048708264085 1.3295667362931363 2.9114566485029285 3.0325349465867544 15.38304862941314" Properties=species:S:1:pos:R:3 unique_starting_index=40 config_type=initial n_minim_iter=11 stress="-5.785638448355205e-05 -0.00010002036563494492 -2.4529158903637615e-05 -0.00010002036563494492 -0.0002568550533221242 0.0003072461103034374 -2.4529158903637615e-05 0.0003072461103034374 4.6884409887868235e-05" pbc="T T T"
Si       9.40299800       4.93869080      12.95816335
Si       2.97427129       2.23972783       4.25075254
Si       5.60515359       2.29709425       7.58128401
Si       5.89764974       6.48381446      14.44703628
Si       7.06856808       4.96493004      15.36578576
Si       6.69454815       8.01173312       8.84432732
Si       5.50135592       4.17763289       2.40527669
Si       6.11258757       6.76796247      10.45840673
Si       4.15640274       3.89287047       0.79010135
Si       5.80516750       8.41519449      15.34260747
Si       5.60213644       4.71260872      10.81896142
Si       5.47036515       6.15503547      12.38879919
Si       2.09102479       3.45519963       0.98796618
Si       1.74916828       1.26876456       8.19020714
Si       4.49283081       2.17072004      15.33627217
Si       8.03190208       7.73188347      10.47558620
Si       4.68867432       3.76582465       4.32348104
Si       5.17367144       8.77068525       7.56126086
Si       4.83565116       5.93079964       3.39514762
Si       5.65881637       2.95466724       9.62788954
Si       8.89420240       3.98759433      14.85058054
Si       4.32452488       2.39684256       5.87807338
22
Lattice="5.387519737996397 0.3367256360579257 0.706032969896557 2.926188898969286 6.793195809772468 1.328266834344141 2.9129048255616996 3.0288706001373664 15.38206311127902" Properties=species:S:1:pos:R:3 unique_starting_index=40 config_type=initial n_minim_iter=12 stress="-8.674834950981854e-05 -5.306328576205159e-05 4.28286973720029e-05 -5.306328576205159e-05 4.229398768599685e-05 -9.892298485063385e-06 4.28286973720029e-05 -9.892298485063385e-06 -7.073650642980327e-05" pbc="T T T"
Si       9.40412514       4.93490156      12.95660688
Si       2.97412288       2.23817922       4.25097268
Si       5.60543540       2.29408559       7.58049177
Si       5.89862524       6.47966808      14.44569818
Si       7.07056570       4.96090823      15.36377782
Si       6.69459399       8.00854110       8.84238013
Si       5.50165860       4.17619560       2.40439709
Si       6.11229275       6.76632425      10.45726736
Si       4.15640165       3.89266714       0.78975267
Si       5.80662140       8.41134711      15.34049812
Si       5.60386028       4.71007519      10.81850772
Si       5.47070199       6.15303659      12.38767093
Si       2.09095904       3.45421279       0.98820095
Si       1.74959701       1.26726119       8.18990080
Si       4.49501693       2.16643523      15.33605435
Si       8.03220379       7.72939319      10.47410266
Si       4.68919246       3.76557463       4.32286717
Si       5.17429921       8.76892901       7.56007346
Si       4.83593843       5.92952753       3.39449343
Si       5.65972510       2.95255482       9.62694319
Si       8.89650017       3.98332119      14.85076593
Si       4.32472112       2.39590485       5.87732155
22
Lattice="5.3879185120917565 0.33618086154201193 0.7057849611820869 2.925899296707646 6.791653497753148 1.327165820025029 2.9121987804945917 3.025709395683502 15.382875188810674" Properties=species:S:1:pos:R:3 unique_starting_index=40 config_type=initial n_minim_iter=13 stress="8.449494420210182e-05 2.62243159286372e-05 8.531096688215626e-06 2.62243159286372e-05 5.957028239715225e-05 -8.425377457165201e-05 8.531096688215626e-06 -8.425377457165201e-05 8.210802134990403e-05" pbc="T T T"
Si       9.40451179       4.93069883      12.95515138
Si       2.97318621       2.23626875       4.25124030
Si       5.60563198       2.29082325       7.57953616
Si       5.89738708       6.47476228      14.44662185
Si       7.07128096       4.95715800      15.36177021
Si       6.69313660       8.00346450       8.84086514
Si       5.50205374       4.17374248       2.40339635
Si       6.11066663       6.76442320      10.45730654
Si       4.15657217       3.89105820       0.78895552
Si       5.80655371       8.40713591      15.33984533
Si       5.60450097       4.70777631      10.81999836
Si       5.46810222       6.15114532      12.38792321
Si       2.09152980       3.45194576       0.98854978
Si       1.74825257       1.26655205       8.18965254
Si       4.49621327       2.16275863      15.33795849
Si       8.03053800       7.72615331      10.47303990
Si       4.68943560       3.76558664       4.32272209
Si       5.17356762       8.76656489       7.56001881
Si       4.83627342       5.92723444       3.39449435
Si       5.65868170       2.95194971       9.62645663
Si       8.89790237       3.97922697      14.85144098
Si       4.32455334       2.39540859       5.87749427
22
Lattice="5.3878512115243 0.3358356718384535 0.7054067384645797 2.925473425465733 6.790323319395383 1.3267430423276183 2.91083516860733 3.0243565011511753 15.383929370345877" Properties=species:S:1:pos:R:3 unique_starting_index=40 config_type=initial n_minim_iter=14 stress="0.00012568805345406937 4.471000955298086e-05 -4.430376537882343e-05 4.471000955298086e-05 2.7441575762048868e-05 -6.494575417897266e-05 -4.430376537882343e-05 -6.494575417897266e-05 0.00013970943843773687" pbc="T T T"
Si       9.40342917       4.92797686      12.95490591
Si       2.97253956       2.23521451       4.25173649
Si       5.60460947       2.28905844       7.57939872
Si       5.89493444       6.47240635      14.44716339
Si       7.07133570       4.95456863      15.36071298
Si       6.69173254       8.00021174       8.84020913
Si       5.50182769       4.17247389       2.40360262
Si       6.10858446       6.76296756      10.45801160
Si       4.15647273       3.88976636       0.78828855
Si       5.80588303       8.40443427      15.34031396
Si       5.60423551       4.70702633      10.82157814
Si       5.46510762       6.15047014      12.38873285
Si       2.09159389       3.45007891       0.98902394
Si       1.74669458       1.26630419       8.19002000
Si       4.49607642       2.16144178      15.33938625
Si       8.02869124       7.72459593      10.47263982
Si       4.68914313       3.76556113       4.32290411
Si       5.17250410       8.76541345       7.55968913
Si       4.83635670       5.92503468       3.39469714
Si       5.65673106       2.95179868       9.62582394
Si       8.89800772       3.97743961      14.85162528
Si       4.32354158       2.39527086       5.87774163
22
Lattice="5.387023931602002 0.3357983900130613 0.7056656863562851 2.925094359123931 6.789494541571415 1.3267310425242524 2.910990539815671 3.0234721017456745 15.385241989709735" Properties=species:S:1:pos:R:3 unique_starting_index=40 config_type=initial n_minim_iter=15 stress="9.770114081019004e-05 0.0001696122010787564 -6.351812710789098e-06 0.0001696122010787564 -2.542568322077753e-05 1.2131124817434325e-05 -6.351812710789098e-06 1.2131124817434325e-05 0.0001172074565191646" pbc="T T T"
Si       9.40213146       4.92570559      12.95637361
Si       2.97222718       2.23461336       4.25231040
Si       5.60315735       2.28822623       7.57990166
Si       5.89343128       6.47060200      14.44870990
Si       7.07213401       4.95343284      15.36041073
Si       6.69056047       7.99810475       8.84018266
Si       5.50148942       4.17126278       2.40406487
Si       6.10698529       6.76235619      10.45948318
Si       4.15660285       3.88831959       0.78830003
Si       5.80677261       8.40279577      15.34171129
Si       5.60483405       4.70619492      10.82330217
Si       5.46282755       6.15082718      12.39009623
Si       2.09131553       3.44843995       0.98953992
Si       1.74666294       1.26604023       8.19094148
Si       4.49687218       2.16082248      15.34077264
Si       8.02731990       7.72399905      10.47354648
Si       4.68873688       3.76573678       4.32396115
Si       5.17181630       8.76527135       7.55972868
Si       4.83631676       5.92379718       3.39580906
Si       5.65495088       2.95244339       9.62577605
Si       8.89946909       3.97628709      14.85232737
Si       4.32252552       2.39553838       5.87860340
22
Lattice="5.386763095181023 0.3354109440329189 0.7058191439147115 2.924642134298587 6.788450108267146 1.3261635556061966 2.911114882826402 3.0213387967026795 15.385925642441297" Properties=species:S:1:pos:R:3 unique_starting_index=40 config_type=initial n_minim_iter=16 stress="0.00011921457889511381 0.00012268511475669458 1.2294073814069743e-05 0.00012268511475669458 -4.133113309389094e-05 3.2385980461008466e-05 1.2294073814069743e-05 3.2385980461008466e-05 9.234755768710307e-05" pbc="T T T"
Si       9.40140552       4.92217399      12.95714641
Si       2.97211348       2.23366241       4.25207770
Si       5.60242656       2.28692161       7.58027124
Si       5.89244108       6.46731025      14.44939450
Si       7.07331804       4.95062246      15.35900739
Si       6.68950071       7.99522201       8.83915773
Si       5.50096590       4.16957128       2.40410130
Si       6.10582003       6.76075509      10.46018557
Si       4.15659739       3.88747725       0.78835110
Si       5.80779045       8.39967503      15.34232876
Si       5.60567355       4.70404752      10.82429324
Si       5.46038517       6.14996336      12.39045031
Si       2.09179899       3.44672191       0.98981209
Si       1.74626925       1.26573406       8.19144729
Si       4.49768576       2.15812169      15.34170303
Si       8.02620575       7.72216554      10.47383212
Si       4.68860027       3.76517337       4.32456455
Si       5.17054142       8.76415273       7.55957390
Si       4.83636144       5.92220113       3.39588771
Si       5.65390698       2.95145551       9.62484359
Si       8.90163328       3.97359042      14.85230531
Si       4.32182999       2.39524427       5.87895338
22
Lattice="5.386650291349943 0.3348660566853953 0.7060096555305316 2.9240539292039784 6.787650811528099 1.3256843501084317 2.9114953297795854 3.019623804981795 15.38519254254509" Properties=species:S:1:pos:R:3 unique_starting_index=40 config_type=initial n_minim_iter=17 stress="4.51702640068618e-05 -2.9145325201493877e-05 -9.22141666863338e-07 -2.9145325201493877e-05 1.017565394299914e-05 7.5082587429924145e-06 -9.22141666863338e-07 7.5082587429924145e-06 -4.339977241900742e-05" pbc="T T T"
Si       9.40130184       4.91897242      12.95656197
Si       2.97209374       2.23280397       4.25156200
Si       5.60157687       2.28574118       7.57989100
Si       5.89208479       6.46428426      14.44852238
Si       7.07563071       4.94849413      15.35578912
Si       6.68851271       7.99258130       8.83755711
Si       5.50081485       4.16761146       2.40445765
Si       6.10462834       6.75987898      10.46011890
Si       4.15653407       3.88558176       0.78792614
Si       5.80900666       8.39719610      15.34171689
Si       5.60679067       4.70218117      10.82485925
Si       5.45717415       6.14966832      12.38972082
Si       2.09188869       3.44484799       0.99104509
Si       1.74606655       1.26599626       8.19110750
Si       4.49914769       2.15572572      15.34175811
Si       8.02463605       7.72063113      10.47330064
Si       4.68865795       3.76483372       4.32491461
Si       5.16908320       8.76355246       7.55931507
Si       4.83642475       5.92085289       3.39548430
Si       5.65299102       2.95082043       9.62299914
Si       8.90452932       3.97102961      14.85132084
Si       4.32099853       2.39532688       5.87870365
22
Lattice="5.386730258297587 0.33468543672762463 0.7061122315442031 2.9239419230347496 6.786685037289534 1.3257928849338159 2.9116318445058287 3.019138521451846 15.386174176636441" Properties=species:S:1:pos:R:3 unique_starting_index=40 config_type=initial n_minim_iter=18 stress="-3.7661957645308915e-05 -0.00015041547237510736 -2.6437299791231327e-05 -0.00015041547237510736 3.711708647224297e-05 6.188591390588338e-05 -2.6437299791231327e-05 6.188591390588338e-05 -5.0648211284779935e-05" pbc="T T T"
Si       9.40157904       4.91737484      12.95696777
Si       2.97197922       2.23232122       4.25171622
Si       5.60055392       2.28532872       7.57997643
Si       5.89180791       6.46285119      14.45018118
Si       7.07846846       4.94718232      15.35418439
Si       6.68812451       7.99074190       8.83757015
Si       5.50086173       4.16591199       2.40490245
Si       6.10357244       6.75964399      10.46119992
Si       4.15702897       3.88409283       0.78802322
Si       5.81014739       8.39560494      15.34297340
Si       5.60784439       4.70127781      10.82665701
Si       5.45403120       6.15014728      12.39044996
Si       2.09252168       3.44308758       0.99195949
Si       1.74589271       1.26668180       8.19172633
Si       4.50025209       2.15446234      15.34326643
Si       8.02347550       7.71987067      10.47397065
Si       4.68890978       3.76471267       4.32583497
Si       5.16853444       8.76323569       7.56012872