4
Lattice="1.9850284638578943 -3.4381701538722744 -2.367557430355073e-19 1.9850284638578943 3.4381701538722744 2.367557430355192e-19 3.732150915418873e-32 4.496246707345967e-19 6.535414457454208" Properties=species:S:1:pos:R:3:forces:R:3 cutoff=-1.0 nneightol=1.2 n_minim_iter=3 energy=-652.5522575356097 stress="0.030196991109696793 -4.3142308056042347e-17 -2.0672805275767717e-17 -4.3142308056042347e-17 0.030196991109696383 -1.0969697615873532e-17 -2.0672805275767717e-17 -1.0969697615873532e-17 0.02997848615331921" free_energy=-652.5522575356097 pbc="T T T"
Si       1.98502846       1.14605672       0.41276246      -0.00000000       0.00000000      -0.00212804
Si       1.98502846      -1.14605672       3.68046969       0.00000000      -0.00000000      -0.00212804
Si       1.98502846       1.14605672       2.85494476      -0.00000000       0.00000000       0.00212804
Si       1.98502846      -1.14605672      -0.41276246       0.00000000      -0.00000000       0.00212804
