2
Lattice="2.765552841138259 -1.7149638406915965e-16 -3.83129525427137e-16 -1.3827764205691289 2.395039016270646 2.1527036134011987e-16 -4.588244760057548e-16 2.501904584794995e-16 4.784911274321075" Properties=species:S:1:pos:R:3:forces:R:3 n_minim_iter=1 energy=-325.1766007720119 stress="0.038801678718008305 -6.127099470937108e-17 1.1616347082885664e-16 -6.127099470937108e-17 0.0388016786151914 7.3207059604753e-17 1.1616347082885664e-16 7.3207059604753e-17 0.042993569830491456" free_energy=-325.1766007720119 pbc="T T T"
Si       0.00000000      -0.00000000       0.00000000       0.00000000      -0.00000000       0.00000000
Si      -0.00000000       1.59669268       2.39245564      -0.00000000       0.00000000      -0.00000000
