2
Lattice="2.7229991067581554 -1.6885755849104356e-16 -3.7723428747844126e-16 -1.361499553379077 2.3581864012664 2.1195798283839287e-16 -4.517645151224895e-16 2.4634076226100634e-16 4.711285545544178" Properties=species:S:1:pos:R:3:forces:R:3 n_minim_iter=1 energy=-325.2328058088692 stress="0.00721424062718655 2.876731219403853e-18 3.429057413761231e-17 2.876731219403853e-18 0.007214240584144604 -8.266916742786632e-17 3.429057413761231e-17 -8.266916742786632e-17 0.008758118464362847" free_energy=-325.2328058088692 pbc="T T T"
Si       0.00000000      -0.00000000       0.00000000      -0.00000000      -0.00000000       0.00000000
Si      -0.00000000       1.57212427       2.35564277       0.00000000       0.00000000      -0.00000000
