63
Lattice="10.982246682433962 0.0 0.0 0.0 10.982246682433962 0.0 0.0 0.0 10.982246682433962" Properties=species:S:1:pos:R:3:forces:R:3 cutoff=-1.0 nneightol=1.2 vacancies=0 relax_radial_0=0.13 relax_symm_break_0=0.01 bulk_struct_test=bulk_Si_diamond supercell_a1_in_bulk_lattice_coords="2 2 -2" n_minim_iter=0 pbc="T T T"
Si       2.70753281       2.70778968       0.01282794      -0.00110281      -0.00151695       0.00177253
Si       2.70812093       0.01214811       2.70868406      -0.00138286       0.00305243      -0.00207073
Si       0.01155930       2.70883170       2.70913757       0.00429646      -0.00192901      -0.00219439
Si       1.28098237       1.28232065       1.28394555      -0.00404753      -0.00515924      -0.00647645
Si       4.11153122       4.11152385       1.36748306      -0.00015684      -0.00032296      -0.00003148
Si       4.11126422       1.36819885       4.11124525      -0.00014649      -0.00100800      -0.00060001
Si       1.36888518       4.11094137       4.11092951      -0.00207336      -0.00033936      -0.00062785
Si       0.00031623       0.00015692       5.49113788       0.00322985       0.00160756       0.00015246
Si       2.74409038       2.74380958       5.48738159      -0.00090728      -0.00166902       0.00331743
Si       2.70504789      -0.01285838       8.27667648       0.00042639      -0.00126352       0.00047380
Si      -0.01295039       2.70259409       8.27938671      -0.00078027       0.00155150      -0.00108403
Si       1.37247164       1.37250340       6.87236342      -0.00076628      -0.00030701      -0.00168237
Si       4.11766026       4.11705542       6.86580639       0.00044057       0.00057542      -0.00068914
Si       4.10984017       1.37199010       9.61025580       0.00210251       0.00074273      -0.00111890
Si       1.37220232       4.10984101       9.61000929      -0.00023242       0.00186975      -0.00058567
Si       0.00031601       5.49097717       0.00001851       0.00324307       0.00062269      -0.00007143
Si       2.70574782       8.27563698      -0.01212329       0.00004395       0.00108948      -0.00249404
Si       2.74458717       5.48695979       2.74399902      -0.00101666       0.00299791      -0.00241386
Si      -0.01225432       8.28103869       2.70091156      -0.00149147      -0.00189821       0.00229595
Si       1.37279877       6.87159868       1.37287117      -0.00091331      -0.00026941      -0.00001698
Si       4.11045004       9.61020221       1.37205304       0.00115654      -0.00195421       0.00160665
Si       4.11805552       6.86604494       4.11682999       0.00005721      -0.00033933       0.00025194
Si       1.37249888       9.60968267       4.11053896      -0.00034802      -0.00086356       0.00051342
Si       0.00033332       5.49289181       5.49107876       0.00419284      -0.00168739      -0.00000038
Si       2.74425342       8.23894304       5.49574646      -0.00088864       0.00295413      -0.00321566
Si       2.74376883       5.49535699       8.23908201      -0.00074150      -0.00349228       0.00225596
Si       0.01093097       8.27465549       8.27499487       0.00493223       0.00133500       0.00112132
Si       1.36892070       6.87304137       6.87299927      -0.00254041       0.00021847      -0.00012834
Si       4.11010379       9.61549011       6.87220611       0.00038228      -0.00049896      -0.00014286
Si       4.10989117       6.87245926       9.61473767       0.00041377       0.00016824       0.00042216
Si       1.27441273       9.70317387       9.70502554       0.00009060       0.00377545       0.00229346
Si       5.49082969       0.00015752       0.00001901       0.00122786       0.00162327      -0.00007273
Si       8.27720616       2.70408185      -0.01146407       0.00020372       0.00073705      -0.00317217
Si       8.27989762      -0.01150231       2.70169943      -0.00122789      -0.00266408       0.00186206
Si       5.48653436       2.74480557       2.74449868       0.00268348      -0.00187080      -0.00251036
Si       6.87080422       1.37317932       1.37321989       0.00109491      -0.00064077      -0.00020626
Si       9.60993053       4.11104584       1.37231117      -0.00220424      -0.00000588       0.00150423
Si       9.60965796       1.37254375       4.11113412      -0.00164604       0.00053861      -0.00041619
Si       6.86630808       4.11783101       4.11721046      -0.00003358      -0.00012346      -0.00006289
Si       5.49466588       0.00016703       5.49107807      -0.00340234       0.00211310      -0.00000220
Si       8.23918608       2.74411881       5.49661353       0.00354717      -0.00175037      -0.00328660
Si       8.27667743       0.01086219       8.27737103       0.00032449       0.00436932      -0.00012625
Si       5.49588167       2.74317034       8.23939865      -0.00369621      -0.00138752       0.00215305
Si       6.87453267       1.36826246       6.87440597      -0.00011103      -0.00193521      -0.00076175
Si       9.61625737       4.10852681       6.87377523      -0.00090954       0.00081897      -0.00072642
Si       9.70803013       1.26887526       9.71190056       0.00119859       0.00317419      -0.00190482
Si       6.87426877       4.10815901       9.61470951      -0.00015022       0.00089337       0.00088330
Si       5.49466761       5.49289351       0.00003633      -0.00342801      -0.00172612      -0.00005405
Si       8.27925624       8.27961052       0.01084611      -0.00098987      -0.00122519       0.00384770
Si       8.23952277       5.49712235       2.74347323       0.00351119      -0.00366037      -0.00235776
Si       5.49677989       8.23959635       2.74300897      -0.00379320       0.00281822      -0.00214313
Si       6.87606190       6.87597714       1.36756300      -0.00083037      -0.00113254      -0.00143842
Si       9.71512300       9.71714261       1.26340556      -0.00311735      -0.00473276       0.00616854
Si       9.61624050       6.87561231       4.10671448      -0.00041503      -0.00113265       0.00127255
Si       6.87585212       9.61544540       4.10655921      -0.00085611       0.00045045       0.00129881
Si       5.49166652       5.49139582       5.49112542      -0.00123901      -0.00062747       0.00015852
Si       8.23905790       8.23866756       5.48477698       0.00366162       0.00318063       0.00357070
Si       8.23870873       5.48525685       8.23797417       0.00366300       0.00316046       0.00262636
Si       5.48570044       8.23796689       8.23762234       0.00276243       0.00316010       0.00261227
Si       6.86594312       6.86529943       6.86466544       0.00022517       0.00023565       0.00026799
Si       9.60963864       9.60965288       6.87057929      -0.00207562      -0.00174818       0.00113092
Si       9.60933576       6.87042447       9.60938526      -0.00148778       0.00160293      -0.00078337
Si       6.87022505       9.60901465       9.60904980       0.00203767      -0.00055530      -0.00016418
