2
Lattice="3.112063992793871 0.0 0.0 0.0 3.112063992793871 0.0 0.0 0.0 3.112063992793871" Properties=species:S:1:pos:R:3 Minim_Constant_Volume=F n_minim_iter=1 energy=-3187.098654205773 free_energy=-3187.098654205773 pbc="T T T"
Ti       0.00000000       0.00000000       0.00000000
Ti       1.55603200       1.55603200       1.55603200
