2
Lattice="3.139126777195372 0.0 0.0 0.0 3.139126777195372 0.0 0.0 0.0 3.139126777195372" Properties=species:S:1:pos:R:3 Minim_Constant_Volume=F n_minim_iter=1 stress="-0.022449493440044255 4.040918359481816e-18 -7.73147064417393e-19 4.040918359481816e-18 -0.022449493440044266 4.696653327635626e-19 -7.73147064417393e-19 4.696653327635626e-19 -0.02244949344004422" pbc="T T T"
Ti       0.00000000       0.00000000       0.00000000
Ti       1.56956339       1.56956339       1.56956339
