2
Lattice="2.8347032506260588 3.876761705209657e-17 2.8347032506260588 2.8347032506260588 2.8347032506260588 2.0069038137947453e-16 6.513589855596244e-17 2.8347032506260588 2.8347032506260588" Properties=species:S:1:pos:R:3 n_minim_iter=1 energy=-326.2254835661097 free_energy=-326.2254835661097 pbc="T T T"
Si       0.00000000       0.00000000      -0.00000000
Si       1.41735163       1.41735163       1.41735163
