2
Lattice="2.8130634506065086 3.8471669502716723e-17 2.8130634506065086 2.8130634506065086 2.8130634506065086 1.9915833398864447e-16 6.463865856495687e-17 2.8130634506065086 2.8130634506065086" Properties=species:S:1:pos:R:3 n_minim_iter=1 energy=-326.2712700516796 free_energy=-326.2712700516796 pbc="T T T"
Si       0.00000000       0.00000000      -0.00000000
Si       1.40653173       1.40653173       1.40653173
