2
Lattice="2.7687558540239494 3.786571544511577e-17 2.7687558540239494 2.7687558540239494 2.7687558540239494 1.9602145944835604e-16 6.362055724672444e-17 2.7687558540239494 2.7687558540239494" Properties=species:S:1:pos:R:3 n_minim_iter=1 stress="0.021024502486802498 -7.944788065091552e-17 1.6273032727815352e-18 -7.944788065091552e-17 0.021024502486802498 4.5768248989183825e-17 1.6273032727815352e-18 4.5768248989183825e-17 0.021024502486802665" pbc="T T T"
Si       0.00000000       0.00000000      -0.00000000
Si       1.38437793       1.38437793       1.38437793
