2
Lattice="2.9581035843139163 4.045524939225607e-17 2.9581035843139163 2.9581035843139163 2.9581035843139163 2.094268373117493e-16 6.797139522217927e-17 2.9581035843139163 2.9581035843139163" Properties=species:S:1:pos:R:3 n_minim_iter=1 stress="0.07209261185741168 -4.166385438321917e-17 3.81250526292137e-18 -4.166385438321917e-17 0.07209261185741161 1.3403558632546685e-17 3.81250526292137e-18 1.3403558632546685e-17 0.0720926118574114" pbc="T T T"
Si       0.00000000       0.00000000      -0.00000000
Si       1.47905179       1.47905179       1.47905179
