2
Lattice="2.8770184929016622 3.934632352080541e-17 2.8770184929016622 2.8770184929016622 2.8770184929016622 2.0368620187976152e-16 6.610821949559729e-17 2.8770184929016622 2.8770184929016622" Properties=species:S:1:pos:R:3 n_minim_iter=1 stress="0.05906339539352813 8.246952796065137e-19 -1.2724554207641767e-17 8.246952796065137e-19 0.05906339539352813 2.039671965822322e-18 -1.2724554207641767e-17 2.039671965822322e-18 0.05906339539352813" pbc="T T T"
Si       0.00000000       0.00000000      -0.00000000
Si       1.43850925       1.43850925       1.43850925
