2
Lattice="2.9382499419221078 4.0183729470315414e-17 2.9382499419221078 2.9382499419221078 2.9382499419221078 2.0802124571675473e-16 6.751519761612876e-17 2.9382499419221078 2.9382499419221078" Properties=species:S:1:pos:R:3 n_minim_iter=1 stress="0.07209261185741168 -4.166385438321917e-17 3.81250526292137e-18 -4.166385438321917e-17 0.07209261185741161 1.3403558632546685e-17 3.81250526292137e-18 1.3403558632546685e-17 0.0720926118574114" pbc="T T T"
Si       0.00000000       0.00000000      -0.00000000
Si       1.46912497       1.46912497       1.46912497
