4
Lattice="1.9583948495152375 -3.392039380641597 -8.537025931238432e-18 1.9583948495152366 3.392039380641597 8.537025931238432e-18 0.0 -1.6198601058485412e-17 6.436233548339982" Properties=species:S:1:pos:R:3 cutoff=-1.0 nneightol=1.2 n_minim_iter=1 energy=-652.6041644907933 free_energy=-652.6041644907933 pbc="T T T"
Si       1.95839485       1.13067979       0.40298137
Si       1.95839485      -1.13067979       3.62109814
Si       1.95839485       1.13067979       2.81513540
Si       1.95839485      -1.13067979      -0.40298137
4
Lattice="1.9567773298873077 -3.3892377544637817 -8.538134199611268e-18 1.9567773298873068 3.3892377544637817 8.538134199611268e-18 -3.0973005819543375e-36 -1.620991045676589e-17 6.446878639958769" Properties=species:S:1:pos:R:3 cutoff=-1.0 nneightol=1.2 n_minim_iter=2 stress="0.020309279080531054 -3.639604889119902e-16 8.747542751252517e-17 -3.639604889119902e-16 0.020309279080530512 2.980749440998384e-17 8.747542751252517e-17 2.980749440998384e-17 0.021059596246028718" pbc="T T T"
Si       1.95677733       1.12974592       0.40346852
Si       1.95677733      -1.12974592       3.62690784
Si       1.95677733       1.12974592       2.81997080
Si       1.95677733      -1.12974592      -0.40346852
4
Lattice="1.9571998761780818 -3.3899696261079524 -8.556219662287986e-18 1.9571998761780809 3.3899696261079524 8.556219662287986e-18 -4.03883599859889e-36 -1.6172079356748077e-17 6.444095264963092" Properties=species:S:1:pos:R:3 cutoff=-1.0 nneightol=1.2 n_minim_iter=3 stress="0.020580351438794497 1.2638565827148157e-16 2.215286800641871e-17 1.2638565827148157e-16 0.020580351438793762 3.2586401833065674e-17 2.215286800641871e-17 3.2586401833065674e-17 0.020564267132105338" pbc="T T T"
Si       1.95719988       1.12998988       0.40341647
Si       1.95719988      -1.12998988       3.62546411
Si       1.95719988       1.12998988       2.81863116
Si       1.95719988      -1.12998988      -0.40341647
