4
Lattice="1.9726115333662562 -3.4166633993867053 -8.623594244652769e-18 1.9726115333662562 3.4166633993867053 8.623594244652769e-18 0.0 -1.639284977981695e-17 6.494838261792568" Properties=species:S:1:pos:R:3 cutoff=-1.0 nneightol=1.2 n_minim_iter=1 energy=-652.5530676187822 free_energy=-652.5530676187822 pbc="T T T"
Si       1.97261153       1.13888780       0.40659311
Si       1.97261153      -1.13888780       3.65401224
Si       1.97261153       1.13888780       2.84082602
Si       1.97261153      -1.13888780      -0.40659311
