4
Lattice="1.677418801250288 -2.9053745893367777 8.1118299607587e-17 1.6774188012502882 2.9053745893367777 -8.111829960758697e-17 1.2724931245404591e-32 1.532447900071246e-16 6.266445439200105" Properties=species:S:1:pos:R:3 cutoff=-1.0 nneightol=1.2 n_minim_iter=5 stress="-0.0775864905832458 -3.0991294318723196e-16 6.577697731136632e-16 -3.0991294318723196e-16 -0.07758649058324493 -6.305493323035762e-17 6.577697731136632e-16 -6.305493323035762e-17 -0.07752467257302792" pbc="T T T"
Si       1.67741880       0.96845820       0.51471970
Si       1.67741880      -0.96845820       3.64794242
Si       1.67741880       0.96845820       2.61850302
Si       1.67741880      -0.96845820      -0.51471970
