4
Lattice="1.9877860645660779 -3.4429464584058356 -8.689932191940736e-18 1.9877860645660779 3.4429464584058356 8.689932191940736e-18 0.0 -1.6518953579896295e-17 6.544800519527715" Properties=species:S:1:pos:R:3 cutoff=-1.0 nneightol=1.2 n_minim_iter=1 stress="0.029841589067221255 -1.813960065361264e-16 1.2411946797156266e-16 -1.813960065361264e-16 0.029841589067221824 2.0532381327073013e-16 1.2411946797156266e-16 2.0532381327073013e-16 0.02921691970010188" pbc="T T T"
Si       1.98778606       1.14764882       0.40972087
Si       1.98778606      -1.14764882       3.68212113
Si       1.98778606       1.14764882       2.86267939
Si       1.98778606      -1.14764882      -0.40972087
