4
Lattice="1.8935085441017159 -3.279653002949945 -7.302748579720974e-18 1.8935085441017159 3.279653002949945 7.302748579720959e-18 1.2552589003465938e-32 -1.89294313478292e-17 6.2291971937152395" Properties=species:S:1:pos:R:3 cutoff=-1.0 nneightol=1.2 n_minim_iter=2 stress="-0.029332632356932807 9.606762649724804e-17 -6.787679116642823e-17 9.606762649724804e-17 -0.029332632356932772 -8.376167979113929e-17 -6.787679116642823e-17 -8.376167979113929e-17 -0.02933387596407003" pbc="T T T"
Si       1.89350854       1.09321767       0.39223985
Si       1.89350854      -1.09321767       3.50683845
Si       1.89350854       1.09321767       2.72235874
Si       1.89350854      -1.09321767      -0.39223985
