4
Lattice="1.7917086333523262 -3.103330385326026 1.657823051640493e-18 1.7917086333523262 3.103330385326026 -1.6578230516404928e-18 6.57302548400953e-33 3.659176135927152e-18 6.041742172809321" Properties=species:S:1:pos:R:3 cutoff=-1.0 nneightol=1.2 n_minim_iter=3 stress="-0.1370102003869444 -1.1499238614887075e-16 -3.146258572631079e-16 -1.1499238614887075e-16 -0.13701020038694434 2.6575093054201036e-16 -3.146258572631079e-16 2.6575093054201036e-16 -0.1405452434061799" pbc="T T T"
Si       1.79170863       1.03444346       0.39968818
Si       1.79170863      -1.03444346       3.42055926
Si       1.79170863       1.03444346       2.62118291
Si       1.79170863      -1.03444346      -0.39968818
