4
Lattice="2.002732385658686 -3.4688342459244708 -8.755272481385863e-18 2.002732385658686 3.4688342459244708 8.755272481385863e-18 0.0 -1.6643160902163098e-17 6.594011393774025" Properties=species:S:1:pos:R:3 cutoff=-1.0 nneightol=1.2 n_minim_iter=1 stress="0.03847715127653189 -6.473762034952659e-19 -1.9248208739842852e-17 -6.473762034952659e-19 0.03847715127653182 -1.7342636296559545e-16 -1.9248208739842852e-17 -1.7342636296559545e-16 0.03754208068829203" pbc="T T T"
Si       2.00273239       1.15627808       0.41280160
Si       2.00273239      -1.15627808       3.70980729
Si       2.00273239       1.15627808       2.88420410
Si       2.00273239      -1.15627808      -0.41280160
