4
Lattice="1.8320696246812214 -3.1732376729515184 1.8093662204126575e-18 1.8320696246812205 3.1732376729515184 -1.809366220412662e-18 6.17908902477676e-33 2.0569291820711337e-18 6.128682410931297" Properties=species:S:1:pos:R:3 cutoff=-1.0 nneightol=1.2 n_minim_iter=3 stress="-0.10769141816530371 -8.980448252019656e-16 -2.7322884866707915e-16 -8.980448252019656e-16 -0.10769141816530292 1.6063673444160703e-16 -2.7322884866707915e-16 1.6063673444160703e-16 -0.10765416580297986" pbc="T T T"
Si       1.83206962       1.05774589       0.39886417
Si       1.83206962      -1.05774589       3.46320538
Si       1.83206962       1.05774589       2.66547703
Si       1.83206962      -1.05774589      -0.39886417
