4
Lattice="1.874758238701935 -3.2471765213400934 -5.950891765427313e-18 1.8747582387019341 3.2471765213400934 5.9508917654272846e-18 2.850058665366084e-32 -1.6205865261028614e-17 6.187200693246215" Properties=species:S:1:pos:R:3 cutoff=-1.0 nneightol=1.2 n_minim_iter=3 stress="-0.05089528979459373 1.2361379526340198e-17 -3.5606935711980226e-17 1.2361379526340198e-17 -0.05089528979459386 -1.9216508062651424e-16 -3.5606935711980226e-17 -1.9216508062651424e-16 -0.05069907377737343" pbc="T T T"
Si       1.87475824       1.08239217       0.39227680
Si       1.87475824      -1.08239217       3.48587715
Si       1.87475824       1.08239217       2.70132355
Si       1.87475824      -1.08239217      -0.39227680
