2
Lattice="2.574744525563095 4.694082730458608e-17 2.574744525563095 2.574744525563095 2.574744525563095 5.3543925508393095e-17 9.276463151964273e-17 2.574744525563095 2.574744525563095" Properties=species:S:1:pos:R:3:forces:R:3 n_minim_iter=1 energy=-8.333440808538816 stress="-0.12784566883266676 -3.7544583121044255e-16 1.850112928795487e-16 -3.7544583121044255e-16 -0.1278456688326668 -3.5168458794024433e-16 1.850112928795487e-16 -3.5168458794024433e-16 -0.12784566883266676" free_energy=-8.333440808538816 pbc="T T T"
Si       0.00000000       0.00000000       0.00000000      -0.00000000       0.00000000      -0.00000000
Si       1.28737226       1.28737226       1.28737226       0.00000000      -0.00000000       0.00000000
