2
Lattice="2.6242709402856814 4.784375606409078e-17 2.6242709402856814 2.6242709402856814 2.6242709402856814 5.45738679490024e-17 9.454900257728189e-17 2.6242709402856814 2.6242709402856814" Properties=species:S:1:pos:R:3:forces:R:3 n_minim_iter=1 energy=-8.600032697901401 stress="-0.05307652235181553 -3.337864877006427e-16 2.9404379428261117e-16 -3.337864877006427e-16 -0.05307652235181548 1.0360869498114848e-16 2.9404379428261117e-16 1.0360869498114848e-16 -0.053076522351815446" free_energy=-8.600032697901401 pbc="T T T"
Si       0.00000000       0.00000000       0.00000000       0.00000000       0.00000000      -0.00000000
Si       1.31213547       1.31213547       1.31213547      -0.00000000      -0.00000000       0.00000000
