2
Lattice="2.888383908737205 5.2658867279162934e-17 2.888383908737205 2.888383908737205 2.888383908737205 6.006631388612939e-17 1.0406464265524514e-16 2.888383908737205 2.888383908737205" Properties=species:S:1:pos:R:3:forces:R:3 n_minim_iter=1 energy=-8.262357747541643 stress="0.08947010971932497 -3.0932626586447724e-16 2.0599417647526375e-16 -3.0932626586447724e-16 0.08947010971932512 -1.867499627454034e-16 2.0599417647526375e-16 -1.867499627454034e-16 0.08947010971932504" free_energy=-8.262357747541643 pbc="T T T"
Si       0.00000000       0.00000000       0.00000000      -0.00000000       0.00000000      -0.00000000
Si       1.44419195       1.44419195       1.44419195       0.00000000      -0.00000000       0.00000000
