2
Lattice="2.784393788568145 5.07629967476307e-17 2.784393788568145 2.784393788568145 2.784393788568145 5.790375399226058e-17 1.0031801650131376e-16 2.784393788568145 2.784393788568145" Properties=species:S:1:pos:R:3:forces:R:3 n_minim_iter=1 energy=-8.603171620355528 stress="0.04264989815883498 -6.393076477021241e-17 4.9601624850951663e-17 -6.393076477021241e-17 0.042649898158834965 -1.6613242321905557e-16 4.9601624850951663e-17 -1.6613242321905557e-16 0.04264989815883501" free_energy=-8.603171620355528 pbc="T T T"
Si       0.00000000       0.00000000       0.00000000      -0.00000000       0.00000000      -0.00000000
Si       1.39219689       1.39219689       1.39219689       0.00000000      -0.00000000       0.00000000
