2
Lattice="2.671995382385001 4.871383259888871e-17 2.671995382385001 2.671995382385001 2.671995382385001 5.556633689002742e-17 9.626845095045813e-17 2.671995382385001 2.671995382385001" Properties=species:S:1:pos:R:3:forces:R:3 n_minim_iter=1 energy=-8.666767872125327 stress="-0.014685534900345337 -4.90441406547128e-16 2.490281124599759e-16 -4.90441406547128e-16 -0.014685534900345316 -7.592859573148712e-17 2.490281124599759e-16 -7.592859573148712e-17 -0.014685534900345298" free_energy=-8.666767872125327 pbc="T T T"
Si       0.00000000       0.00000000       0.00000000      -0.00000000       0.00000000      -0.00000000
Si       1.33599769       1.33599769       1.33599769       0.00000000      -0.00000000       0.00000000
