2
Lattice="4.324106221476697 1.7904377495406708e-16 9.120095854905819e-15 1.7904377495454784e-16 4.324106221476697 -1.428766131670437e-14 2.1620531107383454 2.1620531107383534 1.518123166199289" Properties=species:S:1:pos:R:3:forces:R:3 cutoff=-1.0 nneightol=1.2 n_minim_iter=1 energy=-7.110191694649231 stress="-0.43401383429918877 7.274626101671158e-17 1.012201924744667e-15 7.274626101671158e-17 -0.43401383429918855 7.616322930788765e-16 1.012201924744667e-15 7.616322930788765e-16 -0.49233421230561103" free_energy=-7.110191694649231 pbc="T T T"
Si      -0.00000000      -1.08102655      -0.37953079       0.00000000      -0.00000000      -0.00000000
Si      -0.00000000       1.08102656       0.37953079      -0.00000000       0.00000000       0.00000000
2
Lattice="4.290152575114834 2.105721507632984e-16 9.079795987509791e-15 2.1057215076377517e-16 4.290152575114834 -1.4137590962050325e-14 2.145076287557414 2.1450762875574223 1.542248085439215" Properties=species:S:1:pos:R:3:forces:R:3 cutoff=-1.0 nneightol=1.2 n_minim_iter=2 energy=-7.128064160029745 stress="-0.4168295345580746 9.39611968159668e-17 6.445122504887933e-16 9.39611968159668e-17 -0.41682953455807387 -7.675140087139703e-16 6.445122504887933e-16 -7.675140087139703e-16 -0.43841156655377683" free_energy=-7.128064160029745 pbc="T T T"
Si      -0.00000000      -1.07253814      -0.38556202      -0.00000000      -0.00000000       0.00000000
Si      -0.00000000       1.07253814       0.38556202       0.00000000       0.00000000      -0.00000000
2
Lattice="4.270330870380596 2.605213846188181e-16 9.060164752203765e-15 2.6052138461929266e-16 4.270330870380595 -1.4051670506178527e-14 2.1351654351902947 2.1351654351903027 1.556598699409185" Properties=species:S:1:pos:R:3:forces:R:3 cutoff=-1.0 nneightol=1.2 n_minim_iter=3 energy=-7.130941922677115 stress="-0.4077784220622939 4.0439329886347133e-16 5.381479864133577e-16 4.0439329886347133e-16 -0.4077784220622939 1.9464352138672015e-15 5.381479864133577e-16 1.9464352138672015e-15 -0.408187754129522" free_energy=-7.130941922677115 pbc="T T T"
Si      -0.00000000      -1.06758272      -0.38914967      -0.00000000       0.00000000      -0.00000000
Si      -0.00000000       1.06758272       0.38914967       0.00000000      -0.00000000      -0.00000000
