2
Lattice="4.052269904494199 1.7226568612112116e-16 8.64143875767473e-15 1.722656861217401e-16 4.052269904494199 -1.3167169015937694e-14 2.026134952247096 2.0261349522471046 1.5714852234527565" Properties=species:S:1:pos:R:3:forces:R:3 cutoff=-1.0 nneightol=1.2 n_minim_iter=1 energy=-5.252625940485257 stress="-1.1593090054088824 6.12908803453396e-16 -5.546836242021466e-16 6.12908803453396e-16 -1.1593090054088813 -4.274249700541526e-16 -5.546836242021466e-16 -4.274249700541526e-16 -1.2220000796934136" free_energy=-5.252625940485257 pbc="T T T"
Si      -0.00000000      -1.01306748      -0.39287131       0.00000000      -0.00000000       0.00000000
Si      -0.00000000       1.01306748       0.39287131      -0.00000000       0.00000000      -0.00000000
2
Lattice="4.021172791549419 1.8928126799186635e-16 8.593595779264426e-15 1.8928126799248062e-16 4.021172791549419 -1.3095143911385e-14 2.010586395774706 2.0105863957747143 1.5958848775262118" Properties=species:S:1:pos:R:3:forces:R:3 cutoff=-1.0 nneightol=1.2 n_minim_iter=2 energy=-5.269353377279455 stress="-1.1412621584643299 -2.6456338201324244e-16 -8.138790986661098e-16 -2.6456338201324244e-16 -1.1412621584643285 -1.2498429693387197e-15 -8.138790986661098e-16 -1.2498429693387197e-15 -1.1630971108799255" free_energy=-5.269353377279455 pbc="T T T"
Si      -0.00000000      -1.00529320      -0.39897122       0.00000000       0.00000000       0.00000000
Si      -0.00000000       1.00529320       0.39897122      -0.00000000      -0.00000000      -0.00000000
2
Lattice="4.0046513633269765 2.1464341682625076e-16 8.52889918108072e-15 2.146434168268627e-16 4.0046513633269765 -1.30313478256605e-14 2.002325681663485 2.0023256816634922 1.6090798765037562" Properties=species:S:1:pos:R:3:forces:R:3 cutoff=-1.0 nneightol=1.2 n_minim_iter=3 energy=-5.271794865339781 stress="-1.131576034884118 3.496365742488602e-16 1.7582715441379123e-15 3.496365742488602e-16 -1.1315760348841193 -1.5188835265109438e-15 1.7582715441379123e-15 -1.5188835265109438e-15 -1.1329459991253767" free_energy=-5.271794865339781 pbc="T T T"
Si      -0.00000000      -1.00116284      -0.40226997      -0.00000000      -0.00000000       0.00000000
Si      -0.00000000       1.00116284       0.40226997       0.00000000       0.00000000      -0.00000000
