2
Lattice="5.186563722499359 8.378205866112332e-17 1.0807176311847723e-14 8.378205866141928e-17 5.186563722499359 -1.7821503394936378e-14 2.593281861249676 2.5932818612496846 1.4069511401668926" Properties=species:S:1:pos:R:3:forces:R:3 cutoff=-1.0 nneightol=1.2 n_minim_iter=1 energy=-7.960019009969154 stress="0.16237227352209196 4.709070452111732e-18 1.6223225992800985e-16 4.709070452111732e-18 0.16237227352209177 1.2594384507753643e-16 1.6223225992800985e-16 1.2594384507753643e-16 0.18024403022571253" free_energy=-7.960019009969154 pbc="T T T"
Si      -0.00000000      -1.29664093      -0.35173779       0.00000000      -0.00000000       0.00000000
Si      -0.00000000       1.29664093       0.35173779      -0.00000000       0.00000000      -0.00000000
2
Lattice="5.2032964111742155 7.762804759758075e-17 1.0707885493252633e-14 7.762804759787773e-17 5.2032964111742155 -1.7663845146335313e-14 2.6016482055871046 2.601648205587113 1.3979167817865654" Properties=species:S:1:pos:R:3:forces:R:3 cutoff=-1.0 nneightol=1.2 n_minim_iter=2 energy=-7.962900824066627 stress="0.16363085615672074 1.7023076917301585e-17 2.34653885076633e-16 1.7023076917301585e-17 0.1636308561567209 1.2790701676904904e-16 2.34653885076633e-16 1.2790701676904904e-16 0.16932651396714976" free_energy=-7.962900824066627 pbc="T T T"
Si      -0.00000000      -1.30082410      -0.34947920       0.00000000      -0.00000000      -0.00000000
Si      -0.00000000       1.30082410       0.34947920      -0.00000000       0.00000000      -0.00000000
