2
Lattice="4.096803908897775 1.741588672282815e-16 8.736407227386165e-15 1.7415886722885062e-16 4.096803908897775 -1.3311874767715994e-14 2.0484019544488845 2.048401954448893 1.5887556747086766" Properties=species:S:1:pos:R:3:forces:R:3 cutoff=-1.0 nneightol=1.2 n_minim_iter=3 energy=-6.109202049850483 stress="-0.8257430284681321 -3.146774830353505e-18 1.4609933650643382e-15 -3.146774830353505e-18 -0.8257430284681321 -1.8593722572354875e-15 1.4609933650643382e-15 -1.8593722572354875e-15 -0.8264867849256242" free_energy=-6.109202049850483 pbc="T T T"
Si      -0.00000000      -1.02420098      -0.39718892      -0.00000000      -0.00000000      -0.00000000
Si      -0.00000000       1.02420098       0.39718892       0.00000000       0.00000000       0.00000000
