2
Lattice="5.470137220336605 1.0457988662206855e-16 1.1020104485612476e-14 1.0457988662282828e-16 5.470137220336605 -1.801119297964734e-14 2.7350686101682995 2.7350686101683075 1.4373394243610706" Properties=species:S:1:pos:R:3:forces:R:3 cutoff=-1.0 nneightol=1.2 n_minim_iter=1 energy=-6.840865001182012 stress="0.24335955542381563 -8.980920472892215e-18 -1.9421636786333315e-16 -8.980920472892215e-18 0.24335955542381513 7.580438245070576e-17 -1.9421636786333315e-16 7.580438245070576e-17 0.2577580440464295" free_energy=-6.840865001182012 pbc="T T T"
Si      -0.00000000      -1.36753430      -0.35933486      -0.00000000       0.00000000      -0.00000000
Si      -0.00000000       1.36753431       0.35933486       0.00000000      -0.00000000       0.00000000
