4
Lattice="1.738719878756585 -3.011551170136404 2.0744591146907927e-17 1.7387198787565845 3.011551170136404 -2.0744591146907776e-17 -2.5378301862543137e-31 4.02606014568811e-17 5.844745773451338" Properties=species:S:1:pos:R:3 cutoff=-1.0 nneightol=1.2 n_minim_iter=1 energy=-650.550891680303 free_energy=-650.550891680303 pbc="T T T"
Si       1.73871988       1.00385039       0.35666220
Si       1.73871988      -1.00385039       3.27903508
Si       1.73871988       1.00385039       2.56571069
Si       1.73871988      -1.00385039      -0.35666220
4
Lattice="1.7319135414534972 -2.999762248114004 1.4399134493580094e-17 1.7319135414534967 2.999762248114004 -1.439913449357993e-17 -3.1907247327571476e-31 5.273517388257323e-17 5.890775184914541" Properties=species:S:1:pos:R:3 cutoff=-1.0 nneightol=1.2 n_minim_iter=2 stress="-0.27510198691234333 2.9769358863736743e-16 2.1017666158936757e-16 2.9769358863736743e-16 -0.2751019869123431 -1.9937420710984212e-16 2.1017666158936757e-16 -1.9937420710984212e-16 -0.26413719081972376" pbc="T T T"
Si       1.73191354       0.99992075       0.35181015
Si       1.73191354      -0.99992075       3.29719774
Si       1.73191354       0.99992075       2.59357744
Si       1.73191354      -0.99992075      -0.35181015
4
Lattice="1.76325591130105 -3.05404882511958 3.2437545637661344e-16 1.7632559113010495 3.05404882511958 -3.24375456376614e-16 -1.313890820235131e-30 -5.411890885876622e-16 5.683216065818449" Properties=species:S:1:pos:R:3 cutoff=-1.0 nneightol=1.2 n_minim_iter=3 stress="-0.2001046776947968 -5.576086592193645e-18 2.233268734255958e-17 -5.576086592193645e-18 -0.20010467769479617 2.84165568197417e-16 2.233268734255958e-17 2.84165568197417e-16 -0.20930627906032234" pbc="T T T"
Si       1.76325591       1.01801628       0.29428078
Si       1.76325591      -1.01801628       3.13588882
Si       1.76325591       1.01801628       2.54732725
Si       1.76325591      -1.01801628      -0.29428078
4
Lattice="1.7721604392222052 -3.0694719198964364 -3.1945192299928327e-16 1.7721604392222048 3.0694719198964364 3.1945192299928347e-16 -7.89880719554469e-31 6.873236741382334e-16 5.626246939536357" Properties=species:S:1:pos:R:3 cutoff=-1.0 nneightol=1.2 n_minim_iter=4 stress="-0.15390997575599183 -1.0408488210097689e-16 -1.4340532735196862e-17 -1.0408488210097689e-16 -0.15390997575599152 -2.848493377576847e-16 -1.4340532735196862e-17 -2.848493377576847e-16 -0.18156705504008686" pbc="T T T"
Si       1.77216044       1.02315731       0.27285399
Si       1.77216044      -1.02315731       3.08597746
Si       1.77216044       1.02315731       2.54026948
Si       1.77216044      -1.02315731      -0.27285399
4
Lattice="1.7720750150865363 -3.069323960953265 8.010207066697273e-17 1.7720750150865359 3.069323960953265 -8.010207066697196e-17 -7.650846794674788e-31 -8.820202307159037e-17 5.626789387076139" Properties=species:S:1:pos:R:3 cutoff=-1.0 nneightol=1.2 n_minim_iter=5 stress="-0.11631846639715428 4.1767054039134294e-16 2.549270591958413e-16 4.1767054039134294e-16 -0.11631846639715362 -4.565551835682229e-17 2.549270591958413e-16 -4.565551835682229e-17 -0.12452217377427456" pbc="T T T"
Si       1.77207502       1.02310799       0.25095327
Si       1.77207502      -1.02310799       3.06434797
Si       1.77207502       1.02310799       2.56244142
Si       1.77207502      -1.02310799      -0.25095327
4
Lattice="1.7982100906829224 -3.114591239745858 -9.492363977050067e-16 1.7982100906829221 3.114591239745858 9.49236397705007e-16 -1.0801665316427142e-32 1.886226116873253e-15 5.464419137704644" Properties=species:S:1:pos:R:3 cutoff=-1.0 nneightol=1.2 n_minim_iter=6 stress="0.27649761372078224 6.387802128543629e-16 6.418280727959765e-17 6.387802128543629e-16 0.27649761372078396 -1.759481915784133e-16 6.418280727959765e-17 -1.759481915784133e-16 0.07416866357519919" pbc="T T T"
Si       1.79821009       1.03819708       0.04541953
Si       1.79821009      -1.03819708       2.77762910
Si       1.79821009       1.03819708       2.68679004
Si       1.79821009      -1.03819708      -0.04541953
4
Lattice="1.799050271091429 -3.116046474900914 -1.8360328371188262e-15 1.7990502710914287 3.116046474900914 1.836032837118827e-15 -2.0503945945002467e-31 3.6117619205515224e-15 5.459316416646514" Properties=species:S:1:pos:R:3 cutoff=-1.0 nneightol=1.2 n_minim_iter=7 stress="0.2857800063615237 -1.867950213877745e-16 -5.725246119309973e-17 -1.867950213877745e-16 0.28578000636152195 -2.7137230495532625e-16 -5.725246119309973e-17 -2.7137230495532625e-16 0.07207967711469045" pbc="T T T"
Si       1.79905027       1.03868216       0.03792784
Si       1.79905027      -1.03868216       2.76758605
Si       1.79905027       1.03868216       2.69173037
Si       1.79905027      -1.03868216      -0.03792784
4
Lattice="1.7848832867970623 -3.0915085383130414 -1.3601062948096788e-15 1.7848832867970623 3.0915085383130414 1.3601062948096759e-15 -1.9469485910775064e-29 2.6209249677608864e-15 5.5463237748916105" Properties=species:S:1:pos:R:3 cutoff=-1.0 nneightol=1.2 n_minim_iter=8 stress="0.08575880493531987 2.845105674559927e-16 9.450563405228407e-17 2.845105674559927e-16 0.08575880493531807 2.126878419380346e-17 9.450563405228407e-17 2.126878419380346e-17 0.1623812432664337" pbc="T T T"
Si       1.78488329       1.03050285      -0.00506346
Si       1.78488329      -1.03050285       2.76809842
Si       1.78488329       1.03050285       2.77822535
Si       1.78488329      -1.03050285       0.00506346
4
Lattice="1.7887453392174106 -3.09819780932658 -1.3939021411064317e-15 1.7887453392174106 3.09819780932658 1.3939021411064327e-15 -1.3315620663632876e-29 2.7028464858264083e-15 5.522399665980456" Properties=species:S:1:pos:R:3 cutoff=-1.0 nneightol=1.2 n_minim_iter=9 stress="0.16360360903015092 -1.4982197172462867e-17 3.181008610733981e-17 -1.4982197172462867e-17 0.16360360903015098 4.726597598186083e-16 3.181008610733981e-17 4.726597598186083e-16 0.1427336527493368" pbc="T T T"
Si       1.78874534       1.03273260      -0.00239307
Si       1.78874534      -1.03273260       2.75880676
Si       1.78874534       1.03273260       2.76359290
Si       1.78874534      -1.03273260       0.00239307
4
Lattice="1.78792499544253 -3.0967769322288143 -1.3570369513433639e-15 1.78792499544253 3.0967769322288143 1.357036951343367e-15 -9.19042296661648e-30 2.6278708365725655e-15 5.527468452980451" Properties=species:S:1:pos:R:3 cutoff=-1.0 nneightol=1.2 n_minim_iter=10 stress="0.14848287562019585 1.8039821749281528e-16 3.434018225922151e-17 1.8039821749281528e-16 0.14848287562019546 1.8421410412035645e-16 3.434018225922151e-17 1.8421410412035645e-16 0.14702522711880403" pbc="T T T"
Si       1.78792500       1.03225898       0.00037009
Si       1.78792500      -1.03225898       2.76410432
Si       1.78792500       1.03225898       2.76336414
Si       1.78792500      -1.03225898      -0.00037009
