4
Lattice="1.9613619294690896 -3.397178513871788 4.19811671536866e-18 1.9613619294690898 3.397178513871788 -4.19811671536866e-18 2.313326482927847e-36 7.966117446320375e-18 6.430391541203713" Properties=species:S:1:pos:R:3 cutoff=-1.0 nneightol=1.2 n_minim_iter=3 stress="0.02407523599057993 9.27392867468987e-17 1.935283638459657e-17 9.27392867468987e-17 0.02407523599057982 -2.524283459598327e-16 1.935283638459657e-17 -2.524283459598327e-16 0.02390150076959995" pbc="T T T"
Si       1.96136193       1.13239284       0.40049529
Si       1.96136193      -1.13239284       3.61569106
Si       1.96136193       1.13239284       2.81470048
Si       1.96136193      -1.13239284      -0.40049529
