2
Lattice="2.6271034205493815 -1.5037520875931057e-16 2.6271034205493815 2.6271034205493815 2.6271034205493815 -5.0868144664443874e-18 -9.900402901611284e-17 2.6271034205493815 2.6271034205493815" Properties=species:S:1:pos:R:3:forces:R:3 n_minim_iter=1 energy=-326.1906421894871 stress="-0.08204297372393886 -2.7061608303625173e-16 2.8413953530188514e-16 -2.7061608303625173e-16 -0.08204297372393891 -1.9991410343666453e-17 2.8413953530188514e-16 -1.9991410343666453e-17 -0.08204297372393884" free_energy=-326.1906421894871 pbc="T T T"
Si       0.00000000       0.00000000       0.00000000       0.00000000       0.00000000      -0.00000000
Si       1.31355171       1.31355171       1.31355171      -0.00000000      -0.00000000       0.00000000
