2
Lattice="2.495522979588567 -1.4284355388674115e-16 2.495522979588567 2.495522979588567 2.495522979588567 -4.8320375568849505e-18 -9.404533812753217e-17 2.495522979588567 2.495522979588567" Properties=species:S:1:pos:R:3:forces:R:3 n_minim_iter=1 energy=-325.5985400008989 stress="-0.21553248942953487 2.80107858611611e-16 3.981815438176216e-16 2.80107858611611e-16 -0.21553248942953496 -1.4733125526058656e-16 3.981815438176216e-16 -1.4733125526058656e-16 -0.21553248942953496" free_energy=-325.5985400008989 pbc="T T T"
Si       0.00000000       0.00000000       0.00000000       0.00000000       0.00000000       0.00000000
Si       1.24776149       1.24776149       1.24776149      -0.00000000      -0.00000000      -0.00000000
