2
Lattice="2.6762194936927988 -1.531866092145064e-16 2.6762194936927988 2.6762194936927988 2.6762194936927988 -5.1819170609774314e-18 -1.0085499883047649e-16 2.6762194936927988 2.6762194936927988" Properties=species:S:1:pos:R:3:forces:R:3 n_minim_iter=1 energy=-326.3421878236772 stress="-0.019955379859929307 -1.7590587625357062e-16 1.5220272975159358e-16 -1.7590587625357062e-16 -0.019955379859929352 3.713134547960221e-18 1.5220272975159358e-16 3.713134547960221e-18 -0.019955379859929304" free_energy=-326.3421878236772 pbc="T T T"
Si       0.00000000       0.00000000       0.00000000      -0.00000000       0.00000000      -0.00000000
Si       1.33810975       1.33810975       1.33810975       0.00000000      -0.00000000       0.00000000
