2
Lattice="2.5497903973514444 -1.4594981693336867e-16 2.5497903973514444 2.5497903973514444 2.5497903973514444 -4.937114610027783e-18 -9.609043957302527e-17 2.5497903973514444 2.5497903973514444" Properties=species:S:1:pos:R:3:forces:R:3 n_minim_iter=1 energy=-325.8003876384252 stress="-0.17505313876971462 -4.739069676952179e-16 6.138658753713675e-16 -4.739069676952179e-16 -0.17505313876971476 1.0052960566061747e-15 6.138658753713675e-16 1.0052960566061747e-15 -0.17505313876971476" free_energy=-325.8003876384252 pbc="T T T"
Si       0.00000000       0.00000000       0.00000000       0.00000000       0.00000000      -0.00000000
Si       1.27489520       1.27489520       1.27489520      -0.00000000      -0.00000000       0.00000000
