5
Lattice="50.0 0.0 0.0 0.0 50.0 0.0 0.0 0.0 50.0" Properties=species:S:1:pos:R:3:forces:R:3 cutoff=-1.0 nneightol=1.2 energy=-1083.6999453516398 stress="-1.1474295206426177e-05 2.9884657124057412e-05 -4.220010396238649e-06 2.9884657124057412e-05 -5.0473805458750576e-05 7.798729711794294e-06 -4.220010396238649e-06 7.798729711794294e-06 3.620752067945432e-06" pbc="F F F"
C       24.74768067      24.91281756      24.75022287      -3.49723673       6.45470667      -0.91095406
H       24.75397917      24.76935119      25.33278422       2.12533283      -3.76305270      -0.16017103
H       24.46131332      24.48500408      24.44205187       2.48468542      -3.41351628       0.93562889
H       25.31123367      24.96040622      24.54986486       1.44304478      -3.99809909       0.80241573
H       24.23152637      25.86606331      24.61555231      -2.55582643       4.71996069      -0.66691929
5
Lattice="50.0 0.0 0.0 0.0 50.0 0.0 0.0 0.0 50.0" Properties=species:S:1:pos:R:3:forces:R:3 cutoff=-1.0 nneightol=1.2 energy=-1083.801378919079 stress="-7.196324077085592e-06 1.9697281459229998e-05 -2.7873454655491514e-06 1.9697281459229998e-05 -3.2908756111282855e-05 5.138379947311478e-06 -2.7873454655491514e-06 5.138379947311478e-06 2.7367714210413396e-06" pbc="F F F"
C       24.74768067      24.91281756      24.75022287      -5.16390848       9.53181076      -1.34534287
H       24.75424161      24.76337342      25.35705761       2.19309473      -3.93325734       0.06849766
H       24.44938135      24.46717852      24.42921141       2.44601011      -3.68705940       0.83929896
H       25.33471505      24.96238908      24.54151661       1.70927954      -4.09976196       0.74708575
H       24.23152637      25.86606331      24.61555231      -1.18447518       2.18826723      -0.30953962
5
Lattice="50.0 0.0 0.0 0.0 50.0 0.0 0.0 0.0 50.0" Properties=species:S:1:pos:R:3:forces:R:3 cutoff=-1.0 nneightol=1.2 energy=-1083.5625277561987 stress="4.2208277591271326e-05 2.1906016627326608e-05 -3.0868045541865285e-06 2.1906016627326608e-05 1.3630950888909865e-05 5.722245077777188e-06 -3.0868045541865285e-06 5.722245077777188e-06 5.32996746187564e-05" pbc="F F F"
C       24.74768067      24.91281756      24.75022287      -7.46836472      13.78864098      -1.94694805
H       24.75450405      24.75739566      25.38133100       3.20784473      -4.21346664      -6.71891785
H       24.43744938      24.44935295      24.41637095       7.01411104      -0.51519394       4.86859035
H       25.35819642      24.96437194      24.53316836      -4.03239918      -6.69732237       3.46335673
H       24.23152637      25.86606331      24.61555231       1.27880788      -2.36265874       0.33391887
5
Lattice="50.0 0.0 0.0 0.0 50.0 0.0 0.0 0.0 50.0" Properties=species:S:1:pos:R:3:forces:R:3 cutoff=-1.0 nneightol=1.2 energy=-1083.6463861443615 stress="-4.318627543398179e-05 -4.363657353678718e-06 6.346322720673925e-07 -4.363657353678718e-06 -3.744947389350273e-05 -1.133566343014536e-06 6.346322720673925e-07 -1.133566343014536e-06 -4.5328713895287365e-05" pbc="F F F"
C       24.74768067      24.91281756      24.75022287      -9.77278328      18.04503632      -2.54901862
H       24.75476648      24.75141789      25.40560439       2.29148126      -5.62434292       6.71581364
H       24.42551740      24.43152739      24.40353049      -0.79089499      -8.61896515      -2.66290188
H       25.38167780      24.96635480      24.52482011       8.17017746      -3.61141109      -1.53113866
H       24.23152637      25.86606331      24.61555231       0.10202026      -0.19031727       0.02724564
5
Lattice="50.0 0.0 0.0 0.0 50.0 0.0 0.0 0.0 50.0" Properties=species:S:1:pos:R:3:forces:R:3 cutoff=-1.0 nneightol=1.2 energy=-1084.6823388351245 stress="-0.00011645838094409555 -3.359708716743626e-05 4.7652652028773446e-06 -3.359708716743626e-05 -7.256700337165967e-05 -8.76155354490038e-06 4.7652652028773446e-06 -8.76155354490038e-06 -0.00013335504627320915" pbc="F F F"
C       24.74768067      24.91281756      24.75022287     -12.32892036      22.76564407      -3.21590543
H       24.75502892      24.74544013      25.42987778       1.52330494      -6.77614450      17.85125923
H       24.41358543      24.41370183      24.39069003      -7.27041531     -15.31957817      -8.91021919
H       25.40515917      24.96833766      24.51647186      18.27411652      -1.03490448      -5.67361975
H       24.23152637      25.86606331      24.61555231      -0.19808412       0.36498410      -0.05151457
5
Lattice="50.0 0.0 0.0 0.0 50.0 0.0 0.0 0.0 50.0" Properties=species:S:1:pos:R:3:forces:R:3 cutoff=-1.0 nneightol=1.2 energy=-1086.4285308605115 stress="-0.00016693245561327785 -5.78461003897246e-05 8.179566975741182e-06 -5.78461003897246e-05 -9.142198541667312e-05 -1.5088863619894255e-05 8.179566975741182e-06 -1.5088863619894255e-05 -0.00019610983144957572" pbc="F F F"
C       24.74768067      24.91281756      24.75022287     -14.56231117      26.89386177      -3.79994082
H       24.75529136      24.73946236      25.45415117       1.06190443      -7.59210873      25.09787750
H       24.40165346      24.39587627      24.37784958     -11.44326305     -19.74098969     -12.96138573
H       25.42864055      24.97032052      24.50812361      24.87115097       0.57159615      -8.35454082
H       24.23152637      25.86606331      24.61555231       0.07251883      -0.13235819       0.01798886
5
Lattice="50.0 0.0 0.0 0.0 50.0 0.0 0.0 0.0 50.0" Properties=species:S:1:pos:R:3:forces:R:3 cutoff=-1.0 nneightol=1.2 energy=-1088.78425770837 stress="-0.00023784975928720087 -8.699028694536537e-05 1.2286091987334657e-05 -8.699028694536537e-05 -0.00012432278890628368 -2.2696496671414934e-05 1.2286091987334657e-05 -2.2696496671414934e-05 -0.0002817781060002744" pbc="F F F"
C       24.74768067      24.91281756      24.75022287     -16.26223755      30.04592133      -4.24935722
H       24.75555380      24.73348460      25.47842456       0.26227629      -8.30851173      34.56137466
H       24.38972149      24.37805071      24.36500912     -17.11489868     -25.19052696     -18.32837296
H       25.45212192      24.97230338      24.49977536      33.34041214       3.03483582     -11.92380047
H       24.23152637      25.86606331      24.61555231      -0.22555566       0.41828203      -0.05984473
5
Lattice="50.0 0.0 0.0 0.0 50.0 0.0 0.0 0.0 50.0" Properties=species:S:1:pos:R:3:forces:R:3 cutoff=-1.0 nneightol=1.2 energy=-1091.3035848869094 stress="-0.00022564690152648836 -8.165841427398846e-05 1.15448428914533e-05 -8.165841427398846e-05 -0.00011905433348147199 -2.1304589608917013e-05 1.15448428914533e-05 -2.1304589608917013e-05 -0.00026684041949920356" pbc="F F F"
C       24.74768067      24.91281756      24.75022287     -14.31978893      26.45336914      -3.73930430
H       24.75581623      24.72750683      25.50269795       0.10899979      -7.37297058      31.63564873
H       24.37778951      24.36022514      24.35216866     -15.81505013     -22.84386444     -16.82906723
H       25.47560330      24.97428624      24.49142711      30.42665291       3.02240300     -10.96214962
H       24.23152637      25.86606331      24.61555231      -0.40081215       0.74106181      -0.10512811
5
Lattice="50.0 0.0 0.0 0.0 50.0 0.0 0.0 0.0 50.0" Properties=species:S:1:pos:R:3:forces:R:3 cutoff=-1.0 nneightol=1.2 energy=-1093.6428078369524 stress="-0.00019634063937701285 -7.033972360659391e-05 9.938832590705715e-06 -7.033972360659391e-05 -0.00010453628055984154 -1.83521187864244e-05 9.938832590705715e-06 -1.83521187864244e-05 -0.00023184325254987925" pbc="F F F"
C       24.74768067      24.91281756      24.75022287     -11.81881618      21.83512115      -3.08706141
H       24.75607867      24.72152907      25.52697134       0.05413958      -6.13469601      26.61520386
H       24.36585754      24.34239958      24.33932820     -13.34773636     -19.15494728     -14.17374229
H       25.49908467      24.97626911      24.48307886      25.56691360       2.61387134      -9.23507309
H       24.23152637      25.86606331      24.61555231      -0.45450163       0.84065253      -0.11932775
5
Lattice="50.0 0.0 0.0 0.0 50.0 0.0 0.0 0.0 50.0" Properties=species:S:1:pos:R:3:forces:R:3 cutoff=-1.0 nneightol=1.2 energy=-1095.4726911922276 stress="-0.00016462341591250151 -5.851133028045297e-05 8.267918929050211e-06 -5.851133028045297e-05 -8.825016266200691e-05 -1.526712549093645e-05 8.267918929050211e-06 -1.526712549093645e-05 -0.00019415272981859744" pbc="F F F"
C       24.74768067      24.91281756      24.75022287      -9.99618435      18.46426964      -2.60978293
H       24.75634111      24.71555130      25.55124473       0.16682294      -5.20743418      21.64318466
H       24.35392557      24.32457402      24.32648774     -10.71541119     -15.77977753     -11.47720528
H       25.52256605      24.97825197      24.47473061      20.88359261       1.89604950      -7.46711063
H       24.23152637      25.86606331      24.61555231      -0.33882138       0.62689292      -0.08908531
5
Lattice="50.0 0.0 0.0 0.0 50.0 0.0 0.0 0.0 50.0" Properties=species:S:1:pos:R:3:forces:R:3 cutoff=-1.0 nneightol=1.2 energy=-1097.006401311349 stress="-0.00013257180398795754 -4.7777339204913005e-05 6.749653948645573e-06 -4.7777339204913005e-05 -7.021512283245102e-05 -1.246562442247523e-05 6.749653948645573e-06 -1.246562442247523e-05 -0.00015668799460399896" pbc="F F F"
C       24.74768067      24.91281756      24.75022287      -7.85598469      14.51473141      -2.05243516
H       24.75660355      24.70957354      25.57551812       0.12047639      -4.06149769      16.95294189
H       24.34199360      24.30674846      24.31364728      -8.40466404     -12.34378529      -8.99356270
H       25.54604742      24.98023483      24.46638235      16.34932709       1.50358760      -5.85191679
H       24.23152637      25.86606331      24.61555231      -0.20915362       0.38696462      -0.05502589
5
Lattice="50.0 0.0 0.0 0.0 50.0 0.0 0.0 0.0 50.0" Properties=species:S:1:pos:R:3:forces:R:3 cutoff=-1.0 nneightol=1.2 energy=-1098.0718049162226 stress="-9.753250196808949e-05 -3.318265589768998e-05 4.6909226512070745e-06 -3.318265589768998e-05 -5.421633250080049e-05 -8.657199941808358e-06 4.6909226512070745e-06 -8.657199941808358e-06 -0.00011427324352553114" pbc="F F F"
C       24.74768067      24.91281756      24.75022287      -5.58746195      10.32094479      -1.45890582
H       24.75686598      24.70359577      25.59979151       0.14931704      -2.99411631      12.02081680
H       24.33006162      24.28892290      24.30080683      -5.88726616      -8.85873699      -6.35153866
H       25.56952880      24.98221769      24.45803410      11.64214706       0.94652766      -4.12742710
H       24.23152637      25.86606331      24.61555231      -0.31673676       0.58538067      -0.08294518
5
Lattice="50.0 0.0 0.0 0.0 50.0 0.0 0.0 0.0 50.0" Properties=species:S:1:pos:R:3:forces:R:3 cutoff=-1.0 nneightol=1.2 energy=-1098.9609618384666 stress="-9.216369653586298e-05 -3.102391565334983e-05 4.386879936646437e-06 -3.102391565334983e-05 -5.1662573241628706e-05 -8.094865734165069e-06 4.386879936646437e-06 -8.094865734165069e-06 -0.00010781000310089439" pbc="F F F"
C       24.74768067      24.91281756      24.75022287      -5.04350948       9.31607246      -1.31666684
H       24.75712842      24.69761800      25.62406490       0.12737113      -2.72852755      11.02230835
H       24.31812965      24.27109734      24.28796637      -5.40912628      -8.10747528      -5.82780790
H       25.59301017      24.98420055      24.44968585      10.66864777       0.88558424      -3.78807020
H       24.23152637      25.86606331      24.61555231      -0.34338301       0.63434637      -0.08976321
5
Lattice="50.0 0.0 0.0 0.0 50.0 0.0 0.0 0.0 50.0" Properties=species:S:1:pos:R:3:forces:R:3 cutoff=-1.0 nneightol=1.2 energy=-1099.7503186744848 stress="-8.129503839882091e-05 -2.6601366698741913e-05 3.7597849313897314e-06 -2.6601366698741913e-05 -4.65721168438904e-05 -6.940928415133385e-06 3.7597849313897314e-06 -6.940928415133385e-06 -9.471787780057639e-05" pbc="F F F"
C       24.74768067      24.91281756      24.75022287      -4.28937578       7.92384195      -1.12016082
H       24.75739086      24.69164024      25.64833829       0.12784770      -2.36668086       9.42469120
H       24.30619768      24.25327177      24.27512591      -4.60361099      -6.96342659      -4.97554159
H       25.61649155      24.98618341      24.44133760       9.13554382       0.72187328      -3.23211932
H       24.23152637      25.86606331      24.61555231      -0.37040570       0.68439233      -0.09686936
5
Lattice="50.0 0.0 0.0 0.0 50.0 0.0 0.0 0.0 50.0" Properties=species:S:1:pos:R:3:forces:R:3 cutoff=-1.0 nneightol=1.2 energy=-1100.4351984008051 stress="-7.267040200531483e-05 -2.335042336198967e-05 3.3026424262061482e-06 -2.335042336198967e-05 -4.21841032220982e-05 -6.092694093240425e-06 3.3026424262061482e-06 -6.092694093240425e-06 -8.444330887869e-05" pbc="F F F"
C       24.74768067      24.91281756      24.75022287      -3.61069846       6.66801357      -0.94195896
H       24.75765330      24.68566247      25.67261168       0.09625430      -2.02684903       8.17591190
H       24.29426570      24.23544621      24.26228545      -4.01041317      -6.01661491      -4.32233524
H       25.63997292      24.98816627      24.43298935       7.91541767       0.65386325      -2.80949593
H       24.23152637      25.86606331      24.61555231      -0.39056015       0.72158748      -0.10212182
5
Lattice="50.0 0.0 0.0 0.0 50.0 0.0 0.0 0.0 50.0" Properties=species:S:1:pos:R:3:forces:R:3 cutoff=-1.0 nneightol=1.2 energy=-1101.0005295328117 stress="-5.915630390518345e-05 -1.945095391420182e-05 2.750280145846773e-06 -1.945095391420182e-05 -3.376156018930487e-05 -5.075275566923665e-06 2.750280145846773e-06 -5.075275566923665e-06 -6.896548438817263e-05" pbc="F F F"
C       24.74768067      24.91281756      24.75022287      -2.80689406       5.18365240      -0.73232734
H       24.75791573      24.67968471      25.69688507       0.04889560      -1.56188142       6.50019550
H       24.28233373      24.21762065      24.24944499      -3.21973681      -4.73737812      -3.44753528
H       25.66345430      24.99014913      24.42464110       6.27209425       0.57172453      -2.24331236
H       24.23152637      25.86606331      24.61555231      -0.29435933       0.54388225      -0.07702073
5
Lattice="50.0 0.0 0.0 0.0 50.0 0.0 0.0 0.0 50.0" Properties=species:S:1:pos:R:3:forces:R:3 cutoff=-1.0 nneightol=1.2 energy=-1101.4492044189412 stress="-4.526416159933433e-05 -1.5531293684034608e-05 2.1948224002699135e-06 -1.5531293684034608e-05 -2.4988781660795212e-05 -4.0524150790588465e-06 2.1948224002699135e-06 -4.0524150790588465e-06 -5.3099422075320035e-05" pbc="F F F"
C       24.74768067      24.91281756      24.75022287      -2.08960891       3.85927749      -0.54527211
H       24.75817817      24.67370694      25.72115846       0.01519574      -1.13305593       4.87589216
H       24.27040176      24.19979509      24.23660453      -2.43951321      -3.51774025      -2.59469748
H       25.68693567      24.99213199      24.41629285       4.68831015       0.46922347      -1.69020677
H       24.23152637      25.86606331      24.61555231      -0.17438382       0.32229513      -0.04571586
5
Lattice="50.0 0.0 0.0 0.0 50.0 0.0 0.0 0.0 50.0" Properties=species:S:1:pos:R:3:forces:R:3 cutoff=-1.0 nneightol=1.2 energy=-1101.733969604868 stress="-2.7094540200778283e-05 -9.404096090293024e-06 1.3291180493979482e-06 -9.404096090293024e-06 -1.481599156250013e-05 -2.4536766431992874e-06 1.3291180493979482e-06 -2.4536766431992874e-06 -3.1836647394811735e-05" pbc="F F F"
C       24.74768067      24.91281756      24.75022287      -1.17739713       2.17395353      -0.30696857
H       24.75844061      24.66772918      25.74543185      -0.00493709      -0.63718522       2.84875178
H       24.25846979      24.18196953      24.22376408      -1.44103336      -2.03223634      -1.52157807
H       25.71041705      24.99411485      24.40794460       2.72904968       0.30016586      -0.99246007
H       24.23152637      25.86606331      24.61555231      -0.10568205       0.19530228      -0.02774518
5
Lattice="50.0 0.0 0.0 0.0 50.0 0.0 0.0 0.0 50.0" Properties=species:S:1:pos:R:3:forces:R:3 cutoff=-1.0 nneightol=1.2 energy=-1101.925998517388 stress="-2.113173650286626e-05 -7.439527053065831e-06 1.0503609928491642e-06 -7.439527053065831e-06 -1.1419881957408506e-05 -1.941129539773101e-06 1.0503609928491642e-06 -1.941129539773101e-06 -2.4885894163162448e-05" pbc="F F F"
C       24.74768067      24.91281756      24.75022287      -0.86597097       1.59909248      -0.22582147
H       24.75870305      24.66175141      25.76970524      -0.01430535      -0.46667072       2.17130256
H       24.24653781      24.16414396      24.21092362      -1.11030233      -1.53128004      -1.16401815
H       25.73389842      24.99609771      24.39959635       2.07182360       0.24865186      -0.76007873
H       24.23152637      25.86606331      24.61555231      -0.08124483       0.15020645      -0.02138430
5
Lattice="50.0 0.0 0.0 0.0 50.0 0.0 0.0 0.0 50.0" Properties=species:S:1:pos:R:3:forces:R:3 cutoff=-1.0 nneightol=1.2 energy=-1102.0391108064593 stress="-8.119473022816237e-06 -2.418996700725984e-06 3.392119367617852e-07 -2.418996700725984e-06 -4.964232630300103e-06 -6.310368121376086e-07 3.392119367617852e-07 -6.310368121376086e-07 -9.345665603177622e-06" pbc="F F F"
C       24.74768067      24.91281756      24.75022287      -0.27771914       0.51227760      -0.07218201
H       24.75896548      24.65577365      25.79397863      -0.00257454      -0.17531665       0.79587680
H       24.23460584      24.14631840      24.19808316      -0.40406686      -0.56511599      -0.42584506
H       25.75737980      24.99808057      24.39124810       0.76080906       0.08661950      -0.27762115
H       24.23152637      25.86606331      24.61555231      -0.07644855       0.14153554      -0.02022859
5
Lattice="50.0 0.0 0.0 0.0 50.0 0.0 0.0 0.0 50.0" Properties=species:S:1:pos:R:3:forces:R:3 cutoff=-1.0 nneightol=1.2 energy=-1102.0657168641237 stress="2.3365947754427907e-07 9.503143587608065e-07 -1.3708267943002284e-07 9.503143587608065e-07 -1.0087145483339555e-06 2.4803105702631e-07 -1.3708267943002284e-07 2.4803105702631e-07 7.079849524416204e-07" pbc="F F F"
C       24.74768067      24.91281756      24.75022287       0.10724078      -0.19917905       0.02851205
H       24.75922792      24.64979588      25.81825202       0.00384490       0.00756955      -0.06049815
H       24.22267387      24.12849284      24.18524270       0.03459669       0.03772567       0.03340569
H       25.78086118      25.00006343      24.38289985      -0.05569016      -0.01267836       0.02235773
H       24.23152637      25.86606331      24.61555231      -0.08999221       0.16656223      -0.02377733
5
Lattice="50.0 0.0 0.0 0.0 50.0 0.0 0.0 0.0 50.0" Properties=species:S:1:pos:R:3:forces:R:3 cutoff=-1.0 nneightol=1.2 energy=-1102.0322781939801 stress="7.863422979426105e-06 4.02918340114411e-06 -5.725044616156083e-07 4.02918340114411e-06 2.6018431071861414e-06 1.0514278301343438e-06 -5.725044616156083e-07 1.0514278301343438e-06 9.890604815154802e-06" pbc="F F F"
C       24.74768067      24.91281756      24.75022287       0.44332784      -0.82025045       0.11636128
H       24.75949036      24.64381812      25.84252541       0.00960254       0.16688201      -0.80774510
H       24.21074189      24.11066728      24.17240224       0.41756991       0.56353498       0.43421623
H       25.80434255      25.00204630      24.37455160      -0.76814193      -0.09961022       0.28419548
H       24.23152637      25.86606331      24.61555231      -0.10235830       0.18944374      -0.02702785
5
Lattice="50.0 0.0 0.0 0.0 50.0 0.0 0.0 0.0 50.0" Properties=species:S:1:pos:R:3:forces:R:3 cutoff=-1.0 nneightol=1.2 energy=-1101.9390394532777 stress="1.727454218780622e-05 7.578205440950114e-06 -1.0750287628980004e-06 7.578205440950114e-06 7.378766895271838e-06 1.9775618511630455e-06 -1.0750287628980004e-06 1.9775618511630455e-06 2.1090119844302535e-05" pbc="F F F"
C       24.74768067      24.91281756      24.75022287       0.81737006      -1.51117527       0.21401264
H       24.75975280      24.63784035      25.86679880       0.01477082       0.35635865      -1.68314552
H       24.19880992      24.09284172      24.15956178       0.86443204       1.18218803       0.90314174
H       25.82782393      25.00402916      24.36620335      -1.60416865      -0.19848335       0.59045821
H       24.23152637      25.86606331      24.61555231      -0.09240419       0.17111197      -0.02446715
5
Lattice="50.0 0.0 0.0 0.0 50.0 0.0 0.0 0.0 50.0" Properties=species:S:1:pos:R:3:forces:R:3 cutoff=-1.0 nneightol=1.2 energy=-1101.779576209771 stress="2.5352179363835603e-05 1.0767446838144679e-05 -1.5264342891896376e-06 1.0767446838144679e-05 1.1292094313830603e-05 2.8097381346015027e-06 -1.5264342891896376e-06 2.8097381346015027e-06 3.0774717743042856e-05" pbc="F F F"
C       24.74768067      24.91281756      24.75022287       1.11865234      -2.06751156       0.29259905
H       24.76001523      24.63186258      25.89107219       0.02431228       0.50241888      -2.40201902
H       24.18687795      24.07501616      24.14672132       1.23742497       1.68136930       1.29037678
H       25.85130530      25.00601202      24.35785510      -2.28674412      -0.28968441       0.84383917
H       24.23152637      25.86606331      24.61555231      -0.09364550       0.17340758      -0.02479599
5
Lattice="50.0 0.0 0.0 0.0 50.0 0.0 0.0 0.0 50.0" Properties=species:S:1:pos:R:3:forces:R:3 cutoff=-1.0 nneightol=1.2 energy=-1101.5857428803483 stress="2.9448197892634198e-05 1.2656211765715852e-05 -1.79381368070608e-06 1.2656211765715852e-05 1.292141132580582e-05 3.3026365144905867e-06 -1.79381368070608e-06 3.3026365144905867e-06 3.58224606316071e-05" pbc="F F F"
C       24.74768067      24.91281756      24.75022287       1.21559596      -2.24641490       0.31783101
H       24.76027767      24.62588482      25.91534558       0.04664624       0.53758472      -2.73310804
H       24.17494598      24.05719059      24.13388087       1.42952490       1.88147175       1.47593021
H       25.87478668      25.00799488      24.34950685      -2.58768630      -0.36532751       0.96686381
H       24.23152637      25.86606331      24.61555231      -0.10408077       0.19268617      -0.02751672
5
Lattice="50.0 0.0 0.0 0.0 50.0 0.0 0.0 0.0 50.0" Properties=species:S:1:pos:R:3:forces:R:3 cutoff=-1.0 nneightol=1.2 energy=-1101.3548339800716 stress="3.5793073038803414e-05 1.541597885079682e-05 -2.183599917771062e-06 1.541597885079682e-05 1.566413811815437e-05 4.022792381874751e-06 -2.183599917771062e-06 4.022792381874751e-06 4.3560576159507036e-05" pbc="F F F"
C       24.74768067      24.91281756      24.75022287       1.44034159      -2.66170812       0.37658364
H       24.76054011      24.61990705      25.93961896       0.05878470       0.63423121      -3.25486565
H       24.16301400      24.03936503      24.12104041       1.70612133       2.23502469       1.75906432
H       25.89826805      25.00997774      24.34115860      -3.07893109      -0.44129813       1.15252590
H       24.23152637      25.86606331      24.61555231      -0.12631652       0.23375013      -0.03330822
5
Lattice="50.0 0.0 0.0 0.0 50.0 0.0 0.0 0.0 50.0" Properties=species:S:1:pos:R:3:forces:R:3 cutoff=-1.0 nneightol=1.2 energy=-1101.0892519219874 stress="4.1494065953884274e-05 1.7805927200242877e-05 -2.5210267722286517e-06 1.7805927200242877e-05 1.8246106264996342e-05 4.646435172617203e-06 -2.5210267722286517e-06 4.646435172617203e-06 5.046839942224324e-05" pbc="F F F"
C       24.74768067      24.91281756      24.75022287       1.62684619      -3.00630236       0.42530963
H       24.76080255      24.61392929      25.96389235       0.06770179       0.71812218      -3.69517875
H       24.15108203      24.02153947      24.10819995       1.93806076       2.53557038       1.99750185
H       25.92174943      25.01196060      24.33281035      -3.49444127      -0.50297511       1.30873835
H       24.23152637      25.86606331      24.61555231      -0.13816765       0.25558501      -0.03637100
5
Lattice="50.0 0.0 0.0 0.0 50.0 0.0 0.0 0.0 50.0" Properties=species:S:1:pos:R:3:forces:R:3 cutoff=-1.0 nneightol=1.2 energy=-1100.7913769824002 stress="4.673478179029189e-05 1.9875378711731173e-05 -2.8140636914031347e-06 1.9875378711731173e-05 2.0784022126463242e-05 5.186567705095513e-06 -2.8140636914031347e-06 5.186567705095513e-06 5.6751228839857504e-05" pbc="F F F"
C       24.74768067      24.91281756      24.75022287       1.76495945      -3.26122117       0.46127775
H       24.76106498      24.60795152      25.98816574       0.07760079       0.78604054      -4.07252073
H       24.13915006      24.00371391      24.09535949       2.13939190       2.78949332       2.20274162
H       25.94523080      25.01394346      24.32446210      -3.84915376      -0.56000751       1.44348216
H       24.23152637      25.86606331      24.61555231      -0.13279811       0.24569470      -0.03498072
5
Lattice="50.0 0.0 0.0 0.0 50.0 0.0 0.0 0.0 50.0" Properties=species:S:1:pos:R:3:forces:R:3 cutoff=-1.0 nneightol=1.2 energy=-1100.4777390606107 stress="4.8477282689418644e-05 2.083793151541613e-05 -2.9490774977602996e-06 2.083793151541613e-05 2.1272455342113972e-05 5.437518666440155e-06 -2.9490774977602996e-06 5.437518666440155e-06 5.8982808695873246e-05" pbc="F F F"
C       24.74768067      24.91281756      24.75022287       1.84708881      -3.41296673       0.48274133
H       24.76132742      24.60197376      26.01243913       0.07384728       0.81089431      -4.15309048
H       24.12721809      23.98588835      24.08251903       2.17573667       2.85325336       2.24425721
H       25.96871218      25.01592632      24.31611385      -3.92889857      -0.56132370       1.47011697
H       24.23152637      25.86606331      24.61555231      -0.16777402       0.31014302      -0.04402488
5
Lattice="50.0 0.0 0.0 0.0 50.0 0.0 0.0 0.0 50.0" Properties=species:S:1:pos:R:3:forces:R:3 cutoff=-1.0 nneightol=1.2 energy=-1100.1471138059862 stress="5.481453990796581e-05 2.2898655515746213e-05 -3.2407062917627627e-06 2.2898655515746213e-05 2.491917803126853e-05 5.975082785880659e-06 -3.2407062917627627e-06 5.975082785880659e-06 6.635898171225563e-05" pbc="F F F"
C       24.74768067      24.91281756      24.75022287       2.03086495      -3.75237536       0.53070372
H       24.76158986      24.59599599      26.03671252       0.06733285       0.92091417      -4.58660650
H       24.11528611      23.96806278      24.06967857       2.38676977       3.17463350       2.47286129
H       25.99219355      25.01790918      24.30776560      -4.34966612      -0.59332824       1.61858797
H       24.23152637      25.86606331      24.61555231      -0.13530144       0.25015610      -0.03554616
5
Lattice="50.0 0.0 0.0 0.0 50.0 0.0 0.0 0.0 50.0" Properties=species:S:1:pos:R:3:forces:R:3 cutoff=-1.0 nneightol=1.2 energy=-1099.779632941414 stress="5.979929483146407e-05 2.4022652723942883e-05 -3.399686193006346e-06 2.4022652723942883e-05 2.8436708817025647e-05 6.26837527306634e-06 -3.399686193006346e-06 6.26837527306634e-06 7.191036274889484e-05" pbc="F F F"
C       24.74768067      24.91281756      24.75022287       2.09812117      -3.87659645       0.54824120
H       24.76185230      24.59001823      26.06098591       0.06241826       0.99596983      -4.87867355
H       24.10335414      23.95023722      24.05683812       2.52837157       3.39201856       2.62667489
H       26.01567493      25.01989204      24.29941735      -4.63353443      -0.61392397       1.71843457
H       24.23152637      25.86606331      24.61555231      -0.05537610       0.10253178      -0.01467741
5
Lattice="50.0 0.0 0.0 0.0 50.0 0.0 0.0 0.0 50.0" Properties=species:S:1:pos:R:3:forces:R:3 cutoff=-1.0 nneightol=1.2 energy=-1099.4032579470056 stress="6.228218990145251e-05 2.4371025574509986e-05 -3.448784582360531e-06 2.4371025574509986e-05 3.046554047614336e-05 6.3591737671231385e-06 -3.448784582360531e-06 6.3591737671231385e-06 7.456930325133726e-05" pbc="F F F"
C       24.74768067      24.91281756      24.75022287       2.07257605      -3.82933950       0.54152608
H       24.76211473      24.58404046      26.08525930       0.06212594       1.01628411      -4.96613264
H       24.09142217      23.93241166      24.04399766       2.57211494       3.45510554       2.67324209
H       26.03915630      25.02187490      24.29106910      -4.71758938      -0.62235832       1.74874878
H       24.23152637      25.86606331      24.61555231       0.01077259      -0.01969223       0.00261577
5
Lattice="50.0 0.0 0.0 0.0 50.0 0.0 0.0 0.0 50.0" Properties=species:S:1:pos:R:3:forces:R:3 cutoff=-1.0 nneightol=1.2 energy=-1099.0240658716164 stress="6.2252685893327e-05 2.4652339561725967e-05 -3.4877900816354668e-06 2.4652339561725967e-05 3.0070406864979304e-05 6.432372174458578e-06 -3.4877900816354668e-06 6.432372174458578e-06 7.468483090633526e-05" pbc="F F F"
C       24.74768067      24.91281756      24.75022287       2.07592893      -3.83575702       0.54250973
H       24.76237717      24.57806270      26.10953269       0.05977323       1.00226104      -4.88595724
H       24.07949019      23.91458610      24.03115720       2.52903414       3.40147114       2.62952662
H       26.06263768      25.02385776      24.28272084      -4.64216805      -0.60979927       1.71996522
H       24.23152637      25.86606331      24.61555231      -0.02256812       0.04182418      -0.00604427
5
Lattice="50.0 0.0 0.0 0.0 50.0 0.0 0.0 0.0 50.0" Properties=species:S:1:pos:R:3:forces:R:3 cutoff=-1.0 nneightol=1.2 energy=-1098.6481594107915 stress="6.387216126313433e-05 2.5719471523188986e-05 -3.6388166790857213e-06 2.5719471523188986e-05 3.029639810847584e-05 6.7107926042808685e-06 -3.6388166790857213e-06 6.7107926042808685e-06 7.684141746722162e-05" pbc="F F F"