10
Lattice="7.471860272986833 0.39194200080075703 -0.9251044795879075 -1.1720720874297486 3.7517032846359575 -0.053058573852339315 -5.102743247778916 -2.2586039632509336 7.859831496037269" Properties=species:S:1:pos:R:3:forces:R:3 unique_starting_index=68 config_type=initial n_minim_iter=1 energy=-1628.1518729113334 stress="8.303706004568457e-05 -5.55976429168183e-05 5.6478590228911194e-05 -5.55976429168183e-05 9.03360671031151e-06 2.9270751908077206e-05 5.6478590228911194e-05 2.9270751908077206e-05 0.00016706993949445936" free_energy=-1628.1518729113334 pbc="T T T"
Si      -0.68925573       0.67548123       2.14180059      -0.01345704      -0.00055001       0.00663445
Si      -4.10333797       1.32434295       6.57253578      -0.02215159       0.00311734      -0.00334712
Si       4.84196648       3.42587724      -0.69599022       0.00012836       0.01250869       0.01445237
Si       1.34156162       0.31444686       5.39043372       0.00051560      -0.00341608      -0.02221450
Si      -2.00378469       1.51959908       5.52618972       0.00991011       0.01416767      -0.00402353
Si      -0.81328301      -0.17153836       4.35309790       0.00784877       0.00800255       0.00899759
Si       2.54488605       0.46320444       0.99247081       0.00643227      -0.00595697      -0.02825269
Si       1.20147414       2.10685228       2.01038524       0.00345608      -0.00353463       0.00296943
Si       4.61699312       1.42309664       0.45755488      -0.00740889      -0.03534891       0.02142840
Si       1.62726853       2.46450302       4.30209609       0.01472632       0.01101036       0.00335561
10
Lattice="7.470276141001022 0.3932148033303252 -0.9259130253143043 -1.171176418161594 3.7514206197969706 -0.053159391867517586 -5.103165793563707 -2.260034539412615 7.857051772456932" Properties=species:S:1:pos:R:3:forces:R:3 unique_starting_index=68 config_type=initial n_minim_iter=2 energy=-1628.1519149720189 stress="-0.0003211908346402094 6.71359692581621e-05 -9.032979124732659e-05 6.71359692581621e-05 -0.00017556072932644118 -0.00012028968950511486 -9.032979124732659e-05 -0.00012028968950511486 -0.00038332220529594085" free_energy=-1628.1519149720189 pbc="T T T"
Si      -0.68952379       0.67516275       2.14091351      -0.00290453       0.00186930       0.00817286
Si      -4.10352909       1.32313343       6.56986408      -0.01236176      -0.00170398      -0.00922884
Si       4.84146890       3.42680588      -0.69653030       0.00390944       0.00167890       0.01789027
Si       1.34041419       0.31414863       5.38725936       0.00292804      -0.00225883      -0.01752691
Si      -2.00382053       1.51896966       5.52365474       0.00216298       0.01691160      -0.00344925
Si      -0.81371550      -0.17192012       4.35126566       0.00532108       0.00092577       0.00673687
Si       2.54427749       0.46343330       0.99113071       0.00373979      -0.00560971      -0.01763893
Si       1.20124473       2.10676970       2.00907838      -0.00010682      -0.00233204      -0.00284071
Si       4.61593018       1.42325985       0.45676258      -0.01350920      -0.02171614       0.01598329
Si       1.62678006       2.46449302       4.29958465       0.01082099       0.01223513       0.00190135
10
Lattice="7.473289409151914 0.3939742306000691 -0.9263419676977169 -1.1712562073828918 3.752749498604672 -0.05252753659395897 -5.105769212758635 -2.2602011816832386 7.858073165679474" Properties=species:S:1:pos:R:3:forces:R:3 unique_starting_index=68 config_type=initial n_minim_iter=3 energy=-1628.152013069591 stress="0.00011733676228749948 0.00010178474900303986 -0.0002041930699034324 0.00010178474900303986 0.00036523089853169856 -8.347631455084476e-05 -0.0002041930699034324 -8.347631455084476e-05 -9.87758387051505e-05" free_energy=-1628.152013069591 pbc="T T T"
Si      -0.69018005       0.67569811       2.14161386       0.00077459       0.00339107       0.00678017
Si      -4.10598914       1.32430905       6.57102005       0.00004264      -0.00231760      -0.01250013
Si       4.84379537       3.42882765      -0.69577297       0.00023490      -0.00947486       0.01887117
Si       1.34076195       0.31513607       5.38728449       0.00029719       0.00021548      -0.01487233
Si      -2.00445808       1.52075484       5.52464425      -0.00237907       0.01030663       0.00327882
Si      -0.81401076      -0.17119191       4.35219583       0.00467957       0.00706104       0.00944097
Si       2.54547110       0.46381517       0.99034658      -0.00358269      -0.00536970      -0.00814145
Si       1.20191152       2.10790894       2.00967275       0.00116296      -0.00768359      -0.00540975
Si       4.61752351       1.42325306       0.45752564      -0.00786036      -0.00790383       0.00530568
Si       1.62793757       2.46668866       4.30060978       0.00663027       0.01177537      -0.00275316
10
Lattice="7.473482522661861 0.3921144638654393 -0.9222192059232955 -1.1719842539433387 3.7503477425794016 -0.05140207177257659 -5.101428043589215 -2.2540628431617233 7.857233478288482" Properties=species:S:1:pos:R:3:forces:R:3 unique_starting_index=68 config_type=initial n_minim_iter=4 energy=-1628.152098837183 stress="3.4304373973576476e-06 -8.868127611881903e-05 5.867176125118899e-05 -8.868127611881903e-05 -0.00017787700700281218 0.0002458091996532287 5.867176125118899e-05 0.0002458091996532287 9.334532623526472e-05" free_energy=-1628.152098837183 pbc="T T T"
Si      -0.68967463       0.67645326       2.14292807      -0.00122400       0.00178890       0.00713957
Si      -4.10390026       1.32727876       6.57147274       0.01347402      -0.00130945      -0.00547896
Si       4.84345803       3.42576638      -0.69041392      -0.00510614      -0.00813907       0.00883427
Si       1.34403911       0.31716763       5.38899650      -0.00788842      -0.00114287      -0.00645689
Si      -2.00133636       1.52372424       5.52631829       0.00251400      -0.00805556       0.01642727
Si      -0.81108624      -0.16839412       4.35403834       0.00302871       0.02134849       0.00502601
Si       2.54649191       0.46317437       0.99091293      -0.02925031      -0.00852085      -0.00568650
Si       1.20302509       2.10696216       2.01218127       0.00608421      -0.01315085       0.00583921
Si       4.61740279       1.41993249       0.46225601       0.01606395       0.00325687       0.00050968
Si       1.63107934       2.46768569       4.30461518       0.00230398       0.01392439      -0.02615366
10
Lattice="7.473626486510172 0.3931941761785185 -0.9217450369415265 -1.17169215195164 3.750797088615774 -0.053021567380225836 -5.101064573383262 -2.258000487379008 7.857902413765502" Properties=species:S:1:pos:R:3:forces:R:3 unique_starting_index=68 config_type=initial n_minim_iter=5 energy=-1628.1521504358536 stress="-4.8628724058008716e-06 5.160206454837604e-05 0.0001191943530876792 5.160206454837604e-05 5.359464598721081e-05 -8.803672828243987e-05 0.0001191943530876792 -8.803672828243987e-05 0.00010038518551865995" free_energy=-1628.1521504358536 pbc="T T T"
Si      -0.68949624       0.67566226       2.14279853       0.00171261       0.00314312       0.01097116
Si      -4.10325715       1.32443231       6.57059722       0.00675752      -0.00289073      -0.01153529
Si       4.84377694       3.42685671      -0.69112118      -0.00551129      -0.01808961       0.00968616
Si       1.34450015       0.31512666       5.38888479      -0.00753981       0.00673564      -0.00794078
Si      -2.00072261       1.52157756       5.52584451       0.00221845       0.00091302       0.01711417
Si      -0.81065018      -0.16996236       4.35428918       0.00451766       0.01200066       0.00066465
Si       2.54637893       0.46291424       0.99075624      -0.02105550      -0.01515836      -0.00122643
Si       1.20349513       2.10635998       2.01152572       0.00058370      -0.00519539       0.00304878
Si       4.61776470       1.42019853       0.46222905       0.01093755       0.01151148      -0.00158836
Si       1.63183656       2.46670480       4.30359427       0.00737911       0.00703017      -0.01919404
10
Lattice="7.475002603453898 0.3925715733652291 -0.9236572745142767 -1.1722229850559058 3.751038347821628 -0.05304803194513185 -5.103790678563952 -2.2583285829186646 7.8580623437461155" Properties=species:S:1:pos:R:3:forces:R:3 unique_starting_index=68 config_type=initial n_minim_iter=6 energy=-1628.1522209084242 stress="8.020569294315507e-05 2.723809228548816e-05 -7.009402273104666e-05 2.723809228548816e-05 0.00014032494654510452 -0.00013703871248112675 -7.009402273104666e-05 -0.00013703871248112675 -0.00011418086068571071" free_energy=-1628.1522209084242 pbc="T T T"
Si      -0.69030565       0.67564527       2.14289590       0.00350620       0.00386157       0.00803198
Si      -4.10570516       1.32417581       6.57000031       0.00670960      -0.00499100      -0.01764242
Si       4.84425857       3.42618098      -0.69213400      -0.00267960      -0.01506367       0.00794847
Si       1.34300476       0.31456787       5.38702926      -0.00319271       0.00663354      -0.00523991
Si      -2.00258974       1.52141387       5.52568492      -0.00017147       0.00402318       0.01546728
Si      -0.81175881      -0.16978327       4.35391277       0.00006291       0.00658502       0.00318423
Si       2.54579479       0.46215797       0.98949992      -0.01254107      -0.01048927       0.00356381
Si       1.20302726       2.10581589       2.01071198       0.00047123      -0.00594791      -0.00620541
Si       4.61844664       1.41968905       0.46092015       0.00068421       0.00653943      -0.00023986
Si       1.63097054       2.46666477       4.30150513       0.00715070       0.00884912      -0.00886819
10
Lattice="7.4753958604886765 0.3923610889808773 -0.9249639748365537 -1.1722916953925275 3.750009192161253 -0.052762112314579 -5.104908181981172 -2.2573067797201403 7.862226620808966" Properties=species:S:1:pos:R:3:forces:R:3 unique_starting_index=68 config_type=initial n_minim_iter=7 energy=-1628.152390784364 stress="-0.00012922733136926443 0.00011087741889994868 -0.0002660268178827965 0.00011087741889994868 0.0002414293791064443 -0.00016187186261327303 -0.0002660268178827965 -0.00016187186261327303 -0.0001248195638937016" free_energy=-1628.152390784364 pbc="T T T"
Si      -0.69123652       0.67613691       2.14620098       0.01161615      -0.00079876       0.00476241
Si      -4.10680929       1.32372398       6.57101113       0.00196415      -0.00786627      -0.01132629
Si       4.84393673       3.42355926      -0.68956849       0.00398903      -0.00168227      -0.00560197
Si       1.34153615       0.31502678       5.38613096       0.00980526       0.01651075       0.00724747
Si      -2.00252187       1.52263479       5.53092040       0.00659394       0.00850575       0.00984460
Si      -0.81116574      -0.16664396       4.35750610      -0.01687677      -0.00841980       0.00322493
Si       2.54269670       0.45961839       0.98705299       0.01012873      -0.01095125       0.00334502
Si       1.20346607       2.10347589       2.01172629      -0.00431121       0.00054438      -0.01750046
Si       4.61903479       1.41744300       0.46247334      -0.02560728      -0.00080960       0.00360048
Si       1.63270864       2.46915266       4.30060661       0.00269800       0.00496708       0.00240380
10
Lattice="7.478391940553616 0.3910975270889242 -0.9216501849390828 -1.1733647697469372 3.7487802241235526 -0.052839497896050386 -5.103525088106661 -2.2548729590782934 7.85971524168612" Properties=species:S:1:pos:R:3:forces:R:3 unique_starting_index=68 config_type=initial n_minim_iter=8 energy=-1628.1524588127465 stress="0.00015208566617972173 1.7999054915687637e-05 -2.7508741191356413e-05 1.7999054915687637e-05 4.747277216285007e-05 -5.058791653151291e-05 -2.7508741191356413e-05 -5.058791653151291e-05 -0.00019001065080733479" free_energy=-1628.1524588127465 pbc="T T T"
Si      -0.69088853       0.67635367       2.14669750       0.00485287       0.00068124      -0.00257003
Si      -4.10626958       1.32438597       6.56853586      -0.00140207      -0.00783438      -0.01343004
Si       4.84531476       3.42129185      -0.68608000       0.00267454       0.00442569      -0.01136632
Si       1.34436324       0.31559338       5.38571418       0.00484870       0.01741206       0.00912618
Si      -2.00079984       1.52359330       5.53091024       0.00984354       0.00550230       0.01415480
Si      -0.80943964      -0.16518203       4.35766087      -0.01535089      -0.00903791       0.00534170
Si       2.54358291       0.45835714       0.98718830       0.00884699      -0.00811188       0.00351311
Si       1.20478305       2.10223580       2.01237512      -0.00489410      -0.00272486      -0.01494188
Si       4.62091670       1.41542812       0.46544617      -0.01661543      -0.00425323       0.00617419
Si       1.63577940       2.46952099       4.30085039       0.00719585       0.00394099       0.00399830
10
Lattice="7.477035904709384 0.39008261412334355 -0.9207218855540222 -1.1736069457807778 3.7481203406019064 -0.052623961990861626 -5.101154709588574 -2.2529241596551066 7.861841366389807" Properties=species:S:1:pos:R:3:forces:R:3 unique_starting_index=68 config_type=initial n_minim_iter=9 energy=-1628.1525064035156 stress="-2.394487417108679e-05 -8.371626170662283e-05 6.054209398650921e-05 -8.371626170662283e-05 -5.370881673456127e-05 5.53559069913256e-05 6.054209398650921e-05 5.53559069913256e-05 8.446121725273687e-05" free_energy=-1628.1525064035156 pbc="T T T"
Si      -0.69055480       0.67661929       2.14797548      -0.00098506      -0.00371584      -0.00120099
Si      -4.10488471       1.32510362       6.57000330       0.00068548      -0.00536615      -0.00378005
Si       4.84404674       3.41989445      -0.68471255       0.00307578       0.00577552      -0.01024131
Si       1.34503432       0.31644224       5.38768027       0.00374281       0.01403414       0.00955645
Si      -1.99924687       1.52461118       5.53371869       0.01162259       0.00137501       0.01247514
Si      -0.80868618      -0.16417243       4.35974014      -0.01534692      -0.00479745       0.00172366
Si       2.54301502       0.45739305       0.98742486       0.00098559      -0.01000327      -0.00080147
Si       1.20473613       2.10150944       2.01337667      -0.00040840      -0.00323285      -0.00801849
Si       4.61971313       1.41398100       0.46721890      -0.00604709       0.00065691       0.00425607
Si       1.63660738       2.47003091       4.30274878       0.00267521       0.00527398      -0.00396902
10
Lattice="7.478204694027531 0.39219853208734845 -0.9199889632978774 -1.1726035709183822 3.7462043713471744 -0.052389799553173584 -5.101677311633994 -2.252790832669313 7.863062692279402" Properties=species:S:1:pos:R:3:forces:R:3 unique_starting_index=68 config_type=initial n_minim_iter=10 energy=-1628.152568025832 stress="3.3356227497816608e-06 9.136113818395521e-05 0.00012322232983106142 9.136113818395521e-05 -0.0002589336893829405 0.00014653395545108526 0.00012322232983106142 0.00014653395545108526 0.00022714336910002885" free_energy=-1628.152568025832 pbc="T T T"
Si      -0.69021121       0.67639406       2.14942274      -0.00714119      -0.00544960      -0.00410692
Si      -4.10438098       1.32323678       6.56970667       0.00777075      -0.00301586       0.00763102
Si       4.84583268       3.41971218      -0.68340994       0.00760662       0.00482590      -0.00017097
Si       1.34610999       0.31877769       5.38872653      -0.00347484       0.00785255       0.00533964
Si      -1.99708585       1.52483755       5.53714025       0.00387286       0.00185283       0.00633033
Si      -0.80919383      -0.16325855       4.36165239      -0.00696641      -0.00542548      -0.00048132
Si       2.54284379       0.45623694       0.98695892       0.00378511      -0.00433723      -0.01303082
Si       1.20590380       2.10029549       2.01338609      -0.00353097      -0.00884219       0.00498615
Si       4.62004006       1.41399029       0.46928633       0.00078215       0.00526773       0.00390145
Si       1.63945755       2.47163296       4.30310781      -0.00270406       0.00727134      -0.01039855
10
Lattice="7.47773393712952 0.39086767575529424 -0.9200919639841053 -1.1733082187303403 3.7472403518932964 -0.05284729784790457 -5.101158187807942 -2.2532662442595925 7.862083371534273" Properties=species:S:1:pos:R:3:forces:R:3 unique_starting_index=68 config_type=initial n_minim_iter=11 energy=-1628.1526192441952 stress="-8.60113387901312e-05 -4.022468487636209e-05 9.946387633862064e-05 -4.022468487636209e-05 -4.67909653288241e-05 8.67877204882705e-05 9.946387633862064e-05 8.67877204882705e-05 9.795234360065876e-05" free_energy=-1628.1526192441952 pbc="T T T"
Si      -0.69039643       0.67634864       2.14930838      -0.01313697      -0.00658063      -0.00690950
Si      -4.10443677       1.32304217       6.56767704       0.00372421      -0.00233594       0.00618416
Si       4.84501111       3.41938456      -0.68371902       0.01090748       0.00127159       0.00683561
Si       1.34582823       0.31875435       5.38758284      -0.00256663       0.00234430       0.00248292
Si      -1.99680723       1.52526449       5.53714107       0.00237375       0.00351456       0.00003611
Si      -0.80985776      -0.16354805       4.36129480      -0.00460543      -0.00689881       0.00025898
Si       2.54223147       0.45470226       0.98611023       0.00119897      -0.00155434      -0.00768031
Si       1.20529350       2.09964317       2.01223731      -0.00035845      -0.00908543       0.00167321
Si       4.61901060       1.41308531       0.46942098       0.00667504       0.01080491       0.00000789
Si       1.63926472       2.47211069       4.30120987      -0.00421198       0.00851977      -0.00288908
10
Lattice="7.4790243986026725 0.39103006898115583 -0.9217319563559208 -1.173489333518316 3.747293836145076 -0.05340513175586779 -5.10366676043033 -2.2549980655329254 7.862536576166488" Properties=species:S:1:pos:R:3:forces:R:3 unique_starting_index=68 config_type=initial n_minim_iter=12 energy=-1628.1526521303429 stress="-2.540503869210353e-06 -1.872489460693519e-05 -2.2818537671627362e-05 -1.872489460693519e-05 2.5948191513828745e-05 -2.6712565175033653e-05 -2.2818537671627362e-05 -2.6712565175033653e-05 -1.1093028012527599e-05" free_energy=-1628.1526521303429 pbc="T T T"
Si      -0.69117201       0.67573210       2.14901139      -0.01196487      -0.00520610      -0.00471162
Si      -4.10627275       1.32125678       6.56688995       0.00412397      -0.00261497      -0.00001926
Si       4.84616104       3.41944102      -0.68536832       0.01231750      -0.00225204       0.00964210
Si       1.34480074       0.31825927       5.38653696      -0.00423649      -0.00060775      -0.00070096
Si      -1.99792436       1.52437594       5.53718200      -0.00260990       0.00486365      -0.00158153
Si      -0.81155349      -0.16465745       4.36107307      -0.00131189      -0.00682378      -0.00100012
Si       2.54224133       0.45384359       0.98498229       0.00555602       0.00147216      -0.00343840
Si       1.20492068       2.09870059       2.01081795      -0.00113514      -0.00908408      -0.00107225
Si       4.61933225       1.41320124       0.46824531       0.00286326       0.01132840      -0.00101417
Si       1.63872186       2.47182113       4.29918589      -0.00360245       0.00892450       0.00389621
10
Lattice="7.480230462008535 0.3918855294619816 -0.922747313800263 -1.1732947737009454 3.747453777660716 -0.05376541807984964 -5.10583158346714 -2.2568025604715776 7.861654950504037" Properties=species:S:1:pos:R:3:forces:R:3 unique_starting_index=68 config_type=initial n_minim_iter=13 energy=-1628.1526854380318 stress="5.10166564343455e-05 3.594184961604415e-05 -8.866040261914445e-05 3.594184961604415e-05 0.0001334276068136625 -9.358872440553916e-05 -8.866040261914445e-05 -9.358872440553916e-05 -0.00016319689468363366" free_energy=-1628.1526854380318 pbc="T T T"
Si      -0.69239360       0.67493980       2.14847438      -0.00406667      -0.00188685       0.00014848
Si      -4.10724282       1.31920148       6.56473221      -0.00051220      -0.00204336      -0.00582481
Si       4.84828615       3.41999482      -0.68578058       0.01157692      -0.00318616       0.00669342
Si       1.34395429       0.31888251       5.38491887      -0.00750892      -0.00239360      -0.00589021
Si      -1.99816233       1.52434040       5.53728865      -0.00306644       0.00116510      -0.00382514
Si      -0.81344893      -0.16578408       4.36055173       0.00397403      -0.00138915      -0.00094376
Si       2.54242900       0.45274590       0.98334339       0.00975300       0.00316906       0.00319138
Si       1.20478588       2.09729971       2.00906741      -0.00392103      -0.00592685      -0.00210809
Si       4.61959759       1.41423892       0.46780391      -0.00490889       0.00774788      -0.00171105
Si       1.63889984       2.47319593       4.29671036      -0.00131982       0.00474393       0.01026978
10
Lattice="7.480290895147135 0.39150411597111956 -0.9222131200950722 -1.1734245974888804 3.746426587211595 -0.05359516540283946 -5.105082499236723 -2.255395540325023 7.863164794292846" Properties=species:S:1:pos:R:3:forces:R:3 unique_starting_index=68 config_type=initial n_minim_iter=14 energy=-1628.152717832166 stress="9.692785417359463e-06 -1.2309542589748405e-05 -2.8645354885663667e-06 -1.2309542589748405e-05 -4.089913199608501e-05 6.9030648116986645e-06 -2.8645354885663667e-06 6.9030648116986645e-06 4.70387644500001e-05" free_energy=-1628.152717832166 pbc="T T T"
Si      -0.69303591       0.67460977       2.14910034       0.00161608      -0.00147365       0.00652336
Si      -4.10668089       1.31915693       6.56584534      -0.00129571      -0.00054076      -0.00299096
Si       4.84917851       3.41878649      -0.68433854       0.00525293       0.00262752      -0.00565415
Si       1.34407662       0.31945117       5.38608504      -0.00874933       0.00036994      -0.00478804
Si      -1.99742094       1.52493556       5.53906532       0.00292505      -0.00653117       0.00154464
Si      -0.81311958      -0.16544116       4.36189438       0.00256150       0.00663927      -0.00342417
Si       2.54289849       0.45224612       0.98318617       0.00334215      -0.00249091       0.00397086
Si       1.20481948       2.09593225       2.00977736      -0.00183170      -0.00128034       0.00292179
Si       4.61950365       1.41399908       0.46893139      -0.00361957       0.00209642      -0.00035203
Si       1.63949007       2.47387339       4.29828723      -0.00020140       0.00058369       0.00224869
