16
Lattice="7.969661918013179 3.4401053064628107 0.19396995051418298 4.014125522177594 7.251045082123726 -1.3142910801929126 -4.970937252059581 -4.446015145000567 7.324648867263969" Properties=species:S:1:pos:R:3:forces:R:3 unique_starting_index=152 config_type=initial n_minim_iter=1 energy=-2606.8988478460983 stress="-9.270554528901553e-05 -1.2358194704359947e-05 -3.4712595435574865e-05 -1.2358194704359947e-05 4.429100495490144e-05 5.5444673424345056e-05 -3.4712595435574865e-05 5.5444673424345056e-05 -8.392051697717401e-05" free_energy=-2606.8988478460983 pbc="T T T"
Si       3.97832495       2.80007248       4.14839159       0.00978907      -0.00002677       0.00226229
Si       1.74554861      -0.27753642       5.95234328       0.00619780      -0.00663412      -0.00537065
Si       5.65096803       7.38498204       0.74457743       0.02399485      -0.03287781      -0.00021552
Si       4.54504280       2.73023717       0.30272272       0.02009497      -0.03928516       0.00249038
Si      -0.85493931      -1.52115252       3.64487767       0.00851963      -0.00078896       0.00798258
Si       4.76526279       3.98630702       2.27838515      -0.00619780       0.00663412       0.00537065
Si       7.22183276       3.97007268       2.54145440       0.00830435      -0.00222001       0.00812493
Si       2.53248645       0.90869811       4.08233684      -0.00978907       0.00002677      -0.00226229
Si       9.09543336       7.86925765       2.57647851       0.00302667      -0.00403055       0.01506965
Si      -2.44588246      -2.94314842       7.68962681       0.04106524      -0.04570869       0.00987956
Si       4.25991589       4.18471306      -1.63537484      -0.00830435       0.00222001      -0.00812493
Si       6.93670585       5.42454857       0.60335684      -0.02009497       0.03928516      -0.00249038
Si       0.98703194       3.21181371       0.34713167      -0.04106524       0.04570869      -0.00987956
Si       1.42950356       3.09055803       4.33995884      -0.00302667       0.00403055      -0.01506965
Si       4.87396888       3.57483364       6.17185992      -0.02399485       0.03287781       0.00021552
Si      -0.60391121       1.78981782       4.39188081      -0.00851963       0.00078896      -0.00798258
16
Lattice="7.973057761894884 3.4398269380816204 0.19441056533765355 4.015918429899293 7.250189472654235 -1.3158980091730264 -4.9720639494474845 -4.4471813089545025 7.327616214127087" Properties=species:S:1:pos:R:3:forces:R:3 unique_starting_index=152 config_type=initial n_minim_iter=2 energy=-2606.8990224968397 stress="0.00029267339324822876 7.146677336270429e-05 2.4850633244173076e-05 7.146677336270429e-05 0.00012583015713007092 -0.00015231617941276535 2.4850633244173076e-05 -0.00015231617941276535 0.00027203703429909366" free_energy=-2606.8990224968397 pbc="T T T"
Si       3.98082374       2.79875875       4.14985045       0.01266399       0.00073727       0.00157551
Si       1.74721016      -0.27890719       5.95474663       0.00259142      -0.00188181      -0.00760835
Si       5.65407285       7.38322661       0.74392504       0.01686524      -0.01892999       0.00043336
Si       4.54733622       2.72932485       0.30289569       0.01156371      -0.02474976       0.00109578
Si      -0.85469477      -1.52178983       3.64654540       0.00355059      -0.00059626       0.00580140
Si       4.76763088       3.98535070       2.27904645      -0.00259142       0.00188181       0.00760835
Si       7.22542794       3.96906091       2.54262164       0.00836771      -0.00273987       0.00385608
Si       2.53401729       0.90768477       4.08394263      -0.01266399      -0.00073727      -0.00157551
Si       9.09991438       7.86756754       2.57710651       0.00635324      -0.00279273       0.01540020
Si      -2.44527899      -2.94520691       7.69288632       0.02955510      -0.03365810       0.01171756
Si       4.26147704       4.18456391      -1.63644477      -0.00836771       0.00273986      -0.00385608
Si       6.93956876       5.42429997       0.60328117      -0.01156371       0.02474976      -0.00109577
Si       0.98706226       3.21182349       0.34649619      -0.02955509       0.03365810      -0.01171756
Si       1.43084508       3.08906545       4.34078857      -0.00635324       0.00279273      -0.01540020
Si       4.87668661       3.57340638       6.17397004      -0.01686524       0.01892999      -0.00043336
Si      -0.60352195       1.78840640       4.39283712      -0.00355059       0.00059626      -0.00580140
16
Lattice="7.970866551570803 3.4371914619899324 0.19557203870126377 4.014056954299635 7.245869101656573 -1.3145287297025607 -4.969593663768385 -4.443712090470329 7.325014272864915" Properties=species:S:1:pos:R:3:forces:R:3 unique_starting_index=152 config_type=initial n_minim_iter=3 energy=-2606.8991860078045 stress="-0.00013558712371301946 2.3076516337826984e-05 0.00011913511447946722 2.3076516337826984e-05 -0.0005110989209452232 -4.113347842963995e-05 0.00011913511447946722 -4.113347842963995e-05 -0.00013002235321041164" free_energy=-2606.8991860078045 pbc="T T T"
Si       3.98034093       2.79722594       4.14965541       0.01070253       0.00122326       0.00526944
Si       1.74764373      -0.27857440       5.95342862      -0.00334557      -0.00146676      -0.00043602
Si       5.65258676       7.37813858       0.74502819       0.00176756      -0.00803552       0.00547744
Si       4.54645087       2.72659102       0.30362968       0.00818231      -0.00491273       0.00238958
Si      -0.85374467      -1.52061604       3.64567323       0.00292747      -0.00140397       0.00515269
Si       4.76623748       3.98307716       2.27956366       0.00334557       0.00146676       0.00043601
Si       7.22382605       3.96636949       2.54337651       0.00909703      -0.00190242      -0.00283723
Si       2.53354028       0.90727683       4.08333687      -0.01070253      -0.00122326      -0.00526944
Si       9.09735908       7.86261564       2.57860356       0.00417501       0.00174841       0.00993676
Si      -2.44259718      -2.94378585       7.69087554       0.01149448      -0.01496706       0.00712908
Si       4.25964883       4.18184536      -1.63539850      -0.00909703       0.00190242       0.00283723
Si       6.93702401       5.42162383       0.60434833      -0.00818231       0.00491273      -0.00238958
Si       0.98561184       3.21109715       0.34654470      -0.01149448       0.01496706      -0.00712908
Si       1.43057908       3.08775622       4.33985999      -0.00417501      -0.00174841      -0.00993676
Si       4.87535140       3.57223328       6.17343536      -0.00176757       0.00803553      -0.00547744
Si      -0.60324067       1.78792735       4.39174701      -0.00292746       0.00140398      -0.00515270
16
Lattice="7.970183617063121 3.438079704830224 0.1949623233232105 4.013243619127612 7.249020181931419 -1.3137935338826214 -4.970032641385728 -4.444141753409411 7.324789090397381" Properties=species:S:1:pos:R:3:forces:R:3 unique_starting_index=152 config_type=initial n_minim_iter=4 energy=-2606.8992680203546 stress="9.738796377229329e-05 -0.00017523313377579674 5.8880938587483625e-05 -0.00017523313377579674 -2.5111879225354686e-05 0.00010499045108869444 5.8880938587483625e-05 0.00010499045108869444 -5.970749553956725e-06" free_energy=-2606.8992680203546 pbc="T T T"
Si       3.97944324       2.79900022       4.14950305       0.00614017      -0.00421480       0.00505493
Si       1.74675342      -0.27792568       5.95287345      -0.00069336      -0.00095218       0.00494238
Si       5.65168366       7.38112530       0.74551378      -0.00174249      -0.00728955       0.00491731
Si       4.54620312       2.72707186       0.30345594       0.00915254       0.00034404       0.00541311
Si      -0.85399189      -1.52067784       3.64555994       0.00458881      -0.00104505       0.00523087
Si       4.76520935       3.98510936       2.27958337       0.00069336       0.00095218      -0.00494238
Si       7.22289607       3.96802086       2.54299033       0.00891569       0.00087725      -0.00163468
Si       2.53251953       0.90818346       4.08295377      -0.00614017       0.00421480      -0.00505493
Si       9.09580517       7.86613779       2.57882588       0.00046084       0.00547776       0.00388392
Si      -2.44280198      -2.94428465       7.69070536      -0.00479735      -0.00003680       0.00201832
Si       4.25909934       4.18330458      -1.63532261      -0.00891569      -0.00087725       0.00163468
Si       6.93579228       5.42425358       0.60421179      -0.00915254      -0.00034404      -0.00541311
Si       0.98458113       3.21338863       0.34678913       0.00479735       0.00003680      -0.00201832
Si       1.42940122       3.09006608       4.33983740      -0.00046084      -0.00547776      -0.00388392
Si       4.87352273       3.57507857       6.17314950       0.00174249       0.00728955      -0.00491731
Si      -0.60422896       1.78978182       4.39193456      -0.00458881       0.00104505      -0.00523087
16
Lattice="7.9693739830279355 3.440425859023011 0.1935655567385408 4.014222002519797 7.25135030025796 -1.3149039236135562 -4.9710584862230505 -4.446647359032273 7.325603452945243" Properties=species:S:1:pos:R:3:forces:R:3 unique_starting_index=152 config_type=initial n_minim_iter=5 energy=-2606.899292719732 stress="-6.604802557986623e-06 -2.2869150137789097e-06 -3.106381664423339e-05 -2.2869150137789097e-06 5.018745888012088e-07 -1.7643949586963478e-05 -3.106381664423339e-05 -1.7643949586963478e-05 -2.3147402222054466e-06" free_energy=-2606.899292719732 pbc="T T T"
Si       3.97880546       2.80002368       4.14862512       0.00379436      -0.00390089      -0.00006245
Si       1.74554270      -0.27811645       5.95245329      -0.00177859       0.00289626       0.00195067
Si       5.65217418       7.38350147       0.74413077      -0.00326263      -0.00203379      -0.00004571
Si       4.54600797       2.72839164       0.30262865       0.00515472       0.00296814       0.00393374
Si      -0.85460883      -1.52145680       3.64574778       0.00148379       0.00194428       0.00413197
Si       4.76483045       3.98672151       2.27852203       0.00177859      -0.00289626      -0.00195067
Si       7.22211249       3.97010263       2.54158987       0.00723870      -0.00012213      -0.00261103
Si       2.53156769       0.90858138       4.08235020      -0.00379436       0.00390089       0.00006245
Si       9.09543286       7.86937468       2.57693118       0.00043680       0.00613025       0.00380453
Si      -2.44388980      -2.94619187       7.69110118      -0.00548338      -0.00020619       0.00482801
Si       4.25931914       4.18514979      -1.63621800      -0.00723870       0.00012213       0.00261103
Si       6.93542366       5.42686078       0.60274322      -0.00515471      -0.00296814      -0.00393374
Si       0.98488897       3.21437107       0.34630858       0.00548338       0.00020619      -0.00482801
Si       1.42916228       3.09058068       4.33914022      -0.00043680      -0.00613025      -0.00380453
Si       4.87242097       3.57645389       6.17194062       0.00326263       0.00203379       0.00004571
Si      -0.60439200       1.78963600       4.39166199      -0.00148379      -0.00194428      -0.00413197
