6
Lattice="3.26365828207844 -0.4705930210939519 0.274691376098009 -0.9242592747410572 7.406041019435527 -0.1522529590040309 -0.69981446816591 -0.11006157969863431 10.339220575744445" Properties=species:S:1:pos:R:3:forces:R:3 unique_starting_index=320 config_type=initial n_minim_iter=1 energy=-974.4064857774222 stress="1.2968191420393493e-05 6.168944102899112e-05 9.14703754286394e-06 6.168944102899112e-05 0.0008195567509585875 -2.455974259051078e-05 9.14703754286394e-06 -2.455974259051078e-05 0.00025735324495454974" free_energy=-974.4064857774222 pbc="T T T"
Si       0.83850659       4.23552532       1.57299924      -0.02751004      -0.02923269      -0.02190053
Si       1.41879742       0.55948520      10.21838978       0.04347537      -0.01130865       0.01859729
Si      -0.98661863       7.16928298       6.39423874       0.00193849      -0.03992173       0.01172740
Si       0.11911532       1.71599137       8.03062852      -0.03719000       0.00081680      -0.00995018
Si      -1.28746593       6.69854218       8.86149023       0.03118265       0.03505652       0.00464980
Si      -1.40214327       3.27456795       8.97302283      -0.01189647       0.04458975      -0.00312378
6
Lattice="3.263634507775911 -0.47030591375883385 0.2745228780431176 -0.9249256039521708 7.397001569416196 -0.15190811598755016 -0.6999327967094597 -0.10947973669967721 10.335226619793563" Properties=species:S:1:pos:R:3:forces:R:3 unique_starting_index=320 config_type=initial n_minim_iter=2 energy=-974.4066571351308 stress="-0.00015097130885570787 2.480100055969493e-05 1.4683139066703176e-05 2.480100055969493e-05 -0.00013272646644212356 -3.663632341792629e-05 1.4683139066703176e-05 -3.663632341792629e-05 -0.00028908582793011614" free_energy=-974.4066571351308 pbc="T T T"
Si       0.83790846       4.23011231       1.57240211      -0.02694884      -0.02830624       0.01401083
Si       1.41884228       0.55897293      10.21455139       0.04069292      -0.01158198       0.01275848
Si      -0.98733999       7.16053944       6.39211474       0.00128240      -0.04322919       0.00166765
Si       0.11861694       1.71416859       8.02752311      -0.03257017       0.00702150      -0.02177178
Si      -1.28799359       6.69095344       8.85835550       0.03281719       0.02933312      -0.00287452
Si      -1.40261533       3.27126813       8.96967287      -0.01527350       0.04676278      -0.00379067
6
Lattice="3.2653756028228846 -0.47054906078840475 0.27444037503943103 -0.9265777020995188 7.3934156908210875 -0.1507905870329242 -0.7009221894734495 -0.10768172045392956 10.342618459693718" Properties=species:S:1:pos:R:3:forces:R:3 unique_starting_index=320 config_type=initial n_minim_iter=3 energy=-974.406855335543 stress="0.00024291611387008605 -5.4221243851470444e-05 1.147356969578557e-05 -5.4221243851470444e-05 -0.0001664723327110885 0.00018489251236637264 1.147356969578557e-05 0.00018489251236637264 -9.984826501980679e-06" free_energy=-974.406855335543 pbc="T T T"
Si       0.83704834       4.22756239       1.57423326      -0.02386822      -0.03565382       0.00530168
Si       1.41963536       0.55985845      10.22210148       0.04025890      -0.01056308       0.00134366
Si      -0.98936757       7.15730891       6.39794223      -0.00055592      -0.03353498       0.01026702
Si       0.11725856       1.71466071       8.03314888      -0.02866970       0.01791837      -0.01118610
Si      -1.28966519       6.68978656       8.86578671       0.03011620       0.02502033      -0.00287553
Si      -1.40469853       3.27214618       8.97660043      -0.01728126       0.03681318      -0.00285073
6
Lattice="3.2639254685436696 -0.47090129450117096 0.27447832716819726 -0.9281406730251063 7.378363546718284 -0.1626459521317797 -0.7060305365728144 -0.12370701577820861 10.381121652284506" Properties=species:S:1:pos:R:3:forces:R:3 unique_starting_index=320 config_type=initial n_minim_iter=4 energy=-974.4077266748121 stress="0.00020716573469691912 -0.00020834994494838853 2.4410167460678994e-06 -0.00020834994494838853 -0.000162175958998603 0.00014497124383910638 2.4410167460678994e-06 0.00014497124383910638 0.0006834251674603057" free_energy=-974.4077266748121 pbc="T T T"
Si       0.83023676       4.21069780       1.57350257      -0.01793631      -0.02773130      -0.01301939
Si       1.42048663       0.54012620      10.25973110       0.03272025       0.03113603      -0.02311256
Si      -0.99414291       7.12566891       6.41165674      -0.01107035      -0.01734054       0.03165818
Si       0.10700236       1.69983355       8.05711323       0.00341468       0.03596288       0.02838431
Si      -1.29023327       6.66691162       8.88809949       0.02569561      -0.03050853      -0.03962390
Si      -1.41231906       3.25869435       9.00448921      -0.03282389       0.00848146       0.01571335
6
Lattice="3.264539679255713 -0.4672618312344752 0.27316178920208767 -0.9189631913170861 7.381997886418745 -0.16867125301139252 -0.7102354415471671 -0.13398025288933607 10.360904360174333" Properties=species:S:1:pos:R:3:forces:R:3 unique_starting_index=320 config_type=initial n_minim_iter=5 energy=-974.4083828398102 stress="0.0002379736562045899 -6.238369329249449e-05 0.00017412739541414437 -6.238369329249449e-05 -5.1231682223280125e-05 -0.00027918300141498517 0.00017412739541414437 -0.00027918300141498517 -0.00027448171965641533" free_energy=-974.4083828398102 pbc="T T T"
Si       0.83197923       4.20900760       1.56650232      -0.01863188       0.01046587       0.03540011
Si       1.42351247       0.53309167      10.23882769       0.01372707       0.04115853      -0.01417446
Si      -0.98798878       7.11822204       6.39447688      -0.00620663       0.00626533       0.00594888
Si       0.10302755       1.69586818       8.03867057       0.01034146      -0.00919632       0.00128887
Si      -1.28109359       6.66348991       8.86324372       0.03966775      -0.04064050      -0.03030817
Si      -1.41471592       3.25589021       8.98440656      -0.03889778      -0.00805292       0.00184476
6
Lattice="3.2575260323081308 -0.46259251205620827 0.2679090331921671 -0.9070175777568349 7.380843412914799 -0.1601756916204642 -0.7244055875985915 -0.12495677869577862 10.363007937124097" Properties=species:S:1:pos:R:3:forces:R:3 unique_starting_index=320 config_type=initial n_minim_iter=6 energy=-974.4088060093771 stress="-0.0005906270991295399 -0.00016292192744835917 3.165738368213367e-05 -0.00016292192744835917 0.0005088412229607705 0.0002696393569665211 3.165738368213367e-05 0.0002696393569665211 -0.00021599541266708748" free_energy=-974.4088060093771 pbc="T T T"
Si       0.83061622       4.20885358       1.57060567      -0.01159251       0.00697826       0.01583450
Si       1.41123875       0.54591977      10.23841426       0.00640429       0.03088941      -0.00175465
Si      -0.98633873       7.11956307       6.40501529      -0.00790799       0.05310975      -0.00505933
Si       0.09088257       1.70511874       8.04038396       0.00681636      -0.00804433       0.00382523
Si      -1.27830273       6.67113314       8.87059568       0.05977292      -0.07298661      -0.01186724
Si      -1.42415632       3.26649886       8.99085853      -0.05349306      -0.00994648      -0.00097851
6
Lattice="3.246033730117411 -0.4248548107990853 0.24108426821920792 -0.8253771758656046 7.318389694515128 -0.16615941636931586 -0.8179255995865514 -0.1502828536805332 10.43523784907228" Properties=species:S:1:pos:R:3:forces:R:3 unique_starting_index=320 config_type=initial n_minim_iter=7 energy=-974.4131176932067 stress="-0.0013172177374777417 0.0006079866862571316 -0.00012108843399889988 0.0006079866862571316 0.002051752128442945 0.000981995917400746 -0.00012108843399889988 0.000981995917400746 0.0006048820856475271" free_energy=-974.4131176932067 pbc="T T T"
Si       0.83825766       4.16464328       1.57346349       0.03367296       0.07154406      -0.04561219
Si       1.35519645       0.54553679      10.29001660      -0.07384618      -0.02936641      -0.00207923
Si      -0.96930622       7.02461970       6.45047479      -0.00229185       0.17714235      -0.01754844
Si       0.02019278       1.68757513       8.08203828       0.00330374      -0.01763322       0.06279188
Si      -1.25188069       6.59588147       8.91353460       0.19203588      -0.23559449      -0.01886730
Si      -1.49125802       3.23675466       9.05545137      -0.15287455       0.03390771       0.02131528
6
Lattice="3.2444889082839268 -0.4115565639498411 0.23031858210348233 -0.7981422072694002 7.288070107728986 -0.17198243004184524 -0.8568293628881151 -0.16475651408194575 10.466058055602186" Properties=species:S:1:pos:R:3:forces:R:3 unique_starting_index=320 config_type=initial n_minim_iter=8 energy=-974.4144944163894 stress="-0.0016564390674242216 0.0010657158009418912 -0.0003917342250140152 0.0010657158009418912 0.002249331735794105 0.0008967431331102101 -0.0003917342250140152 0.0008967431331102101 0.000972151508121002" free_energy=-974.4144944163894 pbc="T T T"
Si       0.83998334       4.14361634       1.57304971       0.06102893       0.11413727      -0.07479698
Si       1.33116019       0.53961593      10.31152041      -0.10058751      -0.07092174      -0.00102997
Si      -0.96856087       6.98057003       6.46620068      -0.00249567       0.19659682      -0.02488584
Si      -0.00874984       1.67473265       8.09994705      -0.00658405      -0.00873050       0.09046667
Si      -1.24736405       6.55521220       8.92892813       0.21325771      -0.27425302      -0.02243830
Si      -1.52243811       3.21736396       9.08166793      -0.16461941       0.04317118       0.03268442
6
Lattice="3.275802582490612 -0.38903705324627313 0.20603339240069182 -0.7706703329669982 7.156309688771951 -0.20885430299234198 -0.9583163445824942 -0.22757585050059076 10.561344114994501" Properties=species:S:1:pos:R:3:forces:R:3 unique_starting_index=320 config_type=initial n_minim_iter=9 energy=-974.425468222725 stress="0.002172401606502271 0.0007212154989589673 -0.0013230711946831668 0.0007212154989589673 4.995342218995972e-05 0.00020765561211378395 -0.0013230711946831668 0.00020765561211378395 0.0003564584337273181" free_energy=-974.425468222725 pbc="T T T"
Si       0.84422112       4.06379403       1.56413121       0.09906794       0.16274428       0.01653251
Si       1.27043544       0.48832528      10.37708713      -0.09679857      -0.33445015      -0.06576731
Si      -1.00579731       6.81972729       6.49169847      -0.02238814       0.01288972      -0.02529116
Si      -0.07444464       1.59984394       8.16075780      -0.11486710       0.15788771       0.15714797
Si      -1.27437901       6.35668730       8.96078650       0.18067854      -0.20800692      -0.13393110
Si      -1.63148832       3.10600235       9.15466468      -0.04569268       0.20893536       0.05130909
6
Lattice="3.257664295882884 -0.40716253187046014 0.2521359402627996 -0.81816896122919 7.053720590052466 -0.27347675502088453 -0.8262943022879445 -0.2930842208815096 10.66928398701155" Properties=species:S:1:pos:R:3:forces:R:3 unique_starting_index=320 config_type=initial n_minim_iter=10 energy=-974.4442536993369 stress="-0.0025750595671333513 -0.0002102643267401084 0.0017776367314890347 -0.0002102643267401084 -0.003310771234642021 -0.000950903903351673 0.0017776367314890347 -0.000950903903351673 -0.0011502537154649737" free_energy=-974.4442536993369 pbc="T T T"
Si       0.82454406       3.99048255       1.57068050      -0.05825348       0.15545919       0.14321580
Si       1.38384125       0.38763702      10.50101323      -0.09805983      -0.30394702      -0.11590779
Si      -0.97410793       6.67852206       6.50199447       0.10627201      -0.13969062      -0.04969568
Si      -0.00031032       1.52608070       8.24854037      -0.06229309       0.27207725       0.15586853
Si      -1.16967892       6.17882696       8.98102148      -0.01385394      -0.19694428      -0.33804476
Si      -1.55762291       3.02275162       9.21796883       0.12618833       0.21304549       0.20456390
6
Lattice="3.268117605775272 -0.38260674138115836 0.21922585774078146 -0.7746203417865409 6.964232263313306 -0.2990695282481648 -0.9484853007789354 -0.34504721174381586 10.756849948315411" Properties=species:S:1:pos:R:3:forces:R:3 unique_starting_index=320 config_type=initial n_minim_iter=11 energy=-974.4600819736683 stress="-0.002516366472054517 0.0008614766461271805 -0.0003253860045879525 0.0008614766461271805 0.0010911828017354593 -0.0028177596011952064 -0.0003253860045879525 -0.0028177596011952064 0.0007875532974122422" free_energy=-974.4600819736683 pbc="T T T"
Si       0.81224612       3.93164725       1.57088504       0.04683239       0.39877535      -0.02239834
Si       1.30799607       0.33892399      10.55078768      -0.09929404      -0.58702595      -0.15912092
Si      -1.01141151       6.54606657       6.53802112       0.07864015      -0.10172114      -0.08326132
Si      -0.10253419       1.48745232       8.31038227      -0.11804954       0.20090855       0.19851498
Si      -1.17252206       6.02573895       8.99327825      -0.29353781      -0.15796228      -0.23244534
Si      -1.68774274       2.96872380       9.29784711       0.38540885       0.24702547       0.29871093
6
Lattice="3.2880213559281746 -0.396067365332062 0.20824698526849603 -0.8064001914250045 7.016230909200492 -0.2562062373953834 -0.9725670373636164 -0.28750110731055667 10.683003200538662" Properties=species:S:1:pos:R:3:forces:R:3 unique_starting_index=320 config_type=initial n_minim_iter=12 energy=-974.4896327662922 stress="0.0033959392660227097 -0.0019259055606594558 -0.000714270440095308 -0.0019259055606594558 0.0037167542908176634 0.0013015772962332508 -0.000714270440095308 0.0013015772962332508 -0.0025238421490497705" free_energy=-974.4896327662922 pbc="T T T"
Si       0.80583394       3.98663731       1.58393301       0.02075672       0.05962675       0.16155235
Si       1.27732440       0.36939036      10.46621858       0.04563455      -0.34790337      -0.23458297
Si      -1.05264188       6.64027768       6.52754163       0.03328693       0.07891148      -0.11593154
Si      -0.12544587       1.55601613       8.28148040      -0.12208832      -0.01164199       0.03026479
Si      -1.21660129       6.09394564       8.94640884      -0.32831570       0.08587784      -0.26134239
Si      -1.72257937       3.05254141       9.26773670       0.35072582       0.13512928       0.42003977
6
Lattice="3.2906947686444887 -0.3842892823874344 0.22144496626633758 -0.8048692060113871 6.827978259680374 -0.2956628420594706 -0.9609682421342556 -0.3329421383610668 10.952581715285145" Properties=species:S:1:pos:R:3:forces:R:3 unique_starting_index=320 config_type=initial n_minim_iter=13 energy=-974.5452319733026 stress="0.0027428317687560014 -0.0002852300728557911 0.0003020974569253808 -0.0002852300728557911 0.004082229877747408 -0.0005932854602451185 0.0003020974569253808 -0.0005932854602451185 0.0018388914298459503" free_energy=-974.5452319733026 pbc="T T T"
Si       0.80720120       3.90671858       1.63369854      -0.06824401       0.00777035       0.01981277
Si       1.28186524       0.25947626      10.70109038       0.10930774      -0.09785673      -0.43128726
Si      -1.04158241       6.44051539       6.65382691       0.06064259       0.02826429       0.06462302
Si      -0.13760090       1.50662914       8.52651769       0.03560992      -0.26716007       0.04692335
Si      -1.14911207       5.81169383       9.07116955      -0.73917286       0.15581889      -0.30786570
Si      -1.73629380       2.96624099       9.52552298       0.60185662       0.17316327       0.60779383
6
Lattice="3.260897802844077 -0.3782887072150042 0.23738790780579835 -0.7969303057088172 6.7424763530261504 -0.28326052493504783 -0.916385086659818 -0.3056232513087448 11.143273530674362" Properties=species:S:1:pos:R:3:forces:R:3 unique_starting_index=320 config_type=initial n_minim_iter=14 energy=-974.6061950219818 stress="-0.0032127021501967674 0.0023310392028148253 0.0008261830213101976 0.0023310392028148253 0.004792314520240866 0.0002598397385709677 0.0008261830213101976 0.0002598397385709677 0.0068025889655304395" free_energy=-974.6061950219818 pbc="T T T"
Si       0.83037594       3.90911251       1.69016784      -0.12505338      -0.23152818      -0.24046294
Si       1.25991954       0.22712426      10.86379418       0.29578287       0.29274600      -0.45678258
Si      -0.99910121       6.40271791       6.76923672       0.06041023      -0.00609687       0.16134740
Si      -0.10470296       1.52004632       8.72189637       0.25200632      -0.29742681       0.11356904
Si      -1.13762584       5.71475701       9.20004152      -0.67752192      -0.04403351      -0.12554874
Si      -1.65107121       2.95652296       9.74605230       0.19437588       0.28633937       0.54787781
6
Lattice="3.281007064202371 -0.39202370451382423 0.2215208444149252 -0.8449271799200676 6.657981526291339 -0.2869359119261915 -0.9661881933468056 -0.31247312454161447 11.080303567791173" Properties=species:S:1:pos:R:3:forces:R:3 unique_starting_index=320 config_type=initial n_minim_iter=15 energy=-974.6670749822579 stress="-0.003918992196753826 -9.756023579313325e-05 -0.0010674873022814303 -9.756023579313325e-05 -0.0024990094227179322 -0.00048563264599762914 -0.0010674873022814303 -0.00048563264599762914 -0.0023898696120436104" free_energy=-974.6670749822579 pbc="T T T"
Si       0.81972316       3.87492184       1.67530879      -0.04941056      -0.25713354       0.29822316
Si       1.19410188       0.17675834      10.75304936       0.42812491       0.36321516      -0.35790117
Si      -1.06574412       6.33395709       6.71158501      -0.05657758      -0.12929608       0.04344269
Si      -0.13611343       1.48455689       8.69019811       0.27406712      -0.15759320      -0.01647593
Si      -1.28265113       5.61436624       9.11575848      -0.34114110      -0.09937258      -0.09798324
Si      -1.67555088       2.91322952       9.74076773      -0.25506279       0.28018024       0.13069449
6
Lattice="3.329631734759094 -0.3761514823745997 0.21619366722746367 -0.8266194520152006 6.634466061546974 -0.277459012369751 -0.9891237400282957 -0.3043987513616254 11.03588827009076" Properties=species:S:1:pos:R:3:forces:R:3 unique_starting_index=320 config_type=initial n_minim_iter=16 energy=-974.7002024888995 stress="0.004518816398951493 0.001035337941440237 0.00029722984101225006 0.001035337941440237 -0.0014499346695502299 0.0007544810422258284 0.00029722984101225006 0.0007544810422258284 -0.0020139094855465656" free_energy=-974.7002024888995 pbc="T T T"
Si       0.83109223       3.84309251       1.68024708      -0.01947753      -0.09699299       0.29485128
Si       1.24803777       0.21227722      10.69132197       0.16738064       0.10700993      -0.30786860
Si      -1.05918110       6.29851362       6.70342042      -0.02206730      -0.02892623       0.02247893
Si      -0.13537088       1.48207778       8.64655665       0.20425525       0.06551188       0.06696576
Si      -1.29268097       5.61595847       9.08357607      -0.19279900      -0.08566057       0.02658400
Si      -1.70344694       2.92484270       9.71579088      -0.13729206       0.03905798      -0.10301137
6
Lattice="3.319305538380104 -0.39216460388193924 0.21987597279751855 -0.8592363088565304 6.635044600387953 -0.28797212934455196 -0.9791256949996191 -0.3140130326464385 11.071952032248403" Properties=species:S:1:pos:R:3:forces:R:3 unique_starting_index=320 config_type=initial n_minim_iter=17 energy=-974.7135309121076 stress="0.002647057266324863 -0.0003073161148735756 -0.0005595993074659199 -0.0003073161148735756 -0.0004583766342386323 1.9781904392499454e-05 -0.0005595993074659199 1.9781904392499454e-05 0.0002733405287157606" free_energy=-974.7135309121076 pbc="T T T"
Si       0.80451341       3.82966191       1.68756842       0.02100085      -0.03641420       0.10911684
Si       1.25762445       0.19531890      10.71617952       0.11170868       0.08797156      -0.20592482
Si      -1.08666273       6.28729745       6.71840434      -0.03750613      -0.03610279       0.02011392
Si      -0.13572812       1.47030766       8.67390627       0.13191583       0.11930179       0.10683021
Si      -1.32159174       5.60663965       9.10280436      -0.15556200      -0.14008974       0.11075876
Si      -1.71142719       2.92493201       9.74625197      -0.07155722       0.00533338      -0.14089492
6
Lattice="3.3013679302361885 -0.3984353232720314 0.23017651690115393 -0.8647297612833754 6.665865945924861 -0.28432232793891565 -0.9385787805159923 -0.3044000568427411 11.042592852744319" Properties=species:S:1:pos:R:3:forces:R:3 unique_starting_index=320 config_type=initial n_minim_iter=18 energy=-974.7204382402496 stress="-8.788665938629993e-05 -0.0001567292358016438 5.6290225369870455e-05 -0.0001567292358016438 -0.00026767837612463386 0.0002972848595635535 5.6290225369870455e-05 0.0002972848595635535 -0.00052334388855454" free_energy=-974.7204382402496 pbc="T T T"
Si       0.79916948       3.83976820       1.69239062       0.00661845      -0.02778666       0.06816442
Si       1.29251158       0.21606502      10.68767778       0.00766016      -0.01686079      -0.07331196
Si      -1.07006470       6.32058986       6.70706805       0.00153120      -0.04239287      -0.02620066
Si      -0.09993193       1.48021175       8.65161561       0.03874257       0.15010073       0.06850773
Si      -1.31105849       5.64719299       9.09274001      -0.02404990      -0.14403624       0.03497765
Si      -1.67543349       2.94545611       9.71556467      -0.03050249       0.08097583      -0.07213718
6
Lattice="3.2964527267222925 -0.3965511836731939 0.23339678728234073 -0.8635425096400693 6.635030085855 -0.2857030859239272 -0.9300024809423538 -0.30426769795334285 11.073899336026388" Properties=species:S:1:pos:R:3:forces:R:3 unique_starting_index=320 config_type=initial n_minim_iter=19 energy=-974.7223693721089 stress="-0.0012113874661587186 0.0003460707195303305 0.00014270597266012242 0.0003460707195303305 0.0008211542365461662 6.976431799483542e-05 0.00014270597266012242 6.976431799483542e-05 0.0012325112025262667" free_energy=-974.7223693721089 pbc="T T T"
Si       0.79831197       3.82836997       1.70870400      -0.00331299      -0.01183758      -0.08444283
Si       1.29967548       0.20749088      10.70147019      -0.01436220       0.00081010       0.03605682
Si      -1.06420855       6.29336447       6.72519984       0.02407580      -0.03320497      -0.02105016
Si      -0.09261647       1.48078111       8.69078842       0.00410480       0.13628000       0.00287866
Si      -1.29959065       5.59757441       9.10096692      -0.06637557      -0.14390165       0.21667130
Si      -1.67298024       2.94171742       9.75373111       0.05587015       0.05185410      -0.15011379
6
Lattice="3.3009313722808935 -0.39898869326822706 0.23222316105762242 -0.8691715420071648 6.6400559836174695 -0.2903506550535 -0.9348404814832638 -0.31108348892440807 11.065095971397634" Properties=species:S:1:pos:R:3:forces:R:3 unique_starting_index=320 config_type=initial n_minim_iter=20 energy=-974.7245062136512 stress="-0.0005183024457811623 -2.1150993620963545e-05 -2.5761341413481358e-05 -2.1150993620963545e-05 0.000539941224520966 -0.0003061352106527838 -2.5761341413481358e-05 -0.0003061352106527838 0.0003833395805509809" free_energy=-974.7245062136512 pbc="T T T"
Si       0.79648216       3.82760381       1.70223835       0.00342132       0.00100357      -0.02231750
Si       1.29713109       0.20203305      10.69442056      -0.01039998      -0.02030862       0.00474732
Si      -1.07219144       6.29313308       6.71462319       0.01380263      -0.05086521      -0.01662303
Si      -0.09575224       1.47596568       8.67985212      -0.00669749       0.11165139      -0.00176700
Si      -1.31075095       5.59822422       9.09609434      -0.04791138      -0.11295565       0.13641928
Si      -1.67928223       2.93649335       9.73874098       0.04778490       0.07147451      -0.10045906
6
Lattice="3.31124268254486 -0.4003568868107862 0.2299874953540344 -0.8780444977318961 6.620092538071897 -0.2894740262929125 -0.9441310769125535 -0.30982929835100714 11.067757440609821" Properties=species:S:1:pos:R:3:forces:R:3 unique_starting_index=320 config_type=initial n_minim_iter=21 energy=-974.7279402533072 stress="0.0011059268295354973 -0.00035172426359871196 -7.311743398148735e-05 -0.00035172426359871196 0.00025892101857317377 -0.0003356790836110897 -7.311743398148735e-05 -0.0003356790836110897 -0.0010740040465125552" free_energy=-974.7279402533072 pbc="T T T"
Si       0.79520613       3.81424295       1.70398726       0.00618529      -0.00803167       0.09766868
Si       1.29383639       0.19901457      10.69163590      -0.00842435      -0.02948167      -0.04808907
Si      -1.08421933       6.27160009       6.71440421      -0.00312570      -0.05133294       0.02693685
Si      -0.10003228       1.47959605       8.68263252      -0.02009262       0.04257743      -0.05248133
Si      -1.33477271       5.57197922       9.11306840       0.01501376      -0.03043656      -0.03349234
Si      -1.68866945       2.93348418       9.73126699       0.01044363       0.07670541       0.00945720
