14
Lattice="6.653900000000002 -1.1921690059341052e-16 1.646699591908546e-30 -2.822912859067564 6.025408550472824 3.350714517413743e-30 -1.9154935704662193 -3.012704275236412 6.663859216315313" Properties=species:S:1:pos:R:3:forces:R:3 unique_starting_index=174 config_type=initial n_minim_iter=1 energy=-2221.681333622676 stress="-0.4158025401836517 -0.9003225017892673 0.026836992783031564 7.79409490105462e-12 -2.8251116639450732e-12 -0.5170954374643237" pbc="T T T"
Si       0.67046751       0.43669630       4.30982029      24.94176665      15.63747064      -0.49447646
Si       2.02649648       3.80511118       2.35403892       3.57891094      29.22008911       0.49447646
Si      -0.67046751      -0.43669630       4.30982029     -24.94176665     -15.63747064      -0.49447646
Si       1.80449065       2.22029737       2.35403892      -3.57891094     -29.22008911       0.49447646
Si      -2.08192394       2.57600797       5.68596853     -24.94176664     -15.63747064       0.49447646
Si      -1.52245935       2.22029737       0.97789068      -3.57891094     -29.22008911      -0.49447646
Si      -0.74098892       3.44940058       5.68596853      24.94176665      15.63747064       0.49447646
Si      -1.30045352       3.80511118       0.97789068       3.57891094      29.22008911      -0.49447646
Si       0.85846369       1.35019886       6.66385921      14.56395096      22.90630364      -0.00000000
Si       1.05702988       1.66250542      -0.00000000     -14.56395096     -22.90630363       0.00000000
Si      -2.26992012       1.66250542       3.33192961     -14.56395096     -22.90630364      -0.00000000
Si      -0.55299274       4.36290313       3.33192961      14.56395096      22.90630363       0.00000000
Si      -1.41145643       3.01270427       3.33192961      -0.00000000      -0.00000000      -0.00000000
Si      -0.00000000      -0.00000000       6.66385921      -0.00000000      -0.00000000      -0.00000000
14
Lattice="6.728875278205282 0.09355951252928647 4.1633363423444646e-17 -2.769998686955843 6.132994632827412 4.1233971479048765e-17 -1.97943829562472 -3.1132770726783496 6.659082905738143" Properties=species:S:1:pos:R:3:forces:R:3 unique_starting_index=174 config_type=initial n_minim_iter=2 energy=-2232.3468573688924 stress="-0.31291948344194637 -0.7012686576844579 0.02414387583000216 -4.274137517292023e-12 3.2365675290089014e-12 -0.41445885010960254" pbc="T T T"
Si       0.68670684       0.45843483       4.30668182      19.93689361      12.78338764      -0.61548567
Si       2.10323690       3.92961198       2.35240108       3.11772342      23.47710644       0.61548567
Si      -0.68670685      -0.45843483       4.30668182     -19.93689361     -12.78338764      -0.61548567
Si       1.85563968       2.29694216       2.35240108      -3.11772342     -23.47710644       0.61548567
Si      -2.07170619       2.60806249       5.68194253     -19.93689361     -12.78338764       0.61548567
Si      -1.50879795       2.25016241       0.97714037      -3.11772342     -23.47710644      -0.61548567
Si      -0.69829250       3.52493214       5.68194253      19.93689361      12.78338764       0.61548567
Si      -1.26120074       3.88283222       0.97714037       3.11772342      23.47710644      -0.61548567
Si       0.88862671       1.39763951       6.65908290      11.22685274      17.65768770       0.00000000
Si       1.09081158       1.71563756      -0.00000000     -11.22685274     -17.65768770       0.00000000
Si      -2.27362606       1.66885781       3.32954145     -11.22685274     -17.65768770       0.00000000
Si      -0.49637264       4.46413682       3.32954145      11.22685274      17.65768770       0.00000000
Si      -1.38499935       3.06649732       3.32954145      -0.00000000      -0.00000000      -0.00000000
Si      -0.00000000      -0.00000000       6.65908290       0.00000000       0.00000000      -0.00000000
14
Lattice="7.062431006533623 0.5422941435017896 1.6002410533463937e-16 -2.50515991155476 6.625419871801546 1.5713541059310836e-16 -2.2786355474894315 -3.583857007651667 6.635666653929343" Properties=species:S:1:pos:R:3:forces:R:3 unique_starting_index=174 config_type=initial n_minim_iter=3 energy=-2261.067670288526 stress="-0.06132048532550854 -0.2384548339204006 0.007457194779235924 -1.1475962619385992e-12 6.3276703975081144e-12 -0.1890435291353157" pbc="T T T"
Si       0.76196430       0.56238697       4.29121451       7.81770731       5.97972601      -0.49841263
Si       2.46463961       4.51244260       2.34445214       2.09825602       9.61618388       0.49841263
Si      -0.76196431      -0.56238697       4.29121451      -7.81770731      -5.97972601      -0.49841263
Si       2.09263148       2.65527142       2.34445214      -2.09825602      -9.61618388       0.49841263
Si      -2.01454427       2.75032296       5.66228546      -7.81770731      -5.97972601       0.49841263
Si      -1.43858402       2.38412434       0.97338118      -2.09825602      -9.61618388      -0.49841263
Si      -0.49061565       3.87509691       5.66228546       7.81770731       5.97972601       0.49841263
Si      -1.06657590       4.24129553       0.97338118       2.09825602       9.61618388      -0.49841263
Si       1.03022653       1.62034889       6.63566665       4.01775062       6.31915171       0.00000000
Si       1.24840901       1.96350811      -0.00000000      -4.01775062      -6.31915171      -0.00000000
Si      -2.28280649       1.69236104       3.31783332      -4.01775062      -6.31915171      -0.00000000
Si      -0.22235342       4.93305883       3.31783332       4.01775062       6.31915171      -0.00000000
Si      -1.25257996       3.31270994       3.31783332       0.00000000       0.00000000       0.00000000
Si      -0.00000000      -0.00000000       6.63566665      -0.00000000      -0.00000000       0.00000000
14
Lattice="7.229436888999712 0.9821016569276155 -2.639326754500576e-16 -2.177746379820782 6.963239339685753 -3.4513206741842904e-16 -2.525845254589465 -3.972670498306684 6.621470936489699" Properties=species:S:1:pos:R:3:forces:R:3 unique_starting_index=174 config_type=initial n_minim_iter=4 energy=-2269.958059022843 stress="0.03048885517022445 -0.05057326126095664 0.00036308816573235613 3.1005503332347154e-12 -5.598837219074502e-12 -0.08651212307869607" pbc="T T T"
Si       0.81812520       0.65569157       4.28159103       2.78288004       2.43598516      -0.26971694
Si       2.77251464       4.99169675       2.33987990       1.02526007       3.55348938       0.26971694
Si      -0.81812521      -0.65569158       4.28159103      -2.78288004      -2.43598516      -0.26971694
Si       2.27917586       2.95364425       2.33987990      -1.02526007      -3.55348938       0.26971694
Si      -1.90699840       2.82592809       5.65061536      -2.78288004      -2.43598516       0.26971694
Si      -1.33554259       2.46259342       0.97085557      -1.02526007      -3.55348938      -0.26971694
Si      -0.27074799       4.13731124       5.65061536       2.78288004       2.43598516       0.26971694
Si      -0.84220380       4.50064592       0.97085557       1.02526007       3.55348938      -0.26971694
Si       1.14766084       1.80505055       6.62147093       1.41395349       2.22387785       0.00000000
Si       1.37818441       2.16761994      -0.00000000      -1.41395349      -2.22387786       0.00000000
Si      -2.23653404       1.67656912       3.31073547      -1.41395349      -2.22387785      -0.00000000
Si       0.05878765       5.28667022       3.31073547       1.41395349       2.22387785      -0.00000000
Si      -1.08887319       3.48161967       3.31073547      -0.00000000       0.00000000       0.00000000
Si      -0.00000000      -0.00000000       6.62147093       0.00000000       0.00000000       0.00000000
14
Lattice="7.17519632694463 1.2858387164146656 7.916784590265326e-17 -1.8796871580956152 7.042982303152625 -8.104591856531519e-18 -2.6477545844245065 -4.164410509783644 6.620397659313318" Properties=species:S:1:pos:R:3:forces:R:3 unique_starting_index=174 config_type=initial n_minim_iter=5 energy=-2272.378088066477 stress="0.04160214904149493 -0.003976298802773785 0.0034425868940466194 8.574630149741215e-12 -5.063496766440923e-13 -0.048642799662858886" pbc="T T T"
Si       0.83865069       0.70924236       4.28055494       1.42973846       1.36368097      -0.19152619
Si       2.93420871       5.22474241       2.33984271       0.62830940       1.87323388       0.19152619
Si      -0.83865070      -0.70924236       4.28055494      -1.42973846      -1.36368097      -0.19152619
Si       2.36130045       3.10407860       2.33984271      -0.62830940      -1.87323388       0.19152619
Si      -1.77849428       2.81224879       5.65004154      -1.42973846      -1.36368097       0.19152619
Si      -1.22629772       2.46115924       0.97035611      -0.62830940      -1.87323388      -0.19152619
Si      -0.10119289       4.23073351       5.65004154       1.42973846       1.36368097       0.19152619
Si      -0.65338945       4.58182306       0.97035611       0.62830940       1.87323388      -0.19152619
Si       1.20636372       1.89737893       6.62039766       0.78031271       1.22728234       0.00000000
Si       1.44139086       2.26703158      -0.00000000      -0.78031271      -1.22728234       0.00000000
Si      -2.14620730       1.62411222       3.31019883      -0.78031271      -1.22728234      -0.00000000
Si       0.26652014       5.41887008       3.31019883       0.78031271       1.22728234      -0.00000000
Si      -0.93984358       3.52149115       3.31019883      -0.00000000      -0.00000000      -0.00000000
Si      -0.00000000      -0.00000000       6.62039766       0.00000000       0.00000000      -0.00000000
14
Lattice="7.002239176985447 1.5542923377070725 1.0768335084842767e-15 -1.563213254395812 7.000253030001556 8.735673423638317e-16 -2.719512961294815 -4.277272683854312 6.602959495434262" Properties=species:S:1:pos:R:3:forces:R:3 unique_starting_index=174 config_type=initial n_minim_iter=6 energy=-2273.836387197747 stress="0.02855650929288393 0.004988108621790935 -0.00021166758797104207 -4.30816897586266e-12 -2.0470206299557407e-12 -0.025152962559307122" pbc="T T T"
Si       0.84414288       0.74917056       4.26886790       1.01394642       0.57675100      -0.15986456
Si       3.03979383       5.35951753       2.33409159       0.09210809       1.16286077       0.15986456
Si      -0.84414289      -0.74917056       4.26886790      -1.01394642      -0.57675100      -0.15986456
Si       2.39923208       3.19502784       2.33409159      -0.09210809      -1.16286077       0.15986456
Si      -1.62574952       2.75095595       5.63557134      -1.01394642      -0.57675100       0.15986455
Si      -1.10188750       2.41788167       0.96738815      -0.09210809      -1.16286077      -0.15986455
Si       0.06253625       4.24929708       5.63557134       1.01394642       0.57675100       0.15986455
Si      -0.46132576       4.58237136       0.96738815       0.09210809       1.16286077      -0.15986455
Si       1.24240480       1.95406464       6.60295949       0.54670167       0.85985695       0.00000000
Si       1.47710816       2.32320804      -0.00000000      -0.54670167      -0.85985695      -0.00000000
Si      -2.02401143       1.54606188       3.30147974      -0.54670167      -0.85985695      -0.00000000
Si       0.46079817       5.45419115       3.30147974       0.54670167       0.85985695      -0.00000000
Si      -0.78160663       3.50012651       3.30147974       0.00000000      -0.00000000      -0.00000000
Si      -0.00000000      -0.00000000       6.60295949      -0.00000000      -0.00000000       0.00000000
14
Lattice="6.765993997804164 1.80658811353531 1.736562990255403e-15 -1.2345211070645925 6.893358617285264 1.094907964970678e-15 -2.7657364453697824 -4.349973365410285 6.605100454324538" Properties=species:S:1:pos:R:3:forces:R:3 unique_starting_index=174 config_type=initial n_minim_iter=7 energy=-2274.5692614516265 stress="0.0005316638123409073 -0.007123684938406437 -0.012539456816404318 3.5307968744058106e-12 2.1513142442450832e-12 -0.008170036796217832" pbc="T T T"
Si       0.84345995       0.78274976       4.26954416       0.81839076       0.17498372      -0.04549905
Si       3.11671454       5.44584574       2.33555629      -0.18874606       0.81532673       0.04549905
Si      -0.84345996      -0.78274977       4.26954416      -0.81839076      -0.17498373      -0.04549905
Si       2.41475834       3.25410099       2.33555629       0.18874606      -0.81532673       0.04549905
Si      -1.46072051       2.66392954       5.63810652      -0.81839076      -0.17498372       0.04549905
Si      -0.96823865       2.35080693       0.96699393       0.18874606      -0.81532673      -0.04549905
Si       0.22619940       4.22942907       5.63810652       0.81839076       0.17498372       0.04549905
Si      -0.26628246       4.54255169       0.96699393      -0.18874606       0.81532673      -0.04549905
Si       1.26857476       1.99522498       6.60510045       0.39700559       0.62441370      -0.00000000
Si       1.49716168       2.35474839      -0.00000000      -0.39700559      -0.62441370      -0.00000000
Si      -1.88583532       1.45145433       3.30255022      -0.39700559      -0.62441370       0.00000000
Si       0.65131421       5.44190428       3.30255022       0.39700559       0.62441370       0.00000000
Si      -0.61726056       3.44667931       3.30255022       0.00000000       0.00000000       0.00000000
Si      -0.00000000      -0.00000000       6.60510045      -0.00000000      -0.00000000      -0.00000000
14
Lattice="6.784010597510577 1.9132029170524227 1.1877435467509162e-15 -1.1456200929629259 6.954904729150015 9.885289968783954e-16 -2.8191952522738237 -4.434053823101218 6.735085358557102" Properties=species:S:1:pos:R:3:forces:R:3 unique_starting_index=174 config_type=initial n_minim_iter=8 energy=-2274.626739098498 stress="0.01741269237784502 0.019846330384099393 0.00818701875887439 -2.452586055606661e-12 6.764596018505506e-12 0.0025972575151084307" pbc="T T T"
Si       0.85775568       0.80627010       4.35334709       0.46306064      -0.06606711      -0.02022702
Si       3.18540712       5.55285012       2.38173826      -0.25627995       0.39129350       0.02022702
Si      -0.85775569      -0.80627010       4.35334709      -0.46306064       0.06606711      -0.02022702
Si       2.45298338       3.31525753       2.38173826       0.25627995      -0.39129350       0.02022702
Si      -1.43056574       2.67118227       5.74928094      -0.46306064       0.06606711       0.02022702
Si      -0.93902192       2.35865607       0.98580441       0.25627995      -0.39129350      -0.02022702
Si       0.28494564       4.28372246       5.74928094       0.46306064      -0.06606711       0.02022702
Si      -0.20659818       4.59624866       0.98580441      -0.25627995       0.39129350      -0.02022702
Si       1.29715698       2.04017934       6.73508536       0.11930924       0.18765056       0.00000000
Si       1.52203826       2.39387448      -0.00000000      -0.11930924      -0.18765056       0.00000000
Si      -1.86996704       1.43727303       3.36754268      -0.11930924      -0.18765056       0.00000000
Si       0.72434694       5.51763170       3.36754268       0.11930924       0.18765056      -0.00000000
Si      -0.57281005       3.47745236       3.36754268      -0.00000000       0.00000000      -0.00000000
Si      -0.00000000      -0.00000000       6.73508536      -0.00000000      -0.00000000       0.00000000
14
Lattice="6.707166213937923 1.8785766840215192 1.0900669116774515e-15 -1.1443745380313377 6.870628493510989 1.6620002703739794e-15 -2.7813958379532906 -4.374602588766252 6.700551169048858" Properties=species:S:1:pos:R:3:forces:R:3 unique_starting_index=174 config_type=initial n_minim_iter=9 energy=-2274.703547952905 stress="-0.00043557966379937144 -0.0014905142273016413 -0.007054788619709902 5.182579995541169e-12 7.92462339195581e-12 -0.0011258604362290527" pbc="T T T"
Si       0.84801798       0.79526029       4.33098646       0.66156186       0.10097136       0.00821987
Si       3.14176904       5.47991005       2.36956470      -0.18923305       0.64191134      -0.00821987
Si      -0.84801798      -0.79526029       4.33098646      -0.66156186      -0.10097136       0.00821987
Si       2.42102262       3.26929513       2.36956470       0.18923305      -0.64191134      -0.00821987
Si      -1.42020525       2.64005395       5.71984028      -0.66156186      -0.10097136      -0.00821987
Si      -0.93256048       2.33000679       0.98071088       0.18923305      -0.64191134       0.00821987
Si       0.27583071       4.23057454       5.71984028       0.66156186       0.10097136      -0.00821987
Si      -0.21181406       4.54062170       0.98071088      -0.18923305       0.64191134       0.00821987
Si       1.28024632       2.01358210       6.70055117       0.21925479       0.34484577      -0.00000000
Si       1.50114951       2.36102048      -0.00000000      -0.21925479      -0.34484577      -0.00000000
Si      -1.85243360       1.42173214       3.35027558      -0.21925479      -0.34484577       0.00000000
Si       0.70805905       5.44889635       3.35027558       0.21925479       0.34484577       0.00000000
Si      -0.57218727       3.43531425       3.35027558      -0.00000000      -0.00000000       0.00000000
Si      -0.00000000      -0.00000000       6.70055117       0.00000000       0.00000000      -0.00000000
14
Lattice="6.709726989018657 1.8838388019916856 1.6535727609060534e-15 -1.1406958585040747 6.875179841825691 1.6871209085192636e-15 -2.7845155652572875 -4.379509321908684 6.724611998966955" Properties=species:S:1:pos:R:3:forces:R:3 unique_starting_index=174 config_type=initial n_minim_iter=10 energy=-2274.7191263135724 stress="0.0021498951752310417 0.0020829702142707057 -0.003941966970642953 -4.309217620527213e-12 -3.3029270025786498e-12 -7.142450453374666e-05" pbc="T T T"
Si       0.84990366       0.79728903       4.34655160       0.61670192       0.07457031       0.01427476
Si       3.14592589       5.48738504       2.37806039      -0.19410859       0.59008800      -0.01427476
Si      -0.84990366      -0.79728904       4.34655160      -0.61670192      -0.07457032       0.01427476
Si       2.42310523       3.27163360       2.37806039       0.19410859      -0.59008800      -0.01427476
Si      -1.42025159       2.64030088       5.74036639      -0.61670192      -0.07457032      -0.01427476
Si      -0.93175826       2.32971420       0.98424560       0.19410859      -0.59008800       0.01427476
Si       0.27955573       4.23487895       5.74036639       0.61670192       0.07457031      -0.01427476
Si      -0.20893760       4.54546564       0.98424560      -0.19410860       0.59008800       0.01427476
Si       1.28240989       2.01698499       6.72461200       0.18880984       0.29696170       0.00000000
Si       1.50210566       2.36252433      -0.00000000      -0.18880985      -0.29696170      -0.00000000
Si      -1.85275783       1.42060493       3.36230600      -0.18880984      -0.29696170       0.00000000
Si       0.71206196       5.45457491       3.36230600       0.18880984       0.29696170       0.00000000
Si      -0.57034793       3.43758992       3.36230600      -0.00000000       0.00000000      -0.00000000
Si      -0.00000000      -0.00000000       6.72461200      -0.00000000       0.00000000      -0.00000000
14
Lattice="6.701429922057716 1.881838605672605 2.523674790867103e-15 -1.1389871016828155 6.866817888967951 2.2505419075988132e-15 -2.781221410187445 -4.374328247320273 6.74002967785061" Properties=species:S:1:pos:R:3:forces:R:3 unique_starting_index=174 config_type=initial n_minim_iter=11 energy=-2274.732118405574 stress="0.0017718751797700363 0.0018549892276942105 -0.0032557955658800617 -6.28490131232653e-12 7.141351027616042e-12 8.870200795763243e-05" pbc="T T T"
Si       0.85017106       0.79729910       4.35654311       0.60730675       0.07813804       0.02278684
Si       3.14252741       5.48245038       2.38348656      -0.18689196       0.58309385      -0.02278684
Si      -0.85017107      -0.79729910       4.35654311      -0.60730675      -0.07813804       0.02278684
Si       2.41991541       3.26620611       2.38348656       0.18689196      -0.58309385      -0.02278684
Si      -1.41966462       2.63610984       5.75350140      -0.60730675      -0.07813804      -0.02278684
Si      -0.93079956       2.32528680       0.98652828       0.18689196      -0.58309385       0.02278684
Si       0.28067751       4.23070805       5.75350140       0.60730675       0.07813804      -0.02278684
Si      -0.20818755       4.54153108       0.98652828      -0.18689196       0.58309385       0.02278684
Si       1.28160589       2.01572044       6.74002967       0.17855397       0.28083117      -0.00000000
Si       1.49961552       2.35860781      -0.00000000      -0.17855397      -0.28083117      -0.00000000
Si      -1.85109944       1.41768850       3.37001484      -0.17855397      -0.28083117       0.00000000
Si       0.71211233       5.44912938       3.37001484       0.17855397       0.28083117       0.00000000
Si      -0.56949355       3.43340894       3.37001484       0.00000000       0.00000000       0.00000000
Si      -0.00000000      -0.00000000       6.74002967      -0.00000000      -0.00000000      -0.00000000
14
Lattice="6.655827191105511 1.866375959898946 2.294878203610775e-15 -1.1336422997537154 6.818962527962523 2.151411810189412e-15 -2.761092445675893 -4.34266924393073 6.823941309566338" Properties=species:S:1:pos:R:3:forces:R:3 unique_starting_index=174 config_type=initial n_minim_iter=12 energy=-2274.798535179902 stress="0.002104179966396676 0.002096917304921964 0.001416428055450622 -6.404668204439028e-12 -2.307635019581208e-12 -7.750942842795313e-06" pbc="T T T"
Si       0.85251075       0.79750470       4.41105726       0.60956390       0.10116628       0.07185704
Si       3.12159201       5.45299730       2.41288405      -0.16699643       0.59490751      -0.07185704
Si      -0.85251075      -0.79750470       4.41105726      -0.60956390      -0.10116628       0.07185704
Si       2.40059287       3.23234119       2.41288405       0.16699643      -0.59490751      -0.07185704
Si      -1.41933190       2.61197656       5.82485470      -0.60956390      -0.10116628      -0.07185704
Si      -0.92732072       2.29915321       0.99908660       0.16699643      -0.59490751       0.07185704
Si       0.28568960       4.20698596       5.82485470       0.60956390       0.10116628      -0.07185704
Si      -0.20632158       4.51980932       0.99908660      -0.16699643       0.59490751       0.07185704
Si       1.27670536       2.00801285       6.82394131       0.12188298       0.19169857       0.00000000
Si       1.48438708       2.33465639      -0.00000000      -0.12188298      -0.19169857       0.00000000
Si      -1.84352652       1.40146841       3.41197065      -0.12188298      -0.19169857      -0.00000000
Si       0.70988421       5.41749411       3.41197065       0.12188298       0.19169857       0.00000000
Si      -0.56682115       3.40948126       3.41197065      -0.00000000      -0.00000000      -0.00000000
Si      -0.00000000      -0.00000000       6.82394131       0.00000000       0.00000000       0.00000000
