10
Lattice="6.404629999999997 -3.9500132149766925e-31 8.675950951576012e-31 -3.160581901674278e-31 6.404629999999994 -2.806113623721693e-07 -3.2023149999999987 -3.202314792119063 4.74464217400547" Properties=species:S:1:pos:R:3:forces:R:3 unique_starting_index=482 config_type=initial n_minim_iter=1 energy=-1598.8495548627172 stress="-0.2837817480957239 -0.006868026080047427 -0.6441488243735584 -2.792552895331066e-08 -8.064528030356917e-12 -2.2214202833989738e-13" pbc="T T T"
Si       0.95016625       1.79634733       2.01065443     -14.55116095       0.18744476     -22.70679338
Si       2.25214875      -1.40596764       2.73398757      14.55116095       0.18744675      22.70679337
Si       5.04757313       1.79634731       1.40779357      13.98264695       0.04357581     -21.89056220
Si      -1.84525812      -1.40596761       3.33684843     -13.98264695       0.04357773      21.89056219
Si       4.15248125       1.79634736       2.73398743     -14.55116095       0.18744675      22.70679337
Si      -0.95016625      -1.40596767       2.01065457      14.55116095       0.18744476     -22.70679338
Si       1.84525813       1.79634739       3.33684829      13.98264695       0.04357773      21.89056219
Si       1.35705688       4.99866231       1.40779343     -13.98264695       0.04357581     -21.89056220
Si       3.20231500       0.72461664      -0.00000004      -0.00000000      -0.46204504       0.00000002
Si       3.20231500       3.92693164      -0.00000018      -0.00000000      -0.46204504       0.00000002
10
Lattice="6.44010071202596 -8.879219037660677e-18 1.1449612123397086e-17 -8.879219271175218e-18 6.4054861434714265 -2.80648873308583e-07 -3.22005035601298 -3.202742861232267 4.804497986836599" Properties=species:S:1:pos:R:3:forces:R:3 unique_starting_index=482 config_type=initial n_minim_iter=2 energy=-1601.1761085245319 stress="-0.24497860278104658 -0.006694344596431642 -0.5804952889907091 -2.5139917176331447e-08 6.493091025186439e-13 -4.0287544332340724e-13" pbc="T T T"
Si       0.95396538       1.79660621       2.03372043     -12.97066206       0.13630749     -20.55726466
Si       2.26608498      -1.40613683       2.77077739      12.97066206       0.13630929      20.55726465
Si       5.07693407       1.79659180       1.42333686      12.50616646       0.06097653     -19.75365136
Si      -1.85688371      -1.40615119       3.38116096     -12.50616646       0.06097826      19.75365136
Si       4.17401573       1.79660624       2.77077725     -12.97066205       0.13630929      20.55726465
Si      -0.95396537      -1.40613687       2.03372057      12.97066206       0.13630749     -20.55726466
Si       1.85688372       1.79659188       3.38116082      12.50616646       0.06097826      19.75365136
Si       1.36316664       4.99933487       1.42333671     -12.50616646       0.06097653     -19.75365136
Si       3.22005036       0.72466729      -0.00000004      -0.00000000      -0.39457157       0.00000002
Si       3.22005036       3.92741036      -0.00000018      -0.00000000      -0.39457157       0.00000002
10
Lattice="6.793971266584727 -1.6679880780492675e-16 1.2991193466489557e-17 -1.6724462207696882e-16 6.414856021166249 -2.8105940370333625e-07 -3.3969856332923634 -3.2074277716331827 5.453756365948241" Properties=species:S:1:pos:R:3:forces:R:3 unique_starting_index=482 config_type=initial n_minim_iter=3 energy=-1615.3035962412546 stress="-0.02513621598262604 0.04201788811949045 -0.14415644344689776 -8.157418007379026e-09 4.708919283918447e-12 -5.028100355786957e-13" pbc="T T T"
Si       0.99114143       1.79938470       2.28218710      -3.96462008      -0.24554324      -8.12140975
Si       2.40584421      -1.40804327       3.17156909       3.96462008      -0.24554253       8.12140977
Si       5.37059794       1.79928713       1.59034952       4.59547942       0.05685653      -7.26941792
Si      -1.97361230      -1.40814078       3.86340667      -4.59547942       0.05685717       7.26941791
Si       4.38812706       1.79938474       3.17156895      -3.96462008      -0.24554253       8.12140977
Si      -0.99114142      -1.40804331       2.28218724       3.96462008      -0.24554324      -8.12140974
Si       1.97361230       1.79928723       3.86340653       4.59547942       0.05685717       7.26941791
Si       1.42337333       5.00671515       1.59034938      -4.59547942       0.05685653      -7.26941792
Si       3.39698564       0.72529188      -0.00000004      -0.00000000       0.37737207      -0.00000002
Si       3.39698564       3.93271989      -0.00000018       0.00000000       0.37737207      -0.00000002
10
Lattice="6.856822057349719 -2.2249160713971376e-16 4.195911822464012e-16 -2.25685743066751e-16 6.31686891838434 -2.76766213788451e-07 -3.428411028674859 -3.158434207284015 5.749512603772013" Properties=species:S:1:pos:R:3:forces:R:3 unique_starting_index=482 config_type=initial n_minim_iter=4 energy=-1617.6511594768906 stress="0.015698821426587233 0.06918449981247095 -0.04846730313017255 -5.152894905071226e-09 1.718945335949267e-13 3.9810783876214743e-13" pbc="T T T"
Si       0.99337076       1.77152520       2.38851435      -1.86118652      -0.35505587      -5.05876414
Si       2.43504027      -1.38690922       3.36099808       1.86118652      -0.35505543       5.05876417
Si       5.42832510       1.77188955       1.66098763       2.59292091       0.04781963      -4.12918274
Si      -1.99991406      -1.38654481       4.08852480      -2.59292091       0.04782000       4.12918273
Si       4.42178179       1.77152524       3.36099794      -1.86118652      -0.35505543       5.05876417
Si      -0.99337075      -1.38690926       2.38851449       1.86118652      -0.35505587      -5.05876414
Si       1.99991407       1.77188965       4.08852466       2.59292091       0.04782000       4.12918273
Si       1.42849697       4.93032401       1.66098749      -2.59292091       0.04781963      -4.12918273
Si       3.42841103       0.71478760      -0.00000004       0.00000000       0.61447166      -0.00000003
Si       3.42841103       3.87322206      -0.00000018      -0.00000000       0.61447166      -0.00000003
10
Lattice="6.800065730552002 -2.3092893877362765e-16 3.5583828570703576e-16 -2.3947653860951914e-16 6.089668652614341 -2.668116991185801e-07 -3.4000328652760006 -3.044834067851097 5.898961261782652" Properties=species:S:1:pos:R:3:forces:R:3 unique_starting_index=482 config_type=initial n_minim_iter=5 energy=-1619.1397422376795 stress="0.02477258732520542 0.06910802671836627 -0.03195224340052671 -4.429616848239798e-09 3.731338722743873e-12 -4.567477050996594e-13" pbc="T T T"
Si       0.98065038       1.70710045       2.43439589      -1.32895728      -0.33931138      -3.94822727
Si       2.41938249      -1.33773383       3.46456521       1.32895728      -0.33931104       3.94822730
Si       5.38965921       1.70825494       1.69093591       1.83277049      -0.01413122      -3.20858100
Si      -1.98962635      -1.33657928       4.20802518      -1.83277049      -0.01413094       3.20858100
Si       4.38068324       1.70710049       3.46456507      -1.32895728      -0.33931104       3.94822730
Si      -0.98065037      -1.33773388       2.43439602       1.32895728      -0.33931138      -3.94822727
Si       1.98962635       1.70825505       4.20802505       1.83277049      -0.01413094       3.20858100
Si       1.41040652       4.75308926       1.69093578      -1.83277049      -0.01413122      -3.20858100
Si       3.40003287       0.69030380      -0.00000004      -0.00000000       0.70688457      -0.00000003
Si       3.40003287       3.73513813      -0.00000017      -0.00000000       0.70688457      -0.00000003
10
Lattice="6.538479363502954 3.8236145973874795e-16 1.5227791215253176e-15 3.6390933292204966e-16 5.458425525890572 -2.3915452007382184e-07 -3.269239681751476 -2.7292124910757063 6.205109025010949" Properties=species:S:1:pos:R:3:forces:R:3 unique_starting_index=482 config_type=initial n_minim_iter=6 energy=-1622.416005345948 stress="0.031444990727016446 0.07702359074272132 -0.012312008719285329 -3.916287957140323e-09 -1.1757534339744812e-12 -1.1125639581457874e-12" pbc="T T T"
Si       0.93358856       1.52836335       2.51912176      -0.40794935      -0.20297898      -1.88778181
Si       2.33565112      -1.20084936       3.68598711       0.40794935      -0.20297881       1.88778182
Si       5.19520667       1.53110636       1.74487342      -0.29289051      -0.15705260      -1.84891318
Si      -1.92596698      -1.19810629       4.46023545       0.29289051      -0.15705244       1.84891319
Si       4.20282824       1.52836341       3.68598699      -0.40794935      -0.20297881       1.88778182
Si      -0.93358856      -1.20084941       2.51912188       0.40794935      -0.20297898      -1.88778181
Si       1.92596698       1.53110647       4.46023533      -0.29289051      -0.15705244       1.84891319
Si       1.34327270       4.26031912       1.74487330       0.29289051      -0.15705260      -1.84891318
Si       3.26923968       0.62246156      -0.00000004       0.00000000       0.72006284      -0.00000003
Si       3.26923968       3.35167433      -0.00000016       0.00000000       0.72006284      -0.00000003
10
Lattice="6.108574462393248 -1.5513059379200017e-16 1.3337721345133166e-15 -1.6589849294732966e-16 4.620805065095624 -2.0245516192032618e-07 -3.0542872311966236 -2.3104022533413144 6.37256570332842" Properties=species:S:1:pos:R:3:forces:R:3 unique_starting_index=482 config_type=initial n_minim_iter=7 energy=-1624.2163117449131 stress="-0.026541259446590804 -0.03093793646828625 -0.014843393419624958 7.055629692658898e-10 -1.0246361754679106e-11 -3.1557887667697354e-12" pbc="T T T"
Si       0.86832568       1.29261006       2.55472007       0.81821066      -0.02130468      -0.82793721
Si       2.18596155      -1.01779242       3.81784550      -0.81821066      -0.02130461       0.82793721
Si       4.85083664       1.29520793       1.76024396      -1.68533473      -0.07272271      -1.99310752
Si      -1.79654940      -1.01519448       4.61232161       1.68533473      -0.07272254       1.99310753
Si       3.92261291       1.29261011       3.81784540       0.81821066      -0.02130461       0.82793721
Si      -0.86832568      -1.01779248       2.55472017      -0.81821066      -0.02130468      -0.82793721
Si       1.79654941       1.29520805       4.61232151      -1.68533473      -0.07272254       1.99310753
Si       1.25773783       3.60561046       1.76024386       1.68533473      -0.07272271      -1.99310752
Si       3.05428723       0.53126615      -0.00000003       0.00000000       0.18805454      -0.00000001
Si       3.05428723       2.84166868      -0.00000014      -0.00000000       0.18805454      -0.00000001
10
Lattice="6.315889942266932 2.904396893415802e-16 9.442429097804344e-16 2.8035195847324945e-16 4.804115466233052 -2.104866924570774e-07 -3.1579449711334666 -2.4020574486496025 6.492628870376202" Properties=species:S:1:pos:R:3:forces:R:3 unique_starting_index=482 config_type=initial n_minim_iter=8 energy=-1624.6017436006969 stress="0.01261738538653492 0.0051643158454205825 0.007790455774508429 1.0956317535693216e-10 1.1260803494384415e-12 -1.211027016515805e-13" pbc="T T T"
Si       0.90317530       1.34380815       2.59221470       0.17333508      -0.05763997      -0.53074059
Si       2.25476967      -1.05824953       3.90041403      -0.17333508      -0.05763993       0.53074059
Si       5.00438483       1.34631455       1.76779924      -1.67084122      -0.15206398      -1.23790538
Si      -1.84643986      -1.05574306       4.72482949       1.67084122      -0.15206387       1.23790539
Si       4.06112027       1.34380821       3.90041393       0.17333508      -0.05763993       0.53074059
Si      -0.90317530      -1.05824958       2.59221480      -0.17333508      -0.05763997      -0.53074059
Si       1.84643986       1.34631468       4.72482939      -1.67084122      -0.15206387       1.23790539
Si       1.31150511       3.74837228       1.76779913       1.67084122      -0.15206398      -1.23790538
Si       3.15794497       0.55305330      -0.00000004      -0.00000000       0.41940774      -0.00000002
Si       3.15794497       2.95511103      -0.00000014       0.00000000       0.41940775      -0.00000002
10
Lattice="6.228208363533388 9.44777311172018e-16 7.940620668041317e-16 9.34055915484961e-16 4.776704716373217 -2.0928572124688687e-07 -3.114104181766695 -2.3883520761645682 6.436827220491047" Properties=species:S:1:pos:R:3:forces:R:3 unique_starting_index=482 config_type=initial n_minim_iter=9 energy=-1624.788651010676 stress="0.008719381733341525 -0.0026079751834045127 0.006656184290608347 4.105271691731265e-10 1.4877354982565071e-12 7.195913989046512e-12" pbc="T T T"
Si       0.89157169       1.33595945       2.56439400       0.33767576      -0.04526022      -0.60185608
Si       2.22253249      -1.05239285       3.87243308      -0.33767576      -0.04526016       0.60185609
Si       4.92589866       1.33815444       1.73968037      -1.68856867      -0.12225886      -1.26580145
Si      -1.81179447      -1.05019779       4.69714671       1.68856867      -0.12225875       1.26580147
Si       4.00567587       1.33595950       3.87243298       0.33767576      -0.04526016       0.60185609
Si      -0.89157169      -1.05239291       2.56439411      -0.33767576      -0.04526022      -0.60185608
Si       1.81179447       1.33815457       4.69714661      -1.68856867      -0.12225875       1.26580147
Si       1.30230971       3.72650680       1.73968027       1.68856867      -0.12225886      -1.26580145
Si       3.11410418       0.55121740      -0.00000004      -0.00000000       0.33503798      -0.00000002
Si       3.11410418       2.93956976      -0.00000014      -0.00000000       0.33503798      -0.00000001
10
Lattice="6.163545903623178 2.381953316574625e-16 2.1971113330670293e-16 2.2543739228289877e-16 4.791638764236698 -2.0994003846803525e-07 -3.08177295181159 -2.395819102334241 6.385748971698412" Properties=species:S:1:pos:R:3:forces:R:3 unique_starting_index=482 config_type=initial n_minim_iter=10 energy=-1624.9693788429583 stress="0.004081187879489792 -0.00472502554812836 0.0025849869256808445 3.197083581008207e-10 1.3025556893130966e-11 -2.3798070650487645e-12" pbc="T T T"
Si       0.88429042       1.33997838       2.53717604       0.43992009      -0.03533109      -0.66535388
Si       2.19748254      -1.05584094       3.84857279      -0.43992009      -0.03533103       0.66535388
Si       4.86487994       1.34191170       1.71142949      -1.60329347      -0.09664186      -1.17756125
Si      -1.78310699      -1.05390755       4.67431934       1.60329347      -0.09664175       1.17756126
Si       3.96606337       1.33997844       3.84857269       0.43992009      -0.03533103       0.66535388
Si      -0.88429041      -1.05584100       2.53717614      -0.43992009      -0.03533109      -0.66535388
Si       1.78310699       1.34191183       4.67431924      -1.60329347      -0.09664175       1.17756126
Si       1.29866596       3.73773108       1.71142939       1.60329347      -0.09664186      -1.17756125
Si       3.08177295       0.55410923      -0.00000004      -0.00000000       0.26394573      -0.00000001
Si       3.08177295       2.94992861      -0.00000014      -0.00000000       0.26394573      -0.00000001
10
Lattice="6.104511574108555 2.9801838064642857e-16 4.955599405666486e-16 2.830088605812462e-16 4.845327801587624 -2.1229235958354218e-07 -3.052255787054278 -2.4226636227100364 6.346940839434887" Properties=species:S:1:pos:R:3:forces:R:3 unique_starting_index=482 config_type=initial n_minim_iter=11 energy=-1625.2603413413199 stress="0.004442716259626539 -0.0012679844315229027 0.002056491446125088 1.455633619291409e-10 -7.526861991067133e-12 -4.4833943530045174e-13" pbc="T T T"
Si       0.88086634       1.35474243       2.50677825       0.52073461      -0.02940749      -0.65060922
Si       2.17138945      -1.06792141       3.84016245      -0.52073461      -0.02940743       0.65060922
Si       4.79989532       1.35626350       1.67451909      -1.48563772      -0.06189242      -0.88659351
Si      -1.74763953      -1.06640027       4.67242161       1.48563772      -0.06189234       0.88659351
Si       3.93312213       1.35474249       3.84016234       0.52073461      -0.02940743       0.65060922
Si      -0.88086634      -1.06792147       2.50677836      -0.52073461      -0.02940749      -0.65060922
Si       1.74763953       1.35626363       4.67242150      -1.48563772      -0.06189234       0.88659351
Si       1.30461626       3.77892740       1.67451898       1.48563772      -0.06189242      -0.88659351
Si       3.05225579       0.56218590      -0.00000004       0.00000000       0.18259968      -0.00000001
Si       3.05225579       2.98484980      -0.00000014      -0.00000000       0.18259968      -0.00000001
10
Lattice="5.897306960032966 1.9384569304879862e-16 1.1918382209719437e-15 1.7137765681041153e-16 4.893318374688277 -2.1439500948379244e-07 -2.948653480016483 -2.446658913670103 6.246293597134162" Properties=species:S:1:pos:R:3:forces:R:3 unique_starting_index=482 config_type=initial n_minim_iter=12 energy=-1625.8020887288271 stress="-0.02020056988269051 -0.01276337927824859 -0.006224926363656742 2.796285655400899e-10 -1.5449573551367985e-11 -2.1095003011190655e-12" pbc="T T T"
Si       0.86988940       1.36745670       2.41958744       0.79226182      -0.00197388      -0.51159443
Si       2.07876408      -1.07920242       3.82670602      -0.79226182      -0.00197383       0.51159443
Si       4.58298877       1.36821541       1.58331905      -0.93138766       0.14095768      -0.19046560
Si      -1.63433529      -1.07844364       4.66297440       0.93138766       0.14095770       0.19046559
Si       3.81854288       1.36745677       3.82670591       0.79226182      -0.00197383       0.51159443
Si      -0.86988940      -1.07920248       2.41958754      -0.79226182      -0.00197388      -0.51159443
Si       1.63433529       1.36821554       4.66297430      -0.93138766       0.14095770       0.19046559
Si       1.31431819       3.81487460       1.58331894       0.93138766       0.14095768      -0.19046560
Si       2.94865348       0.57212403      -0.00000004      -0.00000000      -0.27796766       0.00000001
Si       2.94865348       3.01878322      -0.00000014       0.00000000      -0.27796766       0.00000001
10
Lattice="6.233461401971553 7.95603780708683e-16 1.1783267124264708e-15 7.843981806857275e-16 5.067750038826218 -2.2203752886678184e-07 -3.1167307009857765 -2.533874741023759 6.353915218674291" Properties=species:S:1:pos:R:3:forces:R:3 unique_starting_index=482 config_type=initial n_minim_iter=13 energy=-1625.5791091307972 stress="0.0465984376710778 0.040454539988519396 0.02874142954475341 -5.125363937507009e-10 8.605132203066697e-12 5.589944139237049e-13" pbc="T T T"
Si       0.93028393       1.41618414       2.44754423       0.11482029      -0.12954254      -0.36571171
Si       2.18644677      -1.11769082       3.90637085      -0.11482029      -0.12954251       0.36571172
Si       4.83151740       1.41828544       1.60548676      -0.97937847      -0.00014003       0.16571162
Si      -1.71478669      -1.11558945       4.74842831       0.97937847      -0.00014004      -0.16571162
Si       4.04701464       1.41618420       3.90637074       0.11482030      -0.12954251       0.36571172
Si      -0.93028393      -1.11769088       2.44754434      -0.11482029      -0.12954254      -0.36571171
Si       1.71478670       1.41828557       4.74842820      -0.97937847      -0.00014004      -0.16571162
Si       1.40194401       3.95216046       1.60548665       0.97937847      -0.00014003       0.16571162
Si       3.11673070       0.58996005      -0.00000004      -0.00000000       0.25936512      -0.00000001
Si       3.11673070       3.12383507      -0.00000015      -0.00000000       0.25936512      -0.00000001
10
Lattice="6.016241673531732 4.297302854329466e-16 1.0789154438800822e-15 4.165413125471859e-16 4.914079373209045 -2.153046281381535e-07 -3.008120836765866 -2.4570394142393392 6.216420567892496" Properties=species:S:1:pos:R:3:forces:R:3 unique_starting_index=482 config_type=initial n_minim_iter=14 energy=-1625.947700605327 stress="0.0036828860141236864 -0.003101946577586745 6.827423863563713e-06 1.292480611896893e-10 5.022967577681915e-12 -7.59668300506579e-12" pbc="T T T"
Si       0.89826407       1.37294258       2.39214758       0.38400162      -0.03350946      -0.59281864
Si       2.10985677      -1.08409704       3.82427284      -0.38400162      -0.03350940       0.59281865
Si       4.65975619       1.37527809       1.57184766      -0.67664516       0.11706850      -0.07325021
Si      -1.65163535      -1.08176147       4.64457276       0.67664516       0.11706851       0.07325020
Si       3.90638491       1.37294264       3.82427274       0.38400162      -0.03350940       0.59281865
Si      -0.89826407      -1.08409710       2.39214769      -0.38400162      -0.03350946      -0.59281864
Si       1.65163535       1.37527822       4.64457266      -0.67664516       0.11706851       0.07325020
Si       1.35648549       3.83231777       1.57184755       0.67664516       0.11706850      -0.07325021
Si       3.00812084       0.57266768      -0.00000004       0.00000000      -0.16711815       0.00000001
Si       3.00812084       3.02970737      -0.00000014       0.00000000      -0.16711815       0.00000001
