16
Lattice="8.859145139387563 0.30224858933761123 -0.7581489694665151 -4.125859516035362 7.845577905912566 0.7581472459826102 -3.433388421689665 -3.454211233319838 7.445190754561523" Properties=species:S:1:pos:R:3:forces:R:3 unique_starting_index=456 config_type=initial n_minim_iter=1 energy=-2598.934756478758 stress="-0.0004676169323129306 -0.0003034026865203339 0.0008233530584453357 -0.0003034026865203339 -0.0008136368753660765 -0.00047830716824235204 0.0008233530584453357 -0.00047830716824235204 -0.00017011781271719198" free_energy=-2598.934756478758 pbc="T T T"
Si      -4.52041536       4.20749352       3.98356071      -0.38750552       0.29489450       0.04791836
Si      -1.66502848       2.54872461       4.21977679       0.44812484      -0.19054506      -0.04791839
Si      -3.10393073       3.38462020       2.44638369       0.09820676       0.01273142      -0.47917931
Si      -3.08151311       3.37159792       5.75695380      -0.03758744       0.09161803       0.47917928
Si      -3.58414273       5.13546059       7.19456380      -0.49199906       0.17428177       0.57182097
Si      -1.32269981       3.82172792       1.00877323       0.39511096      -0.34106390      -0.57182093
Si       0.28739273       2.88638345       2.99315193       0.47318304      -0.38641799      -0.47560003
Si      -5.19423527       6.07080506       5.21018509      -0.57007114       0.21963586       0.47560006
Si       6.10118908       0.29023739      -0.18770043      -0.07330308       0.03800898      -0.22110770
Si      -6.20351524       1.98960579       7.63288996       0.06932913      -0.04484971       0.22110770
Si       1.22173115       3.12484332       5.10751453      -0.18825765       0.10478913      -0.09635835
Si      -1.32405730      -0.84500013       2.33767501       0.18428370      -0.11162985       0.09635835
Si      -2.17341814       7.79841598       0.78119775       0.15619900      -0.04441429       0.32315563
Si       4.41763635      -1.47925680       6.66399093      -0.11595627       0.11368769      -0.32315564
Si       0.39799963       0.85585431       1.70993934       0.29033818      -0.12233928       0.17758704
Si       1.84621857       5.46330487       5.73524934      -0.25009545       0.19161268      -0.17758705
16
Lattice="8.895343509197573 0.32127586405631803 -0.8121157582666912 -4.1272617255121125 7.8864483639014695 0.8121140221128089 -3.4985509071607197 -3.456412502869203 7.46346035644915" Properties=species:S:1:pos:R:3:forces:R:3 unique_starting_index=456 config_type=initial n_minim_iter=2 energy=-2598.9751445707075 stress="0.0035536638002292183 -9.49699146405491e-05 -0.002837794781496998 -9.49699146405491e-05 0.0034453555032888865 0.0016485492048544208 -0.002837794781496998 0.0016485492048544208 0.0031909489840716487" free_energy=-2598.9751445707075 pbc="T T T"
Si      -4.55659382       4.24114070       4.03191444      -0.21864569       0.33145519      -0.13640498
Si      -1.68444301       2.57263318       4.24365942       0.39623928      -0.02574752       0.13640492
Si      -3.12063616       3.40695500       2.47360519      -0.00937812       0.20988613      -0.36350332
Si      -3.12040066       3.40681889       5.80196868       0.18697171       0.09582154       0.36350325
Si      -3.63611640       5.18649464       7.25211475      -0.48420039       0.03549441       0.52760661
Si      -1.31918631       3.84052801       1.02345865       0.27068456      -0.40303823      -0.52760654
Si       0.28342049       2.90953220       2.99861147       0.37251441      -0.46219384      -0.40210506
Si      -5.23872320       6.11749045       5.27696193      -0.58603024       0.09465001       0.40210514
Si       6.12323149       0.30555597      -0.22730060      -0.09315799       0.08599213      -0.26299093
Si      -6.26628942       2.01414069       7.69075973       0.12084687      -0.03832878       0.26299092
Si       1.19914969       3.16608506       5.11634041      -0.20630140       0.15172013      -0.14020707
Si      -1.34220763      -0.84638840       2.34711872       0.23399029      -0.10405678       0.14020706
Si      -2.16604885       7.84284890       0.82771837       0.16897433      -0.08868364       0.36874907
Si       4.38742191      -1.45304638       6.63573989      -0.16074097       0.10285645      -0.36874908
Si       0.39501629       0.86624547       1.71524961       0.31184915      -0.17168339       0.21370053
Si       1.82635677       5.52355704       5.74820865      -0.30361579       0.18585620      -0.21370053
16
Lattice="8.789798553722848 0.44126066834909927 -0.8677924518454311 -3.9707498245563335 7.854197506346192 0.8677906971334647 -3.563754701840406 -3.477204934559313 7.308695615506715" Properties=species:S:1:pos:R:3:forces:R:3 unique_starting_index=456 config_type=initial n_minim_iter=3 energy=-2599.1725079863163 stress="-0.007792229249108655 0.0034794606610672562 -0.007466995453576543 0.0034794606610672562 -0.003824029542767859 0.0043377711298261765 -0.007466995453576543 0.0043377711298261765 -0.01091310674327445" free_energy=-2599.1725079863163 pbc="T T T"
Si      -4.50749164       4.23932463       4.00335352      -0.00418677       0.30330190      -0.37881460
Si      -1.61903550       2.56134492       4.17313228       0.26554956       0.14660517       0.37881450
Si      -3.04475624       3.38958303       2.41598491      -0.18764237       0.40987610      -0.17972757
Si      -3.08177090       3.41108652       5.76050089       0.44900516       0.04003097       0.17972747
Si      -3.62781742       5.20057356       7.20252601      -0.43570001       0.21711243       0.29063465
Si      -1.21975891       3.80166804       0.97395932       0.40442960      -0.27094097      -0.29063464
Si       0.34014011       2.89548229       2.89647638       0.26185352      -0.18811483      -0.46635433
Si      -5.18771643       6.10675931       5.28000894      -0.29312393       0.13428629       0.46635434
Si       6.04168162       0.39442099      -0.29508794       0.39060302       0.04486195      -0.38314573
Si      -6.21390087       1.96652638       7.60378231      -0.15451585       0.36153593       0.38314564
Si       1.16500121       3.22741337       4.99711283      -0.22990427       0.40533102       0.29023224
Si      -1.33722045      -0.86646600       2.31158154       0.46599144       0.00106687      -0.29023233
Si      -2.02079320       7.83293942       0.89865013      -0.04305866      -0.51163216       0.42571870
Si       4.24165674      -1.35256531       6.41004337      -0.42312088      -0.29084425      -0.42571853
Si       0.41619540       0.86974429       1.69530566       0.12220434      -0.60763780       0.24637436
Si       1.80466814       5.61062982       5.61338784      -0.58838389      -0.19483861      -0.24637420
16
Lattice="8.801702224554358 0.4728608175630855 -0.8304207840966605 -3.949195614999335 7.8801913892691005 0.830419017202011 -3.5479276853162633 -3.5249145584852553 7.305500980515754" Properties=species:S:1:pos:R:3:forces:R:3 unique_starting_index=456 config_type=initial n_minim_iter=4 energy=-2599.295461984683 stress="-0.0015536740672790668 0.0012592628427332516 -0.0012862884330753367 0.0012592628427332516 -0.00011753078549377179 0.0007472379460038428 -0.0012862884330753367 0.0007472379460038428 -0.002474627820914517" free_energy=-2599.295461984683 pbc="T T T"
Si      -4.50173157       4.25286007       3.97468233       0.33768128       0.24958205      -0.24228424
Si      -1.57274944       2.55133775       4.16123714       0.04953761       0.41697235       0.24228409
Si      -3.02468406       3.39480418       2.37178214      -0.02462021       0.46005255       0.15088736
Si      -3.04979695       3.40939364       5.76413733       0.41183910       0.20650185      -0.15088750
Si      -3.61170243       5.20549749       7.20571632      -0.11336102       0.27292205       0.04175612
Si      -1.18608295       3.79639033       0.93020269       0.29323878       0.03671757      -0.04175618
Si       0.38584957       2.88321400       2.86755060       0.13888878       0.12638348      -0.23198678
Si      -5.18363495       6.11867381       5.26836841       0.04098898       0.18325614       0.23198671
Si       6.04865498       0.41821688      -0.28165289       0.35725197       0.01057950      -0.27669379
Si      -6.18085688       1.93666186       7.58715262      -0.16777612       0.31558217       0.27669372
Si       1.18901539       3.24130980       4.99205508      -0.16071044       0.31147754       0.28540190
Si      -1.32121728      -0.88643106       2.31344465       0.35018629       0.01468413      -0.28540197
Si      -1.98837605       7.86115971       0.88728131      -0.42037609      -0.62672672       0.13954974
Si       4.26594047      -1.35813540       6.41821754      -0.33619641      -0.67562897      -0.13954947
Si       0.44188761       0.86335598       1.70521572      -0.25518958      -0.72268793      -0.03971158
Si       1.83567681       5.63966833       5.60028313      -0.50138293      -0.57966776       0.03971186
16
Lattice="8.799843961693313 0.3853904522956781 -0.8583628576822863 -4.024259806986762 7.835248275704402 0.85836111879664 -3.535904331401611 -3.443349357960884 7.345971147814656" Properties=species:S:1:pos:R:3:forces:R:3 unique_starting_index=456 config_type=initial n_minim_iter=5 energy=-2599.43112719418 stress="0.004546122685099882 -0.004636848487262743 0.0016734018146162947 -0.004636848487262743 -0.000742032167581277 -0.0009721205900730454 0.0016734018146162947 -0.0009721205900730454 0.0074862094125180915" free_energy=-2599.43112719418 pbc="T T T"
Si      -4.55964021       4.28896129       4.00600476       0.74519419       0.26342027      -0.20961135
Si      -1.57574417       2.55553804       4.19832698      -0.14030475       0.77782986       0.20961113
Si      -3.05587967       3.41538710       2.37411545       0.09343273       0.64204570       0.49768381
Si      -3.07950470       3.42911223       5.83021629       0.51145671       0.39920442      -0.49768403
Si      -3.71751123       5.21931063       7.30075326       0.20066473       0.09581279      -0.26890826
Si      -1.18471155       3.74793967       0.90357804      -0.01616850       0.22177700       0.26890820
Si       0.38952891       2.83342260       2.84377040      -0.14669100       0.29760091       0.10804411
Si      -5.29175169       6.13382770       5.36056089       0.33118723       0.01998889      -0.10804417
Si       6.05597517       0.36129315      -0.32668675      -0.06680497      -0.16155469      -0.31552179
Si      -6.22190871       1.99638862       7.67265666      -0.10724884      -0.13805965       0.31552185
Si       1.12535787       3.22561890       5.02404663      -0.36058698       0.00911104       0.00329209
Si      -1.29129141      -0.86793713       2.32192328       0.18653317      -0.30872538      -0.00329202
Si      -2.07458771       7.76525165       0.93718195      -0.65473462      -0.32799147       0.14241583
Si       4.23735474      -1.39897000       6.40878711       0.03940277      -0.73123411      -0.14241561
Si       0.43501036       0.80991036       1.72254019      -0.16271864      -0.61381655      -0.39152266
Si       1.72775666       5.55637129       5.62342887      -0.45261322      -0.44540903       0.39152288
16
Lattice="8.778865972115911 0.568825218877281 -0.8192016337931531 -3.854520182383422 7.907890172944032 0.8191998407404221 -3.5704327003658243 -3.594539042846141 7.238400417525142" Properties=species:S:1:pos:R:3:forces:R:3 unique_starting_index=456 config_type=initial n_minim_iter=6 energy=-2599.6510141976587 stress="0.006171831937462822 -0.0012720289781021413 0.00517966474871696 -0.0012720289781021413 0.004721127447845512 -0.0030090020138176703 0.00517966474871696 -0.0030090020138176703 0.007673529040085073" free_energy=-2599.6510141976587 pbc="T T T"
Si      -4.44306372       4.32839660       3.91052718       0.58713830       0.38104216       0.17917199
Si      -1.46402253       2.59779366       4.14707252       0.04016598       0.69879262      -0.17917222
Si      -2.96096571       3.46740674       2.30214615       0.45088986       0.46019247       0.32702956
Si      -2.94612054       3.45878352       5.75545354       0.17641442       0.61964230      -0.32702979
Si      -3.62867448       5.27018326       7.22793475       0.24000564      -0.05688635      -0.16209562
Si      -1.04931342       3.77176356       0.82966450      -0.16830456       0.18031180       0.16209559
Si       0.50359800       2.86963709       2.74356962      -0.11699899       0.15050706       0.22532779
Si      -5.18158590       6.17230973       5.31402963       0.18870006      -0.02708161      -0.22532782
Si       6.06029543       0.49115748      -0.34875111      -0.18146924      -0.24339537      -0.26255075
Si      -6.14576520       1.91328083       7.58715025      -0.12154359      -0.27820764       0.26255086
Si       1.16719243       3.33369018       4.96127154      -0.37616731      -0.13029013      -0.05126332
Si      -1.25266220      -0.92925187       2.27712760       0.07315447      -0.39131288       0.05126343
Si      -1.94159310       7.81757553       0.94508767       0.03445844      -0.47586776      -0.64998121
Si       4.18240012      -1.40870961       6.29331063      -0.43045095      -0.20578945       0.64998136
Si       0.45871439       0.75447590       1.70400755      -0.77365812      -0.00641151       0.22699138
Si       1.78209263       5.65439002       5.53439075       0.37766561      -0.67524569      -0.22699124
16
Lattice="8.747043404269636 0.5793048551141111 -0.8559139728680659 -3.8296531504228937 7.885437352731369 0.8559121823479838 -3.5968344101282512 -3.5711946877866287 7.203353516823158" Properties=species:S:1:pos:R:3:forces:R:3 unique_starting_index=456 config_type=initial n_minim_iter=7 energy=-2599.7852813514905 stress="0.0017366439625620107 -0.0009123146503722427 0.0018304010539654443 -0.0009123146503722427 0.0006961819789417921 -0.0010633273692500617 0.0018304010539654443 -0.0010633273692500617 0.002536170876097665" free_energy=-2599.7852813514905 pbc="T T T"
Si      -4.42102815       4.35105757       3.91336167       0.43116500       0.37478877       0.22040960
Si      -1.45678726       2.62905252       4.14590346       0.11199583       0.56020240      -0.22040979
Si      -2.94507306       3.49363630       2.31164698       0.45164048       0.36289403       0.19818950
Si      -2.93274234       3.48647379       5.74761814       0.09152036       0.57209715      -0.19818970
Si      -3.65625172       5.28804880       7.23430297       0.10016813      -0.13816997      -0.02603854
Si      -1.02166795       3.75754879       0.82496173      -0.16964573       0.01857197       0.02603857
Si       0.51016323       2.86766837       2.71288624      -0.06577996      -0.04176635       0.15404924
Si      -5.18808290       6.17792922       5.34637845      -0.00369765      -0.07783165      -0.15404922
Si       6.04641795       0.49556580      -0.39933985      -0.32599441      -0.35151844      -0.25831335
Si      -6.16146316       1.92675364       7.60269209      -0.14387787      -0.45731460       0.25831352
Si       1.12273162       3.35586517       4.94387201      -0.45205865      -0.27828440      -0.12150773
Si      -1.23777682      -0.93354572       2.25948023      -0.01781363      -0.53054864       0.12150790
Si      -1.94148406       7.76180838       0.98058323       0.29218880      -0.17412725      -0.58829527
Si       4.10749998      -1.41289507       6.22276818      -0.29599976       0.16756712       0.58829527
Si       0.43720421       0.71927483       1.69926622      -0.52825261       0.30248882       0.30205233
Si       1.72881171       5.62963848       5.50408519       0.52444166      -0.30904895      -0.30205233
16
Lattice="8.7364330535384 0.6169683239420478 -0.8744825962896516 -3.791679351967675 7.894877025802771 0.8744807958059907 -3.6249962316110507 -3.5863343972933897 7.174136891258469" Properties=species:S:1:pos:R:3:forces:R:3 unique_starting_index=456 config_type=initial n_minim_iter=8 energy=-2599.8906431451796 stress="-0.0017618533163469411 0.0005514710611986806 -0.0012715549601637422 0.0005514710611986806 -0.001132920386316972 0.0007386792283218292 -0.0012715549601637422 0.0007386792283218292 -0.002269462725232227" free_energy=-2599.8906431451796 pbc="T T T"
Si      -4.38158429       4.37520534       3.91107156       0.13934258       0.34948480       0.21890649
Si      -1.44553704       2.66957871       4.13754554       0.23457015       0.29416451      -0.21890662
Si      -2.91800362       3.52497270       2.32278567       0.37888401       0.21032886      -0.04104521
Si      -2.90911771       3.51981136       5.72583143      -0.00497128       0.43332045       0.04104507
Si      -3.64934318       5.30526988       7.22130136      -0.09515003      -0.10766179       0.16579419
Si      -1.00031835       3.76638069       0.82731531      -0.04639180      -0.13598679      -0.16579414
Si       0.51812579       2.88427715       2.69874081       0.07384786      -0.20583712      -0.01760326
Si      -5.16778732       6.18737343       5.34987587      -0.21538969      -0.03781145       0.01760331
Si       6.03955724       0.51134045      -0.43088910      -0.29067974      -0.37209971      -0.20656726
Si      -6.17252319       1.91346816       7.60502471      -0.17924993      -0.43683212       0.20656743
Si       1.10138841       3.38005308       4.92803924      -0.40967936      -0.30296969      -0.07742821
Si      -1.23435436      -0.95524447       2.24609637      -0.06025031      -0.50596214       0.07742838
Si      -1.91392886       7.75246166       0.98489716       0.35082485       0.06966417      -0.43614865
Si       4.05756915      -1.40872778       6.18923762      -0.11326608       0.33926692       0.43614856
Si       0.41409118       0.70786296       1.69878760      -0.27233249       0.43167272       0.24010517
Si       1.72954910       5.63587092       5.47534718       0.50989126      -0.02274163      -0.24010525
16
Lattice="8.727715186629519 0.7150362522608849 -0.8881623277538693 -3.7021702106009884 7.935882320397985 0.8881604978524904 -3.6740760842729645 -3.6508261329310683 7.116583099739166" Properties=species:S:1:pos:R:3:forces:R:3 unique_starting_index=456 config_type=initial n_minim_iter=9 energy=-2600.0193158556053 stress="-0.004656715157761445 0.0021356210514715413 -0.003424824477783459 0.0021356210514715413 -0.0022211167407102566 0.001989569022309114 -0.003424824477783459 0.001989569022309114 -0.006401682853742473" free_energy=-2600.0193158556053 pbc="T T T"
Si      -4.29410671       4.45218493       3.89688530      -0.24836007       0.16054945       0.15815097
Si      -1.38156873       2.76021545       4.10785767       0.26249415      -0.13621921      -0.15815098
Si      -2.83633908       3.60532924       2.31490774       0.15977025      -0.07654423      -0.28475433
Si      -2.83933636       3.60707115       5.68983523      -0.14563617       0.10087448       0.28475433
Si      -3.63084013       5.34499502       7.20766744      -0.22310123       0.07876022       0.36343060
Si      -0.93454578       3.77864572       0.79707513       0.17893247      -0.15479184      -0.36343059
Si       0.56893035       2.90523748       2.65005310       0.30430503      -0.22762400      -0.20891361
Si      -5.13431626       6.21840325       5.35468947      -0.34847379       0.15159238       0.20891363
Si       6.02346042       0.54551803      -0.49240980      -0.09476064      -0.32867719       0.05687759
Si      -6.18393965       1.85192331       7.60899161      -0.23857870      -0.24512954      -0.05687747
Si       1.06079112       3.42846363       4.89310659      -0.12215685      -0.31276201       0.08660810
Si      -1.22127035      -1.03102229       2.22347522      -0.21118250      -0.26104472      -0.08660798
Si      -1.83137420       7.75752534       0.97495143       0.14433875       0.33445059      -0.19505018
Si       3.97199422      -1.39899672       6.14162955       0.21903527       0.29105751       0.19505005
Si       0.37567659       0.69019736       1.70930287       0.01574416       0.40915458      -0.05549862
Si       1.76494343       5.66833126       5.40727811       0.34762986       0.21635352       0.05549849
16
Lattice="8.754757039783586 0.6912849698490873 -0.8629527136144286 -3.736198046577206 7.947608007808115 0.8629508862567852 -3.6507688847732656 -3.656323919613529 7.153426805800664" Properties=species:S:1:pos:R:3:forces:R:3 unique_starting_index=456 config_type=initial n_minim_iter=10 energy=-2600.1181760601867 stress="-0.00015522311266828867 -0.0002049407346081437 -0.002419402348513988 -0.0002049407346081437 -0.0003889492636845703 0.001405494160363779 -0.002419402348513988 0.001405494160363779 -0.0003924417863328722" free_energy=-2600.1181760601867 pbc="T T T"
Si      -4.31063201       4.48119734       3.90950202       0.01466702      -0.03447165      -0.05204285
Si      -1.35890068       2.76645940       4.10687504      -0.03721057      -0.00433458       0.05204286
Si      -2.82615491       3.61882540       2.29853919      -0.05782951       0.00764350       0.02663079
Si      -2.84337778       3.62883134       5.71783787       0.03528596      -0.04644973      -0.02663078
Si      -3.64575348       5.34184428       7.24672763       0.06188790       0.30030487       0.12372860
Si      -0.94061604       3.77035778       0.76964903       0.23021557       0.20251887      -0.12372870
Si       0.58740619       2.88269008       2.65287916       0.25816917       0.18627989      -0.08927694
Si      -5.17377572       6.22951198       5.36349751       0.03393429       0.31654384       0.08927683
Si       6.02256651       0.50337545      -0.48139469       0.12827456      -0.19305831       0.17143397
Si      -6.19679852       1.82477346       7.63482022      -0.23124942       0.01579850      -0.17143393
Si       1.05064593       3.39169536       4.91416124       0.08502767      -0.16793505       0.21836573
Si      -1.22487794      -1.06354646       2.23926429      -0.18800254      -0.00932475      -0.21836570
Si      -1.84096824       7.77601596       0.93822271      -0.40878973       0.04571098      -0.06918324
Si       4.01611651      -1.40366934       6.21520197       0.24220468      -0.33246868       0.06918330
Si       0.37386582       0.71220845       1.72626451      -0.12231227      -0.12071134      -0.38007018
Si       1.80128245       5.66013817       5.42716017      -0.04427278      -0.16604636       0.38007024
16
Lattice="8.75637401495013 0.702747100691593 -0.814876775551673 -3.7270419848908336 7.954690465669791 0.8148749442713514 -3.6144294236292303 -3.6898359276573838 7.152130752798775" Properties=species:S:1:pos:R:3:forces:R:3 unique_starting_index=456 config_type=initial n_minim_iter=11 energy=-2600.153758778379 stress="0.0012418571900171499 6.995263442307933e-05 0.0008429392298870195 6.995263442307933e-05 0.00132163518139967 -0.0004896854604551034 0.0008429392298870195 -0.0004896854604551034 0.0013253486405805407" free_energy=-2600.153758778379 pbc="T T T"
Si      -4.28049848       4.48181440       3.87426149      -0.04740644      -0.02754754       0.07713339
Si      -1.32779590       2.76651225       4.09274356      -0.00044730      -0.05482737      -0.07713337
Si      -2.80461278       3.62443344       2.27262211       0.04412614      -0.08072123      -0.02219827
Si      -2.80368160       3.62389321       5.69438295      -0.09197988      -0.00165368       0.02219829
Si      -3.60295698       5.33148431       7.22145144       0.04650406       0.27425339       0.12965867
Si      -0.92531958       3.77597330       0.74555323       0.21520535       0.17625034      -0.12965877
Si       0.61506974       2.88112124       2.64402533       0.24810128       0.15714024      -0.08911576
Si      -5.14334630       6.22633637       5.32297934       0.01360813       0.29336349       0.08911566
Si       6.02435276       0.50103020      -0.45193319       0.11673989      -0.17178940       0.25593352
Si      -6.16338119       1.79165141       7.60406267      -0.20705958       0.01631408      -0.25593349
Si       1.07535181       3.37603549       4.91875022       0.16540791      -0.20006193       0.20311872
Si      -1.21438024      -1.08335388       2.23337925      -0.25572759       0.04458662      -0.20311869
Si      -1.83844227       7.77738413       0.89611515      -0.37066658       0.07312047      -0.20953560
Si       4.05239325      -1.43430931       6.25601347       0.24713059      -0.28577398       0.20953564
Si       0.37501852       0.70197294       1.72378696      -0.22295750      -0.01268763      -0.36983031
Si       1.83893246       5.64110188       5.42834167       0.09942151      -0.19996588       0.36983035
16
Lattice="8.749436157923805 0.6384743043049054 -0.7171015357062195 -3.7794384852053424 7.916825743366467 0.7170997260307229 -3.501832593252709 -3.6869431662278545 7.184576237273373" Properties=species:S:1:pos:R:3:forces:R:3 unique_starting_index=456 config_type=initial n_minim_iter=12 energy=-2600.208985898608 stress="0.002269563110303729 -0.0017710414403198736 0.006084373361873868 -0.0017710414403198736 0.0002497529535416942 -0.0035345706443588114 0.006084373361873868 -0.0035345706443588114 0.004194374344066725" free_energy=-2600.208985898608 pbc="T T T"
Si      -4.25931350       4.45417915       3.82451349      -0.08196494       0.05308817       0.29557291
Si      -1.30209613       2.73625424       4.07716184       0.08671887      -0.04490480      -0.29557291
Si      -2.79576864       3.60396730       2.23626645       0.26279638      -0.14719278      -0.07856399
Si      -2.76564099       3.58646609       5.66540888      -0.25804244       0.15537615       0.07856399
Si      -3.54280097       5.28637415       7.19181711       0.07688881       0.20486235       0.01916900
Si      -0.93410459       3.77091279       0.70985783       0.13987478       0.16827214      -0.01916908
Si       0.64118026       2.85578901       2.65133735       0.12692441       0.17579534      -0.03512992
Si      -5.11808581       6.20149793       5.25033758       0.08983917       0.19733914       0.03512984
Si       6.02247655       0.42789731      -0.36808573      -0.03774960      -0.20127213       0.22197405
Si      -6.11338485       1.75668757       7.55266071      -0.15614383      -0.13249392      -0.22197398
Si       1.11353936       3.27962850       4.95912027       0.09084154      -0.27597412       0.08242622
Si      -1.20444766      -1.09504363       2.22545472      -0.28473497      -0.05779193      -0.08242616
Si      -1.91353342       7.73262316       0.79447811      -0.22579307       0.09936937      -0.25028497
Si       4.16330342      -1.51882007       6.39009602       0.19816898      -0.14692117       0.25028498
Si       0.36385208       0.68837965       1.70741466      -0.21632347       0.09386823      -0.26056143
Si       1.88591792       5.52542344       5.47715947       0.18869939      -0.14142004       0.26056144
16
Lattice="8.743608691468445 0.6627737924757279 -0.7178208977575077 -3.7554430810725186 7.923800345912288 0.7178190814667019 -3.510589899746031 -3.7027699819407953 7.167320413335243" Properties=species:S:1:pos:R:3:forces:R:3 unique_starting_index=456 config_type=initial n_minim_iter=13 energy=-2600.2551280263806 stress="0.0011190584870857743 0.00013491444377321848 0.0036324561837982696 0.00013491444377321848 0.0012729216377357641 -0.0021101888120964086 0.0036324561837982696 -0.0021101888120964086 0.001575588007697138" free_energy=-2600.2551280263806 pbc="T T T"
Si      -4.23919023       4.46951506       3.82214007      -0.14114329       0.01955277       0.23651115
Si      -1.28350403       2.75247965       4.06299879       0.08690128      -0.11292438      -0.23651113
Si      -2.77137275       3.61682114       2.22925636       0.18421765      -0.16945798      -0.11657235
Si      -2.75132151       3.60517357       5.65588250      -0.23845966       0.07608637       0.11657237
Si      -3.53199005       5.30377159       7.18880403       0.02210289       0.13413867       0.02308451
Si      -0.90910873       3.78006982       0.69633443       0.10557624       0.08564681      -0.02308455
Si       0.66406914       2.86617004       2.63521720       0.08641186       0.09677990      -0.04670394
Si      -5.10516793       6.21767138       5.24992126       0.04126728       0.12300558       0.04670389
Si       6.01677630       0.42596349      -0.37122406      -0.02067908      -0.06673879       0.19431516
Si      -6.12099840       1.73495107       7.53854322      -0.04773193      -0.05102317      -0.19431514
Si       1.10877036       3.27715370       4.95497135       0.13261668      -0.15579234       0.02795776
Si      -1.21299246      -1.11623914       2.21234782      -0.20102768       0.03803038      -0.02795773
Si      -1.90254733       7.73837745       0.78240358      -0.07382381       0.03710029      -0.15973268
Si       4.15410280      -1.52225295       6.38491473       0.06879769      -0.04575220       0.15973268
Si       0.34958352       0.68789086       1.69598732      -0.13582134       0.07311629      -0.09245261
Si       1.90197195       5.52823363       5.47133099       0.13079522      -0.08176821       0.09245261
16
Lattice="8.738753441617632 0.6307517105054018 -0.731106297548207 -3.780855293410124 7.9037203470054145 0.7311044922783889 -3.5075736881650377 -3.6696795549950267 7.178339267389647" Properties=species:S:1:pos:R:3:forces:R:3 unique_starting_index=456 config_type=initial n_minim_iter=14 energy=-2600.280273651208 stress="-0.0003269985709736599 -0.00014816411102075363 -0.0008417013268119338 -0.00014816411102075363 -0.0004959738329846084 0.0004889663748251554 -0.0008417013268119338 0.0004889663748251554 -0.0003648726335876177" free_energy=-2600.280273651208 pbc="T T T"
Si      -4.26042031       4.46623224       3.84621342      -0.05780788       0.00953472       0.08493762
Si      -1.29823537       2.74542154       4.06322971       0.03691812      -0.04549413      -0.08493761