8
Lattice="5.465610000000002 -9.309408638658847e-31 -7.524390644791633e-31 2.7328050000000004 5.465008411875408 4.0510019654786326e-14 2.732805 1.121396034240299 5.3487183395893165" Properties=species:S:1:pos:R:3:forces:R:3 unique_starting_index=396 config_type=initial n_minim_iter=1 energy=-1274.2881597699225 stress="-1.0146557823484978 0.10500264511433802 0.09542706407765042 0.022836305968158062 8.747961029509876e-12 3.719192638041593e-12" pbc="T T T"
Si       3.30315507       2.30410913       1.97337647     -24.94507759       0.00367897       2.42323727
Si       6.03596007       0.98909310       0.70098271     -24.94507759      -0.00367897      -2.42323727
Si       2.16245548       0.88902409       0.82420755      24.94507759      -2.37242804       0.49363710
Si       4.89526048       2.40417814       1.85015163      24.94507759       2.37242804      -0.49363710
Si       7.62806548       4.28229532       3.37534188      24.94507759      -0.00367897      -2.42323727
Si       4.89526048       5.59731135       4.64773564      24.94507759       0.00367897       2.42323727
Si       8.76876507       5.69738036       4.52451080     -24.94507759       2.37242804      -0.49363710
Si       6.03596007       4.18222631       3.49856672     -24.94507759      -2.37242804       0.49363710
8
Lattice="5.554932611041294 -3.7105229440004305e-17 -1.4451303946082775e-17 2.7774663055206466 5.4558485519463265 -0.0019906759214263327 2.777466305520646 1.117568154421754 5.340161870654091" Properties=species:S:1:pos:R:3:forces:R:3 unique_starting_index=396 config_type=initial n_minim_iter=2 energy=-1277.2954281583627 stress="-0.8929235864039826 0.09323721632789402 0.08518496662405689 0.019203392176522272 5.483223031219796e-13 6.167890933167829e-12" pbc="T T T"
Si       3.35460213       2.29952869       1.96977298     -21.91224175       0.24816954       2.29272682
Si       6.13206844       0.98717967       0.69931262     -21.91224175      -0.24816954      -2.29272682
Si       2.20033103       0.88699692       0.82267753      21.91224175      -2.29486313       0.22756887
Si       4.97779733       2.39971144       1.84640808      21.91224175       2.29486313      -0.22756887
Si       7.75526364       4.27388803       3.36839822      21.91224175      -0.24816954      -2.29272682
Si       4.97779733       5.58623704       4.63885858      21.91224175       0.24816954       2.29272682
Si       8.90953475       5.68641980       4.51549367     -21.91224175       2.29486313      -0.22756887
Si       6.13206844       4.17370527       3.49176313     -21.91224175      -2.29486313       0.22756887
8
Lattice="6.348318595291372 -4.5436262455503844e-17 -1.4707605986025456e-16 3.1741592976456854 5.380348539505454 -0.017422560745500824 3.174159297645685 1.0869723698762253 5.26943498103042" Properties=species:S:1:pos:R:3:forces:R:3 unique_starting_index=396 config_type=initial n_minim_iter=3 energy=-1292.4504561720412 stress="-0.2924890038772703 0.03544593444600521 0.02114679914304355 0.034101265240973115 2.744223447682195e-12 6.667712464803424e-12" pbc="T T T"
Si       3.80983037       2.26234181       1.94042162      -8.10546139       0.98841721       1.63444633
Si       6.98398967       0.97131865       0.68558460      -8.10546140      -0.98841721      -1.63444633
Si       2.53848886       0.87030640       0.80997095       8.10546140      -1.80248582      -0.63200335
Si       5.71264815       2.36335406       1.81603527       8.10546140       1.80248582       0.63200335
Si       8.88680745       4.20497911       3.31159081       8.10546139      -0.98841721      -1.63444633
Si       5.71264815       5.49600227       4.56642783       8.10546140       0.98841721       1.63444633
Si      10.15814896       5.59701452       4.44204148      -8.10546140       1.80248582       0.63200335
Si       6.98398967       4.10396686       3.43597716      -8.10546140      -1.80248582      -0.63200335
8
Lattice="6.85865938547658 1.365320662775839e-16 1.7390750577103837e-16 3.4293296927382895 5.330540538769804 -0.06546900267589388 3.429329692738289 1.0297279237517325 5.230545767778501" Properties=species:S:1:pos:R:3:forces:R:3 unique_starting_index=396 config_type=initial n_minim_iter=4 energy=-1296.222176107497 stress="-0.10341344258378861 0.02123861427562066 0.0066027989713406616 0.03490419592999885 -4.636547587292994e-13 -1.6160230263650572e-12" pbc="T T T"
Si       4.09876152       2.22532761       1.91173658      -3.57237527       1.13104821       1.10973143
Si       7.52809121       0.95480663       0.67080181      -3.57237527      -1.13104821      -1.10973143
Si       2.75989855       0.85244998       0.79684365       3.57237527      -1.31820361      -0.87926852
Si       6.18922824       2.32768426       1.78569474       3.57237527       1.31820361       0.87926852
Si       9.61855793       4.13494086       3.25334019       3.57237527      -1.13104821      -1.10973143
Si       6.18922824       5.40546184       4.49427497       3.57237527       1.13104821       1.10973143
Si      10.95742090       5.50781850       4.36823313      -3.57237527       1.31820361       0.87926852
Si       7.52809121       4.03258421       3.37938203      -3.57237527      -1.31820361      -0.87926852
8
Lattice="7.195857556964642 6.643617012826219e-16 2.8530957490910486e-16 3.5979287784823204 5.280004897500206 -0.15107354217293265 3.59792877848232 0.9355752712234536 5.198651156275635" Properties=species:S:1:pos:R:3:forces:R:3 unique_starting_index=396 config_type=initial n_minim_iter=5 energy=-1297.2041653595065 stress="0.014352334772323528 0.01581258592284716 0.004429062604620878 0.027147973622801493 4.066949465821378e-12 6.323066473835691e-12" pbc="T T T"
Si       4.28598349       2.17549837       1.87279013      -1.93501936       1.07967990       1.02084962
Si       7.88391227       0.93229172       0.65099869      -1.93501936      -1.07967990      -1.02084962
Si       2.90987478       0.82844829       0.77887135       1.93501936      -1.22067256      -0.84723145
Si       6.50780356       2.27934180       1.74491746       1.93501936       1.22067256       0.84723145
Si      10.10573234       4.04008181       3.17478749       1.93501936      -1.07967990      -1.02084962
Si       6.50780356       5.28328845       4.39657893       1.93501936       1.07967990       1.02084962
Si      11.48184104       5.38713189       4.26870627      -1.93501936       1.22067256       0.84723145
Si       7.88391227       3.93623837       3.30266016      -1.93501936      -1.22067256      -0.84723145
8
Lattice="7.146966048215812 3.95827219571324e-16 -1.481680727182956e-16 3.573483024107905 5.242869614064539 -0.21853337463326986 3.573483024107905 0.861930919319655 5.176148540781131" Properties=species:S:1:pos:R:3:forces:R:3 unique_starting_index=396 config_type=initial n_minim_iter=6 energy=-1297.5170742677326 stress="0.002564562505951629 0.005526998196943754 -0.005038109807407848 0.025196177454600514 1.5390584247726645e-12 -2.530812751856819e-12" pbc="T T T"
Si       4.24889238       2.13759989       1.84325269      -1.50865284       1.35649933       1.23075951
Si       7.82237540       0.91480038       0.63555490      -1.50865284      -1.35649933      -1.23075951
Si       2.89807438       0.80974398       0.76492121       1.50865284      -1.48291793      -1.07508783
Si       6.47155740       2.24265629       1.71388638       1.50865284       1.48291793       1.07508783
Si      10.04504042       3.96720065       3.11436248       1.50865284      -1.35649933      -1.23075951
Si       6.47155740       5.19000016       4.32206027       1.50865284       1.35649933       1.23075951
Si      11.39585843       5.29505656       4.19269396      -1.50865284       1.48291793       1.07508783
Si       7.82237540       3.86214425       3.24372879      -1.50865284      -1.48291793      -1.07508783
8
Lattice="7.132761314896025 5.718654556226764e-16 -7.135147768923401e-16 3.5663806574480126 5.225709158062624 -0.32189706576009075 3.5663806574480117 0.7572454559925004 5.1805630239369975" Properties=species:S:1:pos:R:3:forces:R:3 unique_starting_index=396 config_type=initial n_minim_iter=7 energy=-1297.8959210336593 stress="0.004248237688418086 -0.0022351760234145496 -0.009995463062410179 0.018507105529710164 2.275437410459892e-12 3.091795491671577e-12" pbc="T T T"
Si       4.23022129       2.09732518       1.81322308      -0.95011629       1.57426887       1.43396409
Si       7.79660195       0.89415214       0.61610990      -0.95011629      -1.57426887      -1.43396409
Si       2.90254073       0.78647583       0.74870237       0.95011629      -1.72648388      -1.24652674
Si       6.46892139       2.20500149       1.68063062       0.95011629       1.72648388       1.24652674
Si      10.03530205       3.88562945       3.04544288       0.95011629      -1.57426887      -1.43396409
Si       6.46892139       5.08880248       4.24255606       0.95011629       1.57426887       1.43396409
Si      11.36298260       5.19647880       4.10996360      -0.95011629       1.72648388       1.24652674
Si       7.79660195       3.77795313       3.17803535      -0.95011629      -1.72648388      -1.24652674
8
Lattice="7.088557658447308 7.047028821604354e-16 -1.4454195042448055e-15 3.544278829223654 5.253556451928217 -0.4695718397915981 3.544278829223653 0.61842720173267 5.238119977862187" Properties=species:S:1:pos:R:3:forces:R:3 unique_starting_index=396 config_type=initial n_minim_iter=8 energy=-1298.3182319622401 stress="0.0001304254315699265 -0.0006515640212825665 4.6092698350695494e-05 -0.0016638052887577315 1.742068985553047e-12 -4.352971750180718e-13" pbc="T T T"
Si       4.19192779       2.06482833       1.79221862      -0.37418675       1.68320284       1.58880345
Si       7.73620662       0.87116350       0.59205545      -0.37418675      -1.68320284      -1.58880345
Si       2.89663057       0.75821606       0.73113878       0.37418675      -1.90038119      -1.32137034
Si       6.44090940       2.17777577       1.65313530       0.37418675       1.90038119       1.32137034
Si       9.98518823       3.80715533       2.97632952       0.37418675      -1.68320284      -1.58880345
Si       6.44090940       5.00082016       4.17649269       0.37418675       1.68320284       1.58880345
Si      11.28048545       5.11376760       4.03740937      -0.37418675       1.90038119       1.32137034
Si       7.73620662       3.69420789       3.11541285      -0.37418675      -1.90038119      -1.32137034
8
Lattice="7.087249567534876 6.287550057423324e-16 -2.120545946076328e-15 3.543624783767438 5.257310870299497 -0.4571687985715252 3.5436247837674366 0.631336708653028 5.2392494555674425" Properties=species:S:1:pos:R:3:forces:R:3 unique_starting_index=396 config_type=initial n_minim_iter=9 energy=-1298.564192680769 stress="0.009620114157995486 0.002635538569262451 0.0021304379918666103 0.00120458818617589 8.120347098598026e-13 -2.687977873058078e-12" pbc="T T T"
Si       4.18663714       2.08032588       1.80638623      -0.44364433       1.47129072       1.41096288
Si       7.73026192       0.86399792       0.58465411      -0.44364433      -1.47129072      -1.41096288
Si       2.90061313       0.74950186       0.72564440       0.44364433      -1.68284144      -1.15045962
Si       6.44423792       2.19482194       1.66539594       0.44364433       1.68284144       1.15045962
Si       9.98786270       3.80832171       2.97569443       0.44364433      -1.47129072      -1.41096288
Si       6.44423792       5.02464967       4.19742656       0.44364433       1.47129072       1.41096288
Si      11.27388671       5.13914573       4.05643627      -0.44364433       1.68284144       1.15045962
Si       7.73026192       3.69382565       3.11668472      -0.44364433      -1.68284144      -1.15045962
8
Lattice="7.013629980095186 1.2586722995331061e-15 -1.8458114734864998e-15 3.506814990047594 5.242893526115877 -0.4629693802996886 3.5068149900475922 0.6227011811469858 5.22632915269226" Properties=species:S:1:pos:R:3:forces:R:3 unique_starting_index=396 config_type=initial n_minim_iter=10 energy=-1298.7330060063393 stress="-0.002496145938750381 -0.002347057036243145 -0.001492475568374069 -0.002038046960032784 1.9781187329930117e-12 4.1943606017516445e-12" pbc="T T T"
Si       4.13908597       2.07827938       1.80592543      -0.47815290       1.48860718       1.39525676
Si       7.64590096       0.85451799       0.57575446      -0.47815290      -1.48860718      -1.39525676
Si       2.87454471       0.73884635       0.71819235       0.47815290      -1.67102279      -1.17063042
Si       6.38135970       2.19395101       1.66348754       0.47815290       1.67102279       1.17063042
Si       9.88817469       3.78731534       2.95743435       0.47815290      -1.48860718      -1.39525676
Si       6.38135970       5.01107673       4.18760532       0.47815290       1.48860718       1.39525676
Si      11.15271595       5.12674836       4.04516743      -0.47815290       1.67102279       1.17063042
Si       7.64590096       3.67164371       3.09987224      -0.47815290      -1.67102279      -1.17063042
8
Lattice="7.026687119064665 1.5880180061895848e-15 -1.959115721908112e-15 3.513343559532334 5.2513726117074215 -0.455511766846589 3.513343559532332 0.6317399754323092 5.233097541625543" Properties=species:S:1:pos:R:3:forces:R:3 unique_starting_index=396 config_type=initial n_minim_iter=11 energy=-1298.8420684717037 stress="0.005816941385312407 0.0008981756366853209 0.000998548551178278 -0.00023937420066561665 1.054378402862748e-13 -1.1801859621762157e-12" pbc="T T T"
Si       4.14376500       2.08909185       1.81550075      -0.47072799       1.34760351       1.28352700
Si       7.65710856       0.85246446       0.57329215      -0.47072799      -1.34760351      -1.28352700
Si       2.88292281       0.73601506       0.71668778       0.47072799      -1.53273719      -1.05555364
Si       6.39626637       2.20554124       1.67210512       0.47072799       1.53273719       1.05555364
Si       9.90960993       3.79402075       2.96208504       0.47072799      -1.34760351      -1.28352700
Si       6.39626637       5.03064814       4.20429363       0.47072799       1.34760351       1.28352700
Si      11.17045212       5.14709754       4.06089800      -0.47072799       1.53273719       1.05555364
Si       7.65710856       3.67757135       3.10548066      -0.47072799      -1.53273719      -1.05555364
8
Lattice="6.995449046544021 1.0860672531679794e-15 -1.888672928036305e-15 3.497724523272012 5.247677715593907 -0.4542013647819869 3.4977245232720104 0.6322643167490252 5.229212380490639" Properties=species:S:1:pos:R:3:forces:R:3 unique_starting_index=396 config_type=initial n_minim_iter=12 energy=-1298.9430381684658 stress="0.002818530098847113 -0.0006178138165211367 -0.0001841628672765775 -0.0010341916157189904 3.4541085453920316e-13 2.22808290307303e-12" pbc="T T T"
Si       4.12230275       2.09208527       1.81866214      -0.48467217       1.30627796       1.23058781
Si       7.62002727       0.84788576       0.56884337      -0.48467217      -1.30627796      -1.23058781
Si       2.87314699       0.73072142       0.71311938       0.48467217      -1.47244467      -1.02597035
Si       6.37087152       2.20924961       1.67438614       0.48467217       1.47244467       1.02597035
Si       9.86859604       3.78785677       2.95634888       0.48467217      -1.30627796      -1.23058781
Si       6.37087152       5.03205628       4.20616765       0.48467217       1.30627796       1.23058781
Si      11.11775179       5.14922062       4.06189165      -0.48467217       1.47244467       1.02597035
Si       7.62002727       3.67069243       3.10062488      -0.48467217      -1.47244467      -1.02597035
8
Lattice="6.9562004122006025 1.3062380107850054e-15 -1.73059578821624e-15 3.478100206100303 5.253226371534399 -0.4435269875101601 3.4781002061003017 0.6438501137821937 5.232452630479989" Properties=species:S:1:pos:R:3:forces:R:3 unique_starting_index=396 config_type=initial n_minim_iter=13 energy=-1299.1748469044906 stress="0.005455511856570858 0.000318244555768239 0.0005565722819657095 -0.0005683754438138111 9.491984003248264e-13 -6.523887666550071e-14" pbc="T T T"
Si       4.09104913       2.10889359       1.83412550      -0.49154740       1.08786280       1.02437558
Si       7.56914934       0.83964466       0.56033732      -0.49154740      -1.08786280      -1.02437558
Si       2.86515197       0.72070533       0.70679905       0.49154740      -1.22580259      -0.85451671
Si       6.34325217       2.22783292       1.68766378       0.49154740       1.22580259       0.85451671
Si       9.82135238       3.78818290       2.95480014       0.49154740      -1.08786280      -1.02437558
Si       6.34325217       5.05743183       4.22858833       0.49154740       1.08786280       1.02437558
Si      11.04724954       5.17637116       4.08212660      -0.49154740       1.22580259       0.85451671
Si       7.56914934       3.66924358       3.10126187      -0.49154740      -1.22580259      -0.85451671
8
Lattice="6.693091081356529 1.3141692549971131e-15 -1.7051330303092209e-15 3.3465455406782665 5.239689974053767 -0.4207517830699088 3.3465455406782647 0.6633630739073901 5.214530901177228" Properties=species:S:1:pos:R:3:forces:R:3 unique_starting_index=396 config_type=initial n_minim_iter=14 energy=-1299.5958850802333 stress="-0.021999218081268906 -0.019300028055651734 -0.01612050792895946 -0.007582672436289083 4.678117037345306e-13 -2.6253965090298357e-13" pbc="T T T"
Si       3.90828394       2.14265675       1.86643732      -0.46775194       0.40639435       0.21780682
Si       7.25482948       0.80886978       0.53045224      -0.46775194      -0.40639435      -0.21780682
Si       2.78480781       0.68514131       0.68281132       0.46775194      -0.29656246      -0.35305366
Si       6.13135335       2.26638523       1.71407825       0.46775194       0.29656246       0.35305366
Si       9.47789889       3.76039630       2.92734180       0.46775194      -0.40639435      -0.21780682
Si       6.13135335       5.09418328       4.26332688       0.46775194       0.40639435       0.21780682
Si      10.60137502       5.21791175       4.11096781      -0.46775194       0.29656246       0.35305366
Si       7.25482948       3.63666783       3.07970088      -0.46775194      -0.29656246      -0.35305366
8
Lattice="6.966839799070659 1.6226735833515485e-15 -1.7765226909759016e-15 3.483419899535331 5.421748352749204 -0.3585632105243429 3.4834198995353294 0.7615859240662639 5.379954428872457" Properties=species:S:1:pos:R:3:forces:R:3 unique_starting_index=396 config_type=initial n_minim_iter=15 energy=-1299.3313082201778 stress="0.04833815545772271 0.0410651479492971 0.037065775112458524 0.009537896565670029 7.697032642964532e-13 -4.990981304390719e-13" pbc="T T T"
Si       4.06093199       2.24972487       1.95445047      -0.36932093      -0.01459157       0.26520867
Si       7.54435189       0.84194228       0.55624515      -0.36932093       0.01459157      -0.26520867
Si       2.90590850       0.71717170       0.70988747       0.36932093      -0.25657116       0.06870075
Si       6.38932840       2.37449545       1.80080814       0.36932093       0.25657116      -0.06870075
Si       9.87274830       3.93360942       3.06694076       0.36932093       0.01459157      -0.26520867
Si       6.38932840       5.34139201       4.46514608       0.36932093      -0.01459157       0.26520867
Si      11.02777179       5.46616259       4.31150375      -0.36932093       0.25657116      -0.06870075
Si       7.54435189       3.80883884       3.22058308      -0.36932093      -0.25657116       0.06870075
8
Lattice="6.76611873164058 1.7889400944508347e-15 -1.8731951562802024e-15 3.3830593658202917 5.2908628817130126 -0.3811651684227731 3.3830593658202894 0.7126077826420025 5.256491897342308" Properties=species:S:1:pos:R:3:forces:R:3 unique_starting_index=396 config_type=initial n_minim_iter=16 energy=-1299.6945422978154 stress="0.004528762174614678 -0.002192432433883706 -0.002935225201941414 0.0017714479211245805 9.14430869423394e-13 -1.0284667021433813e-12" pbc="T T T"
Si       3.94221449       2.18341886       1.89928749      -0.38160995       0.22053068       0.13419709
Si       7.32527386       0.81831648       0.53837588      -0.38160995      -0.22053068      -0.13419709
Si       2.82390491       0.69483476       0.69043111       0.38160995      -0.17659345      -0.18830134
Si       6.20696427       2.30690058       1.74723226       0.38160995       0.17659345       0.18830134
Si       9.59002364       3.82005182       2.97603924       0.38160995      -0.22053068      -0.13419709
Si       6.20696427       5.18515419       4.33695086       0.38160995       0.22053068       0.13419709
Si      10.70833323       5.30863592       4.18489563      -0.38160995       0.17659345       0.18830134
Si       7.32527386       3.69657009       3.12809447      -0.38160995      -0.17659345      -0.18830134
