22
Lattice="8.257889693933658 1.953660163816556e-07 -3.6310400607612496e-07 -3.4767089428672846 7.490342924310102 3.6310400607612496e-07 -2.390590069466807 -3.7451717552040993 6.9607118774565" Properties=species:S:1:pos:R:3:forces:R:3 unique_starting_index=6 config_type=initial n_minim_iter=1 energy=-3488.8405583780004 stress="-0.46349612789900685 -0.5395828761028759 -0.4111787763899435 -0.020839385512034844 0.03264761486856144 -0.08196196605272266" pbc="T T T"
Si      -2.69923942       4.27502728       5.84200529      14.37159019      18.14602164      -1.72050654
Si       2.17613645       1.32999160       4.57538792     -10.93991324     -20.33650444      -2.35068801
Si       5.79573578       2.53079117       0.06696256      -9.13145223       4.08390719      -8.73009658
Si      -0.49145146      -0.64546730       3.43706797       8.15006328      -3.45747421       9.89437439
Si       6.15748266      -1.21135205       2.38532359     -13.84039974     -18.48508722       2.35068801
Si      -0.85319834       3.09667591       1.11870694      10.40872279      20.67557003       1.72050654
Si       2.01202694       3.02764641       3.52364390      -6.56742443       5.93688434      -9.89437440
Si      -2.53512990       2.57737247       6.89374931       7.54881338      -6.56331732       8.73009658
Si      -0.68255426       4.97080015       2.00451883       0.95231552      -6.85810411     -21.23638500
Si       1.03474333       5.34662439       3.24984719      20.73514444      -6.98527588      -4.49268858
Si       1.65336155       3.27270876       1.33913031     -13.39794836      -5.94379126      20.67982387
Si       1.68951128       5.13572451       0.36721660     -10.85710428      21.42609814       8.09533169
Si       2.02343694      -0.55558688       3.71086468     -15.06585600      15.86695551       4.49268858
Si       2.40555536      -2.27149491       4.95619304      -6.62160396      -2.02357552      21.23638500
Si       1.55647137      -0.05047007       6.59349527      24.00562633      -0.82722376      -8.09533169
Si      -0.11816284      -0.86762045       5.62158156       0.24942631     -14.65508312     -20.67982387
Si      -1.33939009       1.57498351       1.02557260      -2.69315744     -20.81549508       3.32158567
Si       2.92850823       2.68177792       4.98430678      13.01984465      14.22384002       8.92955117
Si      -1.19102636       0.04021332       1.97640509       7.42020394      17.79816151      -8.92955117
Si      -3.87480011       3.19336779       5.93513964     -17.74689115     -11.20650645      -3.32158567
Si       2.39059037       3.74517156      -0.00000000      -0.00000000       0.00000000      -0.00000000
Si       2.93364981      -1.87258578       3.48035576      -0.00000000       0.00000000      -0.00000000
22
Lattice="8.424399129340546 0.029772181629578384 -0.011815367061544771 -3.5198074222180002 7.653910293682035 0.011815367061544704 -2.4622545990657536 -3.835484444442192 7.085046791797005" Properties=species:S:1:pos:R:3:forces:R:3 unique_starting_index=6 config_type=initial n_minim_iter=2 energy=-3501.0635393363286 stress="-0.3448064947133026 -0.38699712960924415 -0.3157961612046867 -0.022908111628521216 0.03588854413076175 -0.04544848435779668" pbc="T T T"
Si      -2.74513889       4.37300150       5.95394811      11.82525934      14.85656863      -1.51420858
Si       2.21714106       1.37119890       4.65497683      -8.88480964     -16.73349486      -1.97421500
Si       5.92069870       2.61166168       0.06129077      -7.79198881       3.73196902      -7.48327507
Si      -0.50777683      -0.65962546       3.49958149       6.87094643      -3.14405602       8.57596030
Si       6.27244115      -1.21735044       2.41825459     -11.43751228     -15.10407249       1.97421500
Si      -0.85976911       3.16954612       1.14291405       8.49706258      16.98099872       1.51420858
Si       2.05780441       3.10990427       3.58546530      -5.74460805       4.90861197      -8.57596029
Si      -2.58605207       2.63445559       7.02375602       6.66565043      -5.49652497       7.48327507
Si      -0.68116621       5.08633259       2.04367822       0.97462782      -6.09168230     -18.69824861
Si       1.07234734       5.47831695       3.31083875      18.24165549      -6.17431438      -4.09912684
Si       1.69521055       3.35622436       1.36577997     -11.89333205      -4.89176166      17.67717423
Si       1.74046732       5.26508440       0.37687649      -9.23881838      18.38068056       7.39310391
Si       2.05539261      -0.55634597       3.77420803     -13.28047063      13.94665741       4.09912684
Si       2.43810047      -2.31190748       5.04136856      -5.93581268      -1.68066072      18.69824862
Si       1.58068977      -0.04010027       6.70817030      20.56194615      -0.64152436      -7.39310391
Si      -0.13169342      -0.88481242       5.71926681       0.57020428     -12.84739454     -17.67717423
Si      -1.36246893       1.60598878       1.04758306      -1.80398310     -17.08477632       3.05018583
Si       2.99142706       2.76139935       5.07250594      10.84168891      11.31589439       7.67175901
Si      -1.21695992       0.04049329       2.01254085       5.69958326      14.59816546      -7.67175901
Si      -3.95172312       3.25874248       6.04927909     -14.73728907      -8.82928354      -3.05018583
Si       2.45229585       3.84184124      -0.00000000       0.00000000       0.00000000       0.00000000
Si       2.98107226      -1.90285613       3.53661571       0.00000000      -0.00000000      -0.00000000
22
Lattice="9.045544292687378 0.11707109181907599 -0.07892464862606333 -3.702135152793873 8.254076114378691 0.07892464862606353 -2.7382307983710263 -4.143109070072665 7.561649662606939" Properties=species:S:1:pos:R:3:forces:R:3 unique_starting_index=6 config_type=initial n_minim_iter=3 energy=-3530.255145669375 stress="-0.17842660024518608 -0.1722775208439687 -0.18265472497113447 -0.02247706457651337 0.03521325270014677 0.0066238950788342806" pbc="T T T"
Si      -2.94424496       4.74613614       6.39728499       6.94198135       7.47153814      -0.98077506
Si       2.35300338       1.52221727       4.95646036      -4.57147459      -8.98466258      -1.83149262
Si       6.37894666       2.89031554       0.02818023      -4.27908900       2.63086516      -3.83773399
Si      -0.57606207      -0.70341375       3.73984769       3.28048366      -1.99344274       5.02243659
Si       6.69739147      -1.25086060       2.52626465      -6.22489735      -7.92926192       1.83149262
Si      -0.89579321       3.43858348       1.24328932       3.85439059       9.44238637       0.98077506
Si       2.20967658       3.40937046       3.82180197      -3.18929630       2.13629964      -5.02243659
Si      -2.80220449       2.85980403       7.53346943       4.18790164      -2.77372206       3.83773399
Si      -0.69569590       5.50896063       2.20277884      -0.06235218      -3.92129988     -11.37376811
Si       1.18958948       5.95769371       3.55047869      11.38360099      -3.30519642      -2.05727656
Si       1.83705125       3.65634100       1.47000431      -7.40545162      -3.28165898       9.83134193
Si       1.91425980       5.73106257       0.41879267      -4.65486482      10.97991150       4.47650092
Si       2.16487560      -0.55580018       4.01117097      -7.79067366       8.93398560       2.05727656
Si       2.55158750      -2.45477786       5.35887081      -3.53057515      -1.70748929      11.37376811
Si       1.65421089       0.00609865       7.14285699      11.91913626       0.40051698      -4.47650092
Si      -0.19516525      -0.93742593       6.09164535       0.14118018      -8.09876950      -9.83134193
Si      -1.45601004       1.72216377       1.13834547       0.67979115     -10.47918018       0.90371052
Si       3.20516435       3.05228533       5.40775417       5.31754465       6.65100489       6.21127031
Si      -1.31907411       0.04920754       2.15389549       3.79403843       7.62347817      -6.21127031
Si      -4.26526782       3.51534855       6.50222884      -9.79137423      -3.79530288      -0.90371052
Si       2.67170457       4.18557361      -0.00000000      -0.00000000      -0.00000000       0.00000000
Si       3.15365675      -2.01301898       3.74136250       0.00000000      -0.00000000      -0.00000000
22
Lattice="10.101029510788875 0.08630506413154725 -0.3063110626676485 -4.174418426571466 9.198504038256608 0.3063110626676486 -3.2214994649970627 -4.477596104580551 8.467889142537459" Properties=species:S:1:pos:R:3:forces:R:3 unique_starting_index=6 config_type=initial n_minim_iter=4 energy=-3552.1389339669504 stress="-0.01530492127095917 -0.029503700004762275 -0.005541816346005189 0.009939391273086295 -0.015571352543510358 -0.015295170949890188" pbc="T T T"
Si      -3.45477750       5.40281012       7.30566049       2.65298673       5.98800053      -1.06639749
Si       2.49277981       1.74516515       5.51273007      -2.58485001      -6.03149306       0.98556300
Si       7.10206725       3.18845752      -0.08378004      -4.27395197       0.95969369      -4.47334222
Si      -0.72630832      -0.72426512       4.19697042       4.57268162      -1.15037661       4.11894215
Si       7.41298533      -1.39546427       2.64884801      -4.38261840      -4.88395476      -0.98556300
Si      -1.04076440       3.86191502       1.46853971       4.31448168       4.92744729       1.06639749
Si       2.35395273       3.84348524       4.27091871      -2.96862758       3.66333644      -4.11894216
Si      -3.31948843       3.30674837       8.55166918       2.66989793      -3.47265353       4.47334222
Si      -0.85584665       6.15803255       2.55198631       1.64113705      -1.26715277      -3.52113953
Si       1.23042973       6.67070626       4.03470190       3.06761844      -1.73850541      -2.06512629
Si       1.98673551       4.07580291       1.67221846      -2.76135745       0.26795900       3.46481142
Si       2.09344267       6.38760767       0.51831044      -2.24268322       2.92618345       2.47176809
Si       2.31115261      -0.55305278       4.43318724      -2.86843485       2.05055248       2.06512629
Si       2.72448754      -2.66126001       5.91590283      -1.84032064       0.95510570       3.52113953
Si       1.69102439       0.11055639       7.94957870       3.59841020      -0.80226036      -2.47176809
Si      -0.36097934      -0.95954097       6.79567067       1.40563047      -2.39188209      -3.46481142
Si      -1.66085506       1.92433769       1.33739403       0.14440803      -3.73684011      -0.01845958
Si       3.44048865       3.47361966       6.03254784       1.63739121       2.59949511       2.13230945
Si      -1.51924570       0.10556086       2.43534130       1.66851062       2.57963120      -2.13230945
Si      -4.95119416       4.02460275       7.43680617      -3.45030987      -1.44228621       0.01845958
Si       2.96330554       4.64240456      -0.00000000       0.00000000      -0.00000000      -0.00000000
Si       3.43976502      -2.19564552       4.08078904       0.00000000      -0.00000000      -0.00000000
22
Lattice="10.244062525130465 0.23690401569750097 -0.16235808331402926 -4.098036491618565 9.391647216798473 0.16235808331402946 -3.2098665858537845 -4.726920252170407 8.507425116290703" Properties=species:S:1:pos:R:3:forces:R:3 unique_starting_index=6 config_type=initial n_minim_iter=5 energy=-3554.896740037448 stress="-0.014819677847003655 -0.029772393651810194 -0.004538162450332014 0.01571227377281229 -0.024615325773043175 -0.016107325047834607" pbc="T T T"
Si      -3.31602395       5.44698827       7.24250945       2.17491989       5.39352321      -0.90817104
Si       2.62883992       1.76746869       5.56349517      -2.31021414      -5.30716318       1.06867834
Si       7.24235345       3.38148016      -0.01821536      -4.30125323       1.11458735      -4.47306552
Si      -0.67867861      -0.79533812       4.22211158       4.51010351      -1.24789913       4.22529448
Si       7.53059815      -1.36138559       2.78157185      -3.84123915      -4.32989055      -1.06867834
Si      -0.97109522       3.95019061       1.42727375       3.97653339       4.24353052       0.90817104
Si       2.50048068       3.95118298       4.28531353      -3.03073924       3.56551617      -4.22529449
Si      -3.19183663       3.26593696       8.52564047       2.82188896      -3.43220439       4.47306552
Si      -0.73949660       6.29111177       2.48977876       1.69003373      -1.01702949      -3.53174249
Si       1.40824314       6.83365625       4.00823103       2.94896315      -1.94410090      -1.97176471
Si       2.09319562       4.20289695       1.67844427      -2.82132454       0.48660474       3.20716347
Si       2.21914996       6.59611572       0.49695567      -2.10730914       2.65940447       2.63995642
Si       2.39572735      -0.57248610       4.49919408      -3.00496498       1.85636673       1.97176471
Si       2.80784501      -2.74901994       6.01764635      -1.63403191       1.10476365       3.53174249
Si       1.83886024       0.06304077       8.01046944       3.29943281      -0.79178730      -2.63995642
Si      -0.27888693      -1.05879145       6.82898084       1.62920087      -2.35422192      -3.20716347
Si      -1.63777695       1.93478471       1.30236549       0.28586464      -1.19621849      -1.03149654
Si       3.63059142       3.56899531       6.08591578      -0.40970414       1.27526681       0.88457869
Si      -1.50113849       0.06882473       2.42150933       1.32922673       0.16528524      -0.88457869
Si      -4.86341961       3.99375322       7.36741771      -1.20538723      -0.24433356       1.03149654
Si       3.07301302       4.81427562      -0.00000000       0.00000000      -0.00000000       0.00000000
Si       3.51709797      -2.24500811       4.17253351       0.00000000      -0.00000000       0.00000000
22
Lattice="11.907208175047318 1.834080807860723 1.9789380719667111 -3.3495246644209993 11.572646346281907 -1.9789380719667082 -2.6107612852405344 -7.768120438982046 9.049966032163573" Properties=species:S:1:pos:R:3:forces:R:3 unique_starting_index=6 config_type=initial n_minim_iter=6 energy=-3535.5793515728 stress="0.040397432606754075 0.05076590724236316 0.03326804970307807 -0.011710655463083525 0.01834626886913267 0.011169100879923056" pbc="T T T"
Si      -1.45580790       5.72242248       6.27291480      -2.80116430      -0.67694667      -0.10466761
Si       4.44583907       1.80360520       6.28498011       1.20615319       1.69506243       1.99692047
Si       8.82539332       5.47433763       0.98056422       1.07143553      -2.21093516       0.60227579
Si       0.08275323      -1.72591784       4.55633211       0.18487750       1.40901466      -2.09271176
Si       9.06063991      -1.14208054       4.74392398       1.02970072       1.80769428      -1.99692047
Si      -0.15682664       4.89326632       0.79811315       0.56531039      -2.82581004       0.10466761
Si       4.34658294       4.98702812       4.49363392       1.20021434       0.76091231       2.09271176
Si      -1.36088504       2.54176555       8.06940181      -2.45652737       0.04100818      -0.60227579
Si       0.61277651       7.71272610       1.59683811       0.59986776       0.71368841      -1.56299491
Si       3.53636354       8.50803012       3.63326902       0.82014099      -1.62009796      -0.12164265
Si       3.36778192       5.53254200       1.71023252      -1.66833878      -0.06556960       0.25581397
Si       3.63200124       8.86861266       0.13799371       0.29707802       0.94086268       1.37099106
Si       3.61760419      -0.97842920       5.41669700      -1.81480758       0.06182304       0.12164265
Si       4.12710021      -3.96511356       7.45312792       0.39479883       0.84458651       1.56299491
Si       3.90440657      -0.73986949       8.91197231       0.72833744       0.66558434      -1.37099106
Si       0.98965471      -2.38407171       7.33973350       0.64292332      -1.54087743      -0.25581397
Si      -1.34331767       2.07248617       0.76553433      -0.84667445       0.83500633       1.08484820
Si       6.04115557       4.36342688       6.80257187       0.78084415      -0.79298602      -1.16294643
Si      -1.19632939      -0.45139732       2.24739416      -1.04802867       0.37440663       1.16294643
Si      -3.51487224       3.45861692       6.30549363       1.11385897      -0.41642695      -1.08484820
Si       4.27884175       6.70336358      -0.00000000      -0.00000000       0.00000000       0.00000000
Si       4.64822344      -2.96701981       5.51445205      -0.00000000      -0.00000000       0.00000000
22
Lattice="9.9260030600585 1.1042776042727274 1.0275135845671763 -3.1773744247588938 9.468329184205468 -1.0275135845671743 -2.5082054169507026 -5.83915166009115 7.772641984479467" Properties=species:S:1:pos:R:3:forces:R:3 unique_starting_index=6 config_type=initial n_minim_iter=7 energy=-3556.0235886417563 stress="-0.05037703721818347 -0.03724145077494683 -0.059409091037676914 -0.013721030034979504 0.02149578278861084 0.014149881762855369" pbc="T T T"
Si      -1.89517249       4.96902712       5.82650946       0.15658177      -0.88371134       0.28400627
Si       3.30979353       1.56817329       5.29854320       0.11606371       0.70967828      -0.60746119
Si       7.22976921       4.13197011       0.51490273       0.35446781       0.63737056       0.52644465
Si      -0.16051288      -1.20419493       3.90173280      -0.83542880      -0.33036708       0.04414686
Si       7.44673557      -1.07248914       3.50161237       0.59485099       0.40406230       0.60746119
Si      -0.38051017       4.00219900       0.91861894      -0.86749647      -0.23002924      -0.28400627
Si       3.21573330       4.08087534       3.87090918       0.05206902      -0.89686817      -0.04414686
Si      -1.80414320       2.45825976       7.25773925       0.42889197       0.58986468      -0.52644465
Si       0.11330848       6.32758438       1.67455894      -0.90967469      -2.92570395      -7.34090707
Si       2.43458670       6.92640372       3.30901130       7.77799945      -1.45843461      -0.80737925
Si       2.52362488       4.43794266       1.50773388      -3.96455396      -2.62407130       5.69029150
Si       2.73444202       7.08610854       0.26060471      -2.45864967       6.72408342       1.92992217
Si       2.74940764      -0.71472137       4.46363068      -4.59754469       6.44103174       0.80737925
Si       3.18354362      -3.07235645       6.09808304      -2.27078008      -2.05689317       7.34090707
Si       2.76802428      -0.37549834       7.51203727       7.13423187       0.60082580      -1.92992217
Si       0.45475526      -1.68164259       6.26490810      -0.71102824      -4.70083792      -5.69029150
Si      -1.27725817       1.77592902       0.84923138       0.66192172       2.22067272      -2.03899335
Si       4.52057905       3.59398916       5.74049134      -2.91745596      -0.78093668      -0.63687532
Si      -1.15150620      -0.22561799       2.03215064       0.51994667      -2.97507426       0.63687532
Si      -3.53697130       3.21833249       5.89589702       1.73558758       1.53533822       2.03899335
Si       3.37431432       5.28630340      -0.00000000      -0.00000000      -0.00000000      -0.00000000
Si       3.70889882      -2.36743702       4.40007778      -0.00000000      -0.00000000       0.00000000
22
Lattice="10.630218585024593 0.9671244096796638 0.8060638822242171 -3.598266095192143 10.049346142779196 -0.8060638822242104 -2.8365309070768303 -5.941933828989445 8.44003143101585" Properties=species:S:1:pos:R:3:forces:R:3 unique_starting_index=6 config_type=initial n_minim_iter=8 energy=-3557.357092017371 stress="0.043894637684140175 0.05651973160200212 0.03521359874698354 -0.015090944048689126 0.023641931731440063 0.013599970346948573" pbc="T T T"
Si      -2.35109355       5.41468651       6.53235138       0.16491005      -0.56508280       0.62713036
Si       3.34891029       1.70092184       5.70118147      -0.32007869       0.66412890      -0.44304493
Si       7.67812267       4.21650397       0.40629405       0.61309686       0.48006901       0.24645031
Si      -0.28209942      -1.18495177       4.23668065      -0.60294750      -0.48654748      -0.25849108
Si       7.92656675      -1.22105418       3.54491384       0.73715851      -0.01071898       0.44304493
Si      -0.53354033       4.25451930       1.10161617      -0.58198987      -0.08832713      -0.62713036
Si       3.23937619       4.31977319       4.20335078      -0.18747336      -0.75174987       0.25849108
Si      -2.24455628       2.79774807       8.03373738       0.17732400       0.75822834      -0.24645031
Si      -0.08489168       6.70852866       1.94228126       0.14619749      -0.74979667      -3.46156869
Si       2.37685200       7.33353885       3.68104242       3.21554320      -1.39604493      -0.52665648
Si       2.55624575       4.65011026       1.66995527      -2.49944536      -0.77133706       2.22404051
Si       2.77535971       7.45171333       0.34726362      -0.80129005       2.87823822       1.69181061
Si       2.81468253      -0.69846129       4.75898901      -2.62008386       2.32890963       0.52665648
Si       3.28420031      -3.19453275       6.49775017      -0.74165683      -0.18306803       3.46156869
Si       2.75409465      -0.28724030       8.09276780       2.94807080       0.48497376      -1.69181061
Si       0.30514307      -1.66550982       6.77007616       0.35266462      -2.59187493      -2.22404051
Si      -1.44186214       1.93207221       1.00324826       0.20679851       0.28085554      -0.14036195
Si       4.58223719       3.81591407       6.18512140      -0.30555527      -0.21781785       0.02320118
Si      -1.30449315      -0.17903888       2.25491002      -0.06892846      -0.36885974      -0.02320118
Si      -4.07525731       3.61300166       6.63071928       0.16768522       0.30582205       0.14036195
Si       3.51597624       5.50823528      -0.00000000      -0.00000000      -0.00000000      -0.00000000
Si       3.89684384      -2.48740470       4.62304765      -0.00000000       0.00000000       0.00000000
22
Lattice="10.224741739293695 0.8156864853108735 0.5912425817860506 -3.5649157980911577 9.617799302859956 -0.5912425817860468 -2.8315440874648377 -5.534858055555528 8.179728617361667" Properties=species:S:1:pos:R:3:forces:R:3 unique_starting_index=6 config_type=initial n_minim_iter=9 energy=-3562.293374836877 stress="-0.002764885580814408 0.006286533339590259 -0.008988658856177497 -0.011234842707081506 0.017600846144038028 0.00975034559520284" pbc="T T T"
Si      -2.45158149       5.27085370       6.45715345       0.59890795       0.48500685       0.26370546
Si       3.10114143       1.65679245       5.49367468      -0.61562402      -0.47433677      -0.24387423
Si       7.35099136       3.94443490       0.29954389      -0.57123607       0.70835730      -0.65072551
Si      -0.34116535      -1.07662704       4.10573701       0.39261669      -0.59434229       0.86263189
Si       7.59036385      -1.20873500       3.27729651      -0.17106058      -0.75810724       0.24387423
Si      -0.58336009       4.07834435       1.13133258       0.18777665       0.74743716      -0.26370546
Si       2.99536046       4.13589480       4.07399160      -0.70439807       0.10589611      -0.86263189
Si      -2.34862276       2.79355282       7.88018473       0.88301745      -0.21991112       0.65072550
Si      -0.19342761       6.42444919       1.96582883       0.52972957      -1.22303521      -4.24358403
Si       2.14513461       7.01428847       3.61968182       3.97831368      -1.65450582      -1.10456540
Si       2.37846771       4.42677658       1.63248074      -2.96121502      -0.65614539       3.06172840
Si       2.58757405       7.08787309       0.37695226      -1.42595501       3.45653151       2.14302221
Si       2.62764925      -0.63597518       4.56004679      -3.17566064       2.91196648       1.10456540
Si       3.07720746      -3.00550700       6.21389978      -1.33238262      -0.03442545       4.24358403
Si       2.50812001      -0.20367885       7.80277635       3.73560777       0.16184071      -2.14302222
Si       0.18240194      -1.51371533       6.54724787       0.65156227      -2.96222683      -3.06172840
Si      -1.43050841       1.87205031       1.02552478       0.51956249       1.27079555      -1.19094679
Si       4.25780941       3.66551617       5.96668328      -1.73061721      -0.49776400      -0.24579635
Si      -1.29933569      -0.12955628       2.21304533       0.27712039      -1.77932830       0.24579635
Si      -4.09614335       3.57355880       6.56296125       0.93393433       1.00629676       1.19094679
Si       3.32991297       5.21674290      -0.00000000       0.00000000      -0.00000000      -0.00000000
Si       3.69659883      -2.35958578       4.38548560      -0.00000000       0.00000000       0.00000000
22
Lattice="10.233458481309034 0.7402652444838089 0.46396880030852966 -3.636996747327795 9.59395225028734 -0.46396880030852694 -2.9071431578378206 -5.416744978610831 8.22765608573045" Properties=species:S:1:pos:R:3:forces:R:3 unique_starting_index=6 config_type=initial n_minim_iter=10 energy=-3563.126920966827 stress="-0.009442621182954315 -0.004104755165439499 -0.013112948240889407 -0.006597256963977934 0.01033546332693282 0.005750041943365734" pbc="T T T"
Si      -2.58303148       5.32104576       6.58163642       0.77940121       1.07974867       0.14438464
Si       3.02021967       1.67230272       5.50420784      -0.83702895      -1.04296416      -0.07601755
Si       7.33302257       3.87434469       0.23520475      -1.03455340       0.77126267      -1.13709272
Si      -0.38890652      -1.03445055       4.13109902       0.90818097      -0.69059755       1.28701556
Si       7.57161957      -1.23291340       3.18741704      -0.59362054      -1.19833483       0.07601755
Si      -0.63017062       4.07450997       1.18205086       0.65124828       1.16155031      -0.14438464
Si       2.91475331       4.12919281       4.09655706      -1.00876783       0.53301511      -1.28701556
Si      -2.48023221       2.86585810       7.99245133       1.13514026      -0.61368023       1.13709272
Si      -0.26876479       6.41101046       2.03248154       0.64639466      -0.86663425      -3.68656394
Si       2.05349205       6.99459802       3.67595415       3.31338140      -1.66094089      -1.01114477
Si       2.32450759       4.40011812       1.65360387      -2.74975651      -0.42527511       2.48972114
Si       2.53411613       7.04338336       0.40809271      -1.10972187       2.88882898       2.08899871
Si       2.57277294      -0.60927676       4.55170193      -2.90155003       2.30612844       1.01114477
Si       3.02113696      -2.96138667       6.19517454      -1.05822603       0.22144670       3.68656394
Si       2.41467308      -0.15278585       7.81956337       3.08753212       0.20966867      -2.08899871
Si       0.10534035      -1.45577058       6.57405221       0.77194627      -2.67322254      -2.48972114
Si      -1.46077058       1.88509975       1.06670049       0.54353682       1.52671529      -1.38704691
Si       4.15639620       3.66665955       5.98208108      -2.01891999      -0.58495955      -0.36328413
Si      -1.33120100      -0.10294897       2.24557500       0.31940969      -2.07754496       0.36328413
Si      -4.21924596       3.64586948       6.69698679       1.15597348       1.13578922       1.38704691
Si       3.29823087       5.16710875      -0.00000000      -0.00000000      -0.00000000       0.00000000
Si       3.66315766      -2.33823986       4.34581244       0.00000000      -0.00000000      -0.00000000
22
Lattice="10.320690791447007 0.6876941018068524 0.3694403445724049 -3.7214078107236963 9.650943243880548 -0.3694403445724033 -2.9882333730882245 -5.368094412785758 8.32947125824304" Properties=species:S:1:pos:R:3:forces:R:3 unique_starting_index=6 config_type=initial n_minim_iter=11 energy=-3563.741247546232 stress="0.004003226013782221 0.008596481200381955 0.0008448946802445037 -0.006008602321801346 0.009413259065608194 0.0049479342247890495" pbc="T T T"
Si      -2.70389896       5.40334109       6.72949762       0.79274956       1.31226624       0.18448907
Si       2.98048437       1.69563253       5.55583914      -0.98015074      -1.19264570       0.03783566
Si       7.37549073       3.85114691       0.18605723      -1.09661969       0.74084584      -1.35465606
Si      -0.42752161      -1.01060190       4.18463564       1.12333122      -0.75789615       1.32296664
Si       7.61565225      -1.26305376       3.14307246      -0.66913296      -1.39117229      -0.03783566
Si      -0.67013845       4.10516603       1.23053329       0.85653414       1.27155174      -0.18448907
Si       2.87437393       4.15727798       4.14483561      -1.16039306       0.69983395      -1.32296664
Si      -2.60024384       2.94326289       8.14341403       1.13368153      -0.68278364       1.35465606
Si      -0.32853508       6.45080247       2.09792783       0.65425452      -0.45760898      -3.15592782
Si       2.00040381       7.03306572       3.74774539       2.67832030      -1.66961567      -0.79769620
Si       2.29925866       4.41381112       1.68404222      -2.54599254      -0.31245307       1.90760929
Si       2.51237961       7.06590246       0.43674289      -0.72920592       2.40305368       1.97794589
Si       2.54892600      -0.59258450       4.58172587      -2.64204721       1.72644220       0.79769620
Si       3.00130449      -2.95019781       6.23154343      -0.69052761       0.40078246       3.15592782
Si       2.36316031      -0.11437054       7.89272836       2.48670466       0.35029728      -1.97794589
Si       0.04730063      -1.42425715       6.64542904       0.78849381      -2.44089788      -1.90760929
Si      -1.49509638       1.91166285       1.10568845       0.52982514       1.35956062      -1.26883938