8
Lattice="5.387102658321881 -0.6006868049282011 -0.8967831592509942 -0.5942977854096452 6.098417760439513 0.5834988931918532 -1.21271406707936 -2.8983689341475927 4.499589630876464" Properties=species:S:1:pos:R:3:forces:R:3 unique_starting_index=240 config_type=initial n_minim_iter=15 energy=-1302.766691940153 stress="-0.00015043565423779724 0.00019195589137716495 1.599170410518991e-05 0.00019195589137716495 0.00011519962183701231 7.809656762023135e-05 1.599170410518991e-05 7.809656762023135e-05 -7.089717773161017e-05" free_energy=-1302.766691940153 pbc="T T T"
Si       3.27671579       0.62993860       3.89634370      -0.00525382       0.00573881       0.00094720
Si       2.09162483       5.21137068       1.16915052      -0.00088896      -0.00233632      -0.00393673
Si       4.38829175       2.16813834       1.46512618      -0.00605892      -0.00644177      -0.00087230
Si       2.12757369       2.85442249       1.59577024      -0.00402704      -0.00306704       0.00475848
Si       0.30337502       1.96942342       0.28996167       0.00525382      -0.00573881      -0.00094720
Si       1.48846597      -2.61200866       3.01715484       0.00088896       0.00233633       0.00393674
Si      -0.80820094       0.43122368       2.72117918       0.00605893       0.00644177       0.00087230
Si       1.45251712      -0.25506047       2.59053512       0.00402704       0.00306704      -0.00475848
