8
Lattice="5.064290000000001 3.929791547444903e-16 1.8840842562892384e-16 -1.3493943019523453 5.591530579399395 7.070986623018951e-16 3.549228490650888e-16 4.507647429152929e-16 5.79633" Properties=species:S:1:pos:R:3:forces:R:3 unique_starting_index=472 config_type=initial n_minim_iter=1 energy=-1269.087472304154 stress="-0.25798429738487355 -0.7475777802082495 -0.24889910787475586 0.04022783358777578 0.18019235293521002 0.12728975041644042" pbc="T T T"
Si       0.35433335       2.26251500       2.29049167      -0.26804804       1.31456137      -1.69794661
Si      -0.38284076       5.31716815       2.29049167      10.09876585       5.49109134     -15.08385870
Si       1.51826321       1.22506968       5.80870053      -7.28726591     -24.33783146      19.65295907
Si       1.14290962       2.78043499       5.80870053      -5.65977857      25.66289114       0.23337920
Si       4.71840311       0.54155931       3.49091162     -10.87242773      23.53959974       0.53895738
Si       3.74507380       4.57477672       3.49091162      -3.58036812     -31.31825153      10.70703946
Si       2.60182929       1.16505467       4.63293817      10.60894245      25.15918013     -16.11026594
Si       1.62778885       5.20121882       4.63293817       6.96018007     -25.51124072       1.75973613
8
Lattice="5.085813247496609 -0.010663450850736007 -0.015037073439290904 -1.36690284886519 5.663418418113781 0.0003017468295564311 -0.017210673142408 -0.0038406228429997556 5.8200849993151005" Properties=species:S:1:pos:R:3:forces:R:3 unique_starting_index=472 config_type=initial n_minim_iter=2 energy=-1271.63647193821 stress="-0.23228104653274198 -0.6540410437921297 -0.22388715393483402 0.034645848136812485 0.1679074063846681 0.10939375994707091" pbc="T T T"
Si       0.34424758       2.28832296       2.29715702      -0.21925046       1.31410876      -1.60639805
Si      -0.40144727       5.38266995       2.29597443       9.46142662       5.24192189     -14.20119510
Si       1.50415637       1.23068804       5.82916355      -7.10626573     -21.69972437      18.55675901
Si       1.12409120       2.81111276       5.82729377      -5.13048442      23.18807001       0.29507500
Si       4.72585370       0.53838378       3.49090526      -9.88294187      20.92292781       0.24951609
Si       3.74063617       4.61789875       3.49214536      -3.53743338     -28.34116903      10.04724264
Si       2.59774252       1.17343885       4.64180541      10.25539851      22.40605765     -15.16479414
Si       1.61070272       5.25636415       4.64382198       6.15955073     -23.03219273       1.82379454
8
Lattice="5.293232221880465 -0.11279466291012419 -0.16535586956710344 -1.5349342565238278 6.353935636658795 0.006397096854591132 -0.18925795865716383 -0.03904189085618578 6.047691149968926" Properties=species:S:1:pos:R:3:forces:R:3 unique_starting_index=472 config_type=initial n_minim_iter=3 energy=-1286.7398814876944 stress="-0.06674434188847517 -0.2281883982254594 -0.06068425130603628 0.008339944145608586 0.0749116652016769 0.03800484153210579" pbc="T T T"
Si       0.24493984       2.53721438       2.36113370       0.27553550       0.69362245      -0.32069910
Si      -0.58186347       6.01321909       2.34949873       5.15387883       2.86762166      -7.46268546
Si       1.36152220       1.28479809       6.02490413      -5.92903944      -8.64588903      11.79704720
Si       0.93631425       3.10985462       6.00490177      -2.47948285       9.04486187       0.65342160
Si       4.79347256       0.51099161       3.48512740      -4.34542752       8.75400533      -0.53754829
Si       3.69475967       5.03075737       3.50131506      -2.21667561     -12.30895426       5.36994547
Si       2.55418978       1.25707200       4.72274189       7.34930180       8.87046724     -10.49128490
Si       1.44207297       5.78530609       4.74772156       2.19190929      -9.27573524       0.99180348
8
Lattice="5.4289747338590155 -0.19656723516577299 -0.3129074338808253 -1.663597321174345 6.91362396691512 0.02883850073572123 -0.3581380107036615 -0.05653405977090232 6.1871832061677585" Properties=species:S:1:pos:R:3:forces:R:3 unique_starting_index=472 config_type=initial n_minim_iter=4 energy=-1291.8174324582224 stress="-0.012018056795287354 -0.058715315389386236 -0.010235571895413301 0.007131932939184013 0.03894891305619675 0.00758459691252782" pbc="T T T"
Si       0.15081609       2.74370057       2.39836512       0.48647810       0.86557942       0.18471592
Si      -0.73501080       6.53069983       2.38337694       3.04030245       1.33411082      -2.91980425
Si       1.19954226       1.33680762       6.14202761      -4.71547716      -3.55531752       7.15165168
Si       0.74502608       3.36563230       6.10454730      -0.77507705       3.36219044       0.10352941
Si       4.79903862       0.49884787       3.42973448      -1.85208579       3.70118981      -0.01744780
Si       3.61399285       5.36488728       3.47418529      -1.64185202      -5.68951487       3.11733627
Si       2.48536713       1.33544510       4.73194390       4.68355614       3.50983522      -7.67208125
Si       1.27050283       6.21866206       4.79785695       0.77415533      -3.52807332       0.05210001
8
Lattice="5.479642284536072 -0.22728942008500985 -0.4459422997892053 -1.7110184879359984 7.176916423799928 0.03799211313537729 -0.510402984532316 -0.08379102058809047 6.237274295354194" Properties=species:S:1:pos:R:3:forces:R:3 unique_starting_index=472 config_type=initial n_minim_iter=5 energy=-1293.4568643653652 stress="0.001078278955898753 -0.026414343308693182 -0.0012744731272165213 0.0073707936114199065 0.03198301481614507 0.00180475008151496" pbc="T T T"
Si       0.08174101       2.83765323       2.39847754       0.51198242       0.89748562       0.58203164
Si      -0.81986364       6.77040988       2.37688741       1.98849779       1.04385612      -0.81474635
Si       1.03663931       1.33994582       6.17217817      -3.42949438      -2.25372795       4.38932437
Si       0.58323062       3.47468489       6.11216701      -0.33491787       1.79330958      -0.40401972
Si       4.74404600       0.49660607       3.33421774      -1.03750908       2.25770623       0.24954203
Si       3.52667049       5.50807404       3.39590571      -1.11060388      -3.87528009       2.14809405
Si       2.40072761       1.36709758       4.67084370       2.93535160       2.30439182      -5.52836540
Si       1.13714376       6.40710104       4.77068419       0.47669340      -2.16774132      -0.62186061
8
Lattice="5.498562875332111 -0.24219196387547678 -0.7017889229489944 -1.7325139723424965 7.4641608011471945 0.03877014675416317 -0.8032320794735186 -0.15365242383126332 6.281088124358955" Properties=species:S:1:pos:R:3:forces:R:3 unique_starting_index=472 config_type=initial n_minim_iter=6 energy=-1294.9752592902466 stress="0.015019090086292557 0.0003143341421860618 0.014504545228210715 0.007208636047761826 0.022088569472162187 -0.005513518585668018" pbc="T T T"
Si      -0.03696547       2.93265243       2.37363868       0.48319720       0.57400154       0.80671625
Si      -0.93570740       7.02409426       2.33840545       0.59183485       0.86852332       0.73393964
Si       0.71216709       1.30213366       6.16462064      -1.64927732      -1.34381472       1.48135383
Si       0.28255719       3.56374167       6.06197175      -0.16195308       0.08727368      -0.94729742
Si       4.57412838       0.49468514       3.11906562      -0.56149702       0.81734013       0.64838436
Si       3.34076802       5.64297620       3.19780430       0.11513665      -1.62277822       0.58566431
Si       2.20391974       1.38915012       4.51264212       0.88220087       1.33495045      -2.32398796
Si       0.89967715       6.58461953       4.65618672       0.30035785      -0.71549618      -0.98477300
8
Lattice="5.3813497685980884 -0.1708626166313105 -0.8960054749006886 -1.6225268024400237 7.441057943914025 0.006091470867870881 -1.0255225143763695 -0.2411729745440466 6.157893065768797" Properties=species:S:1:pos:R:3:forces:R:3 unique_starting_index=472 config_type=initial n_minim_iter=7 energy=-1295.8680275174163 stress="0.013612624844163696 0.0017747782747521447 0.02161917641573787 0.00986998378540082 0.014609014267432724 -0.00443033789236927" pbc="T T T"
Si      -0.09936367       2.90788445       2.28215202       0.60599088       0.20802184       0.72868985
Si      -0.93605505       6.99161573       2.22738898       0.25221700       0.69166155       0.77700751
Si       0.45154883       1.21612726       5.98291156      -1.00410405      -1.33370643       0.94896696
Si       0.07474604       3.49155076       5.84462276      -0.52500154       0.31804459      -1.02452443
Si       4.33351918       0.51780131       2.86227578      -0.60956774       0.72371295       0.38301501
Si       3.18247823       5.61796977       2.91782063       0.50903781      -1.06901377       0.25975010
Si       1.99800635       1.37472240       4.27297796       0.55447012       1.13703047      -1.27069241
Si       0.76154035       6.52542584       4.40852359       0.21695753      -0.67575119      -0.80221258
8
Lattice="5.208414359562442 -0.06907509555966283 -1.0722903772987151 -1.4640631101491268 7.383015966130389 -0.13185562346957347 -1.2272892908281041 -0.43286464189129964 5.834319599980973" Properties=species:S:1:pos:R:3:forces:R:3 unique_starting_index=472 config_type=initial n_minim_iter=8 energy=-1296.8978573118386 stress="0.0188019638834359 0.0061041626432327915 0.021969075113837413 0.006103333074393949 0.004227006997722528 -0.0013622318745338655" pbc="T T T"
Si      -0.14113194       2.82953321       2.07259817       0.47185478      -0.01367778       0.37631917
Si      -0.89614944       6.89446856       1.94494103       0.35521647       0.62896286      -0.37011135
Si       0.20095077       1.01324602       5.58477294      -0.65661859      -1.09061420       0.81566856
Si      -0.11072544       3.31547596       5.37523627      -0.59722930       0.57670981      -0.38025180
Si       4.05350650       0.50818948       2.49067395      -0.76888381       0.62334273       0.04064810
Si       3.02791779       5.52718085       2.44594565       0.17275137      -0.74395621       0.07207071
Si       1.78828434       1.29862200       3.86434936       0.74476771       0.96173401      -0.53938857
Si       0.65463604       6.36382183       3.91252992       0.27814137      -0.94250123      -0.01495482
8
Lattice="4.895872262222826 -0.025077609612931484 -1.0702367880015486 -1.3322073488562003 7.227652366889719 -0.2453961102972211 -1.2249388564630028 -0.5499965180339995 5.4362862855266645" Properties=species:S:1:pos:R:3:forces:R:3 unique_starting_index=472 config_type=initial n_minim_iter=9 energy=-1297.7020852972364 stress="0.01108277651832455 0.007029922811910236 0.012099737523415985 0.004992949937223007 0.0008593640019436707 0.00505352935959173" pbc="T T T"
Si      -0.13766437       2.72592723       1.87121566       0.29865031      -0.08195226       0.07643063
Si      -0.81955942       6.72674371       1.67104850       0.11962525       0.13312388      -1.64951655
Si       0.10825755       0.84436821       5.17625793      -0.29754864      -0.71931626       2.17371750
Si      -0.16030783       3.15200407       4.91656603      -0.25837973       1.06382503       0.47003445
Si       3.75890273       0.47884391       2.24303508      -1.14418049       0.62578072      -0.65176944
Si       2.84000032       5.35322999       2.11674173      -0.43333122      -0.97987784       0.43665715
Si       1.65174504       1.22666598       3.51427931       0.84376511       1.20587860      -0.88008127
Si       0.60365216       6.12764669       3.49389626       0.87139942      -1.24746187       0.02452753
8
Lattice="4.741560044563004 -0.09769399717871279 -1.0421711491526495 -1.3712668664604035 7.1084020358559235 -0.3171071732057144 -1.1928163468063588 -0.6165820527970538 5.255893024022916" Properties=species:S:1:pos:R:3:forces:R:3 unique_starting_index=472 config_type=initial n_minim_iter=10 energy=-1298.2686140025921 stress="-0.006208045820071329 0.0039884452953944955 0.004328868753872968 0.005780976039484816 -0.002283238179173825 0.0058616572431408045" pbc="T T T"
Si      -0.16483686       2.63497246       1.77469653       0.23556790      -0.11094037       0.10285575
Si      -0.86182765       6.58178364       1.51186414      -0.02513288       0.17101377      -1.75128536
Si       0.06400829       0.70154712       5.02292806       0.22191932      -0.59475910       2.75560758
Si      -0.21048399       3.02539333       4.71449397       0.01320764       0.90142563       0.12144822
Si       3.61345745       0.37489833       2.14769093      -1.30676086       0.68150548      -1.38894994
Si       2.67312998       5.12153558       1.98906878      -0.64586564      -1.00177098       0.47357879
Si       1.59442177       1.13997697       3.35209545       0.61568780       1.19293123      -0.74005611
Si       0.51921625       5.89105287       3.30035755       0.89137671      -1.23940566       0.42680108
8
Lattice="4.798186835828343 -0.15893202171244358 -1.0186015097100298 -1.4539687173168234 7.076936868344711 -0.3814470017743461 -1.1658397305007293 -0.6767682185382062 5.211588446123243" Properties=species:S:1:pos:R:3:forces:R:3 unique_starting_index=472 config_type=initial n_minim_iter=11 energy=-1298.619276881309 stress="0.003046376548180725 0.012786413121488682 0.01377906726471555 0.003474202025578889 -0.003422014923113954 0.005600726719524533" pbc="T T T"
Si      -0.17513418       2.58432334       1.73547605       0.20537058      -0.18353654       0.15887295
Si      -0.91234194       6.52506291       1.41826855       0.05254485       0.16346866      -1.38289906
Si       0.08460676       0.59330895       5.00294606       0.23341906      -0.49702534       2.18873808
Si      -0.20694200       2.94475846       4.64393818       0.03754018       0.64277511      -0.10695508
Si       3.66475031       0.29483735       2.12471803      -0.98027974       0.63543707      -1.13654694
Si       2.66898943       4.98088923       1.94460536      -0.57307704      -0.76399505       0.35430830
Si       1.63958749       1.07520994       3.30256666       0.40581753       0.98902029      -0.42320356
Si       0.50700385       5.75342036       3.22447606       0.61866458      -0.98614420       0.34768531
8
Lattice="4.7754919261078586 -0.19591703533362437 -0.9847247028111968 -1.488757098863337 6.975723473982318 -0.40154062568902116 -1.127066052032096 -0.6882406219174112 5.117247939695502" Properties=species:S:1:pos:R:3:forces:R:3 unique_starting_index=472 config_type=initial n_minim_iter=12 energy=-1298.8230500894965 stress="-0.007902613178856195 0.004197719789194544 0.006948878185222884 0.0027974088038675965 -0.0019517065679861265 0.005624642876023495" pbc="T T T"
Si      -0.17687955       2.52904960       1.69673465       0.11331382      -0.15859268       0.19687834
Si      -0.93125004       6.42073016       1.35991224       0.16055393       0.16402835      -1.47386309
Si       0.10652188       0.53956423       4.92719571       0.26183178      -0.67497408       2.32892130
Si      -0.19409396       2.87564810       4.54928981       0.11669709       0.69071411      -0.25683647
Si       3.65813962       0.25119133       2.09156910      -0.98497987       0.80414700      -1.19260233
Si       2.63927379       4.84971430       1.90826284      -0.68098260      -0.96139701       0.35352458
Si       1.65119175       1.03288097       3.23972464       0.48785604       1.15170422      -0.42128872
Si       0.49751277       5.61867688       3.15307901       0.52570982      -1.01562991       0.46526639
8
Lattice="4.81224255371798 -0.22636009840471746 -0.9743905354829201 -1.5321618812875009 6.958233573028449 -0.41367972615025644 -1.1152380871821554 -0.6979699157184167 5.081706301193606" Properties=species:S:1:pos:R:3:forces:R:3 unique_starting_index=472 config_type=initial n_minim_iter=13 energy=-1298.9695116533976 stress="-0.002775677040141339 0.0077312489571746005 0.009129569433030041 0.0018011513182334992 -0.0021579673748054556 0.0047239244463060225" pbc="T T T"
Si      -0.18276267       2.51054657       1.68054220       0.08864597      -0.15171105       0.22526940
Si      -0.95729091       6.39807929       1.32846238       0.15060891       0.14210393      -1.34178321
Si       0.11932988       0.50588378       4.90392961       0.24980911      -0.64487621       2.09446648
Si      -0.19079709       2.85303346       4.50849603       0.13898183       0.58923422      -0.31428728
Si       3.69116320       0.22453864       2.07321371      -0.85577226       0.74005813      -1.08851994
Si       2.64282000       4.79172216       1.89145739      -0.66687375      -0.86544499       0.32556374
Si       1.67526182       1.01456202       3.21067151       0.46739846       1.10224281      -0.32213882
Si       0.49144970       5.56688111       3.12259770       0.42720173      -0.91160684       0.42142963
8
Lattice="4.8329840072214605 -0.26941906722945996 -0.9494541418602394 -1.585230315376537 6.883022702766469 -0.4239561348129679 -1.0866971532216283 -0.7017349818065391 5.000689680844311" Properties=species:S:1:pos:R:3:forces:R:3 unique_starting_index=472 config_type=initial n_minim_iter=14 energy=-1299.182671416447 stress="-0.004469300248554306 0.005485863279631288 0.0052058531666456425 0.00019036722825649337 -0.0006473667045526975 0.003298179455246135" pbc="T T T"
Si      -0.18892722       2.46733071       1.65067753       0.02371540      -0.05357524       0.25325028
Si      -0.98719062       6.32153982       1.28010906       0.13311273       0.04203129      -1.28228444
Si       0.14126366       0.45731237       4.84488702       0.26206711      -0.71505906       1.90267707
Si      -0.18052011       2.80509982       4.42632338       0.17259735       0.53640803      -0.33062086
Si       3.71587273       0.18824264       2.03857014      -0.76101080       0.71001222      -1.00552022
Si       2.63118515       4.67553768       1.86461235      -0.65333781      -0.84267777       0.29153937
Si       1.70179462       0.98618824       3.15355634       0.52255408       1.17629742      -0.21154297
Si       0.48209456       5.45499916       3.06760804       0.30030195      -0.85343690       0.38250177
8
Lattice="4.926705097195089 -0.3462240189329349 -0.9315864051981277 -1.6950036381685671 6.75123807860906 -0.40985227890611226 -1.0662466462311722 -0.68217926282033 4.888832847603016" Properties=species:S:1:pos:R:3:forces:R:3 unique_starting_index=472 config_type=initial n_minim_iter=15 energy=-1299.5462838330661 stress="0.00070719972859415 0.0046705089831536924 0.0036739578498847917 0.0012018284642977687 0.0034135643023629936 -0.002749584079784159" pbc="T T T"
Si      -0.20965657       2.40356131       1.62060336      -0.01442881       0.18150311       0.14133025
Si      -1.05169576       6.19631169       1.22615940      -0.14007152      -0.32263560      -0.82947433
Si       0.16445870       0.38607301       4.77956434       0.36776467      -0.45662026       1.03925739
Si      -0.17794941       2.75159191       4.31632438       0.22320927       0.40503767      -0.23926586
Si       3.78950054       0.14857981       1.97097478      -0.49518688       0.40149914      -0.67302329
Si       2.62869442       4.47856497       1.84106820      -0.51460280      -0.57398173       0.21494885
Si       1.75953180       0.97018287       3.06511273       0.50713286       1.07804875       0.15667565
Si       0.46094141       5.27031784       3.01229476       0.06618321      -0.71285109       0.18955134
8
Lattice="4.921195310373491 -0.2572639222233745 -1.0044868513079486 -1.5953138542028242 6.568679566070973 -0.4158282442233783 -1.14968480692097 -0.7085100936289899 4.821544190723119" Properties=species:S:1:pos:R:3:forces:R:3 unique_starting_index=472 config_type=initial n_minim_iter=16 energy=-1299.7668042770658 stress="-0.011239160078998748 -0.007338932321385771 -0.007778173112328636 0.0015294440514648704 0.0003991593053602618 -0.002257888673968716" pbc="T T T"
Si      -0.20639549       2.34289946       1.58020312      -0.03701913       0.31746022      -0.07400179
Si      -0.98132691       6.01960252       1.16385792      -0.42387593      -0.75116849      -0.70096720
Si       0.09459476       0.32276239       4.71001795       0.88281668      -0.41902390       0.98289364
Si      -0.20165132       2.68178974       4.20797362       0.27781878       0.59444664      -0.02231173
Si       3.73748835       0.21935038       1.84678769      -0.75753762       0.44486639      -1.02316686
Si       2.63121328       4.37672309       1.74266450      -0.32297540      -0.46488260      -0.00776339
Si       1.72899140       1.00682259       2.95747097       0.33108139       1.04207028       0.61602832
Si       0.48238827       5.10170206       2.92106107       0.04969121      -0.76376854       0.22928902
8
Lattice="5.003446258779675 -0.24119803897523193 -1.0223936943428742 -1.5994913566054199 6.636260844289421 -0.43330324302488515 -1.1701800730863445 -0.7315712310676024 4.880169198363989" Properties=species:S:1:pos:R:3:forces:R:3 unique_starting_index=472 config_type=initial n_minim_iter=17 energy=-1299.82399342309 stress="0.006864108850193607 0.01422049013468172 0.011879759414371083 -0.00017752017671376948 -0.000133884925708502 -0.0033651723299308314" pbc="T T T"
Si      -0.20157864       2.36887203       1.59208723       0.01935379       0.15647693       0.00412122
Si      -0.97769826       6.07081906       1.16285755      -0.33951903      -0.50225012      -0.45539792
Si       0.10464000       0.30626861       4.76871614       0.61928953      -0.30242248       0.64656178
Si      -0.19191853       2.70882286       4.24782380       0.31498911       0.35663898      -0.13449989
Si       3.79777642       0.23942691       1.85592220      -0.49089521       0.36717555      -0.73096279
Si       2.68877373       4.42298100       1.75128360      -0.25301648      -0.17298202       0.04249416
Si       1.76303077       1.02973367       2.98772365       0.17291681       0.71113310       0.46426757
Si       0.50964175       5.14072433       2.94582017      -0.04311852      -0.61376995       0.16341586
8
Lattice="4.976704183581022 -0.2256995980451975 -1.0156029324244613 -1.575253880021585 6.561188043424027 -0.4289329774473072 -1.162407710715596 -0.7251652063732058 4.836683187463051" Properties=species:S:1:pos:R:3:forces:R:3 unique_starting_index=472 config_type=initial n_minim_iter=18 energy=-1299.8715769760468 stress="-0.0022009893219645037 0.0034881991011851184 0.002600310776090929 0.001169857121762479 0.0014606644108160563 -0.0031663714894458006" pbc="T T T"
Si      -0.19346088       2.34475483       1.57747023      -0.01719385       0.24684697      -0.06095436
Si      -0.95754174       6.00115587       1.15201595      -0.35174903      -0.64615071      -0.51791618
Si       0.11053825       0.30182718       4.72728062       0.74161038      -0.36244726       0.70975356
Si      -0.17932806       2.68350917       4.20787146       0.30741244       0.48200024      -0.05950780
Si       3.77917836       0.25127200       1.83491377      -0.60778084       0.42239681      -0.80515724
Si       2.68609845       4.38247305       1.73475241      -0.26475721      -0.28992020       0.00631331
Si       1.75864647       1.02884687       2.96040069       0.21087253       0.81658957       0.54998819
Si       0.52171101       5.08389509       2.92015251      -0.01841443      -0.66931542       0.17748051
