10
Lattice="5.620684477685402 -0.09130808007739052 -0.8936574402691136 0.4082135136171201 5.069037229518555 -1.4882380127074433 -0.5930213316689059 1.3677590727764153 7.452102863922899" Properties=species:S:1:pos:R:3:forces:R:3 unique_starting_index=87 config_type=initial n_minim_iter=1 energy=-1625.7632150847883 stress="0.010083559221052673 0.0011801377695805047 -0.00027485349950560244 0.0011801377695805047 -0.003938268347929066 0.0013149408511451523 -0.00027485349950560244 0.0013149408511451523 -0.00440287755934488" free_energy=-1625.7632150847883 pbc="T T T"
Si       3.38965055       5.60721197       3.24824733      -0.34227477       0.49425470      -0.26097552
Si       1.66857626       2.39237293       3.86628969       0.51846435       0.47485316       0.42247577
Si       3.99236487       2.87426414       0.54211540       0.32755875      -0.10971446      -0.27453029
Si       0.66698461       3.03502316       0.95928898      -0.91281202       0.43015924       0.43953615
Si       1.00699731       0.87512399       6.06746009      -0.51613876       0.15955290       0.31797982
Si       1.22440376       1.79882971      -0.81225251       0.52387262      -0.46432426      -0.62862878
Si       5.00295740       4.88204920       4.84520517       0.22834611      -0.64034438      -0.44153025
Si       2.46528542       3.78734975       2.15338032       1.00360606      -0.49270287      -0.46956942
Si       2.71111974       4.13306161       5.56407044      -0.32541850      -0.18402705       0.42628592
Si       5.04192920       2.91704024       2.85313759      -0.50520382       0.33229302       0.46895659
10
Lattice="5.44434633104188 -0.10942463594332981 -0.9009052296227087 0.37545221298847986 5.1372220893811225 -1.5300169829449382 -0.5730469467732595 1.3557356686687863 7.5501109126876855" Properties=species:S:1:pos:R:3:forces:R:3 unique_starting_index=87 config_type=initial n_minim_iter=2 energy=-1625.8515303732438 stress="-0.012501320497386321 0.000916757945091451 0.0005768404670992794 0.000916757945091451 0.0023687482931332954 0.00046079864215964496 0.0005768404670992794 0.00046079864215964496 0.003715875289535956" free_energy=-1625.8515303732438 pbc="T T T"
Si       3.26094003       5.65840701       3.26925056      -0.27906902       0.55829072      -0.39815104
Si       1.61804099       2.40671994       3.91787516       0.94269121       0.51686282       0.25035486
Si       3.86182743       2.89164126       0.53711307      -0.07009709      -0.03425008      -0.25431026
Si       0.62309954       3.07275473       0.96686113      -0.39387054       0.06145297      -0.11164727
Si       0.97036834       0.85917106       6.15414200      -0.46584807       0.19123683       0.30828162
Si       1.18601348       1.81353290      -0.83918986       0.21030104      -0.26556878      -0.31657738
Si       4.83577139       4.89507534       4.89046026       0.20177968      -0.72425559      -0.36466372
Si       2.38994063       3.80944857       2.16296713       1.07557505      -0.41886542       0.13428274
Si       2.61136617       4.14872332       5.63308240      -0.38403299      -0.23669275       0.34032353
Si       4.86885280       2.92775924       2.89193479      -0.83742926       0.35178929       0.41210691
10
Lattice="5.561079697358944 -0.17096819398529772 -0.9124761062692556 0.3232454047516755 5.188057050307124 -1.58706950240735 -0.6164167598464932 1.2956219619057807 7.551621929293587" Properties=species:S:1:pos:R:3:forces:R:3 unique_starting_index=87 config_type=initial n_minim_iter=3 energy=-1626.0278292889197 stress="0.0128720435183995 -0.005967937418981668 0.002361393993515726 -0.005967937418981668 0.008576810212401148 -0.0011645256537261828 0.002361393993515726 -0.0011645256537261828 0.014471429972275423" free_energy=-1626.0278292889197 pbc="T T T"
Si       3.23638645       5.65651382       3.19122880      -0.40388056       0.53593056       0.09929563
Si       1.65286556       2.39065826       3.91495615       0.22194447       0.61734270       0.17761112
Si       3.91238542       2.85513861       0.48577306      -0.32052218       0.01535576      -0.19580573
Si       0.56240444       3.09215895       0.94357243       0.30308595      -0.09863658      -0.43186057
Si       0.94209600       0.79974518       6.17217425       0.01402826      -0.30636484       0.23333498
Si       1.20953300       1.80115461      -0.88736725       0.06583900       0.22900176       0.18545633
Si       4.87903002       4.78252582       4.81766631      -0.06519021      -0.73939160      -0.46215976
Si       2.44398517       3.75984678       2.11475590       0.47107625      -0.56931879      -0.05435609
Si       2.58544554       4.07738649       5.61675178      -0.32509908       0.13840522       0.01476809
Si       4.89297090       2.87727247       2.88119086       0.03871811       0.17767581       0.43371600
10
Lattice="5.537602055068397 -0.1568688272339286 -0.9195050951707137 0.33693647687564543 5.149948183891958 -1.5780216155622355 -0.6457344578653993 1.2528451397721065 7.393053124898067" Properties=species:S:1:pos:R:3:forces:R:3 unique_starting_index=87 config_type=initial n_minim_iter=4 energy=-1626.1106250239488 stress="-1.3017453827685571e-05 -0.0044317670306712196 0.0016337367996603132 -0.0044317670306712196 -0.006395864753282627 -0.0046589080449970545 0.0016337367996603132 -0.0046589080449970545 -0.011930422136749386" free_energy=-1626.1106250239488 pbc="T T T"
Si       3.20245548       5.62064625       3.07533321      -0.29397165       0.42488456       0.13459833
Si       1.65417524       2.37609417       3.82691308      -0.07591523       0.66557140      -0.03193082
Si       3.89697492       2.83279359       0.43525425      -0.38410492      -0.17928003      -0.19494232
Si       0.54256574       3.06939494       0.90976601       0.70287229       0.02269183      -0.47243107
Si       0.89573131       0.77293935       6.04817071       0.08812741      -0.56945267       0.17456030
Si       1.22191650       1.78122775      -0.89567976      -0.05501790       0.16289221       0.39662344
Si       4.84722112       4.70272078       4.65931685      -0.29527037      -0.47407538      -0.36471735
Si       2.46319459       3.70372662       2.03867666       0.19392099      -0.29787615       0.01287420
Si       2.54062958       4.01754404       5.48317433      -0.23384065       0.22163345      -0.24498861
Si       4.83949070       2.86061755       2.80245383       0.35320001       0.02301079       0.59035390
10
Lattice="5.526789300561616 -0.08222905736994353 -0.9780536963370414 0.42439757966859676 5.172862355818511 -1.5462119993012973 -0.6879038937615376 1.3265708997193977 7.487111459532096" Properties=species:S:1:pos:R:3:forces:R:3 unique_starting_index=87 config_type=initial n_minim_iter=5 energy=-1626.2023030179325 stress="0.0005491437511425869 0.0017853982978090054 -0.0011754122234049174 0.0017853982978090054 -0.003017285706844874 0.0026862267977341855 -0.0011754122234049174 0.0026862267977341855 -0.0012677764005804486" free_energy=-1626.2023030179325 pbc="T T T"
Si       3.23700688       5.75845994       3.12984355      -0.52930271      -0.26376457      -0.01036414
Si       1.66744996       2.47900939       3.88260465      -0.16194166       1.04462134      -0.17150776
Si       3.91903004       2.91240173       0.42526726      -0.29485031      -0.14011333      -0.21451554
Si       0.57558750       3.11156141       0.93893722       0.93913746      -0.24147272      -0.57953609
Si       0.84446415       0.84820693       6.12097131       0.02571300      -0.52321314       0.10477428
Si       1.25861695       1.79837699      -0.90153933       0.11862197       0.18441723       0.66929660
Si       4.86325984       4.83039825       4.69688602      -0.29781907      -0.25224087      -0.42877240
Si       2.51934596       3.76954540       2.07241255      -0.00139272       0.09712888       0.23831850
Si       2.53347828       4.13789732       5.56295035      -0.18947768       0.06215644      -0.22352341
Si       4.83310183       2.99081528       2.83722424       0.39131172       0.03248075       0.61582996
10
Lattice="5.477588294174958 -0.02354412884020528 -1.0174694818363783 0.4770598256952713 5.325509057177364 -1.6066284946106344 -0.7067477196774035 1.3008158945540917 7.577440074117244" Properties=species:S:1:pos:R:3:forces:R:3 unique_starting_index=87 config_type=initial n_minim_iter=6 energy=-1626.3664811629915 stress="-3.869361524194485e-05 0.004608552779648082 -0.0013014425791189712 0.004608552779648082 0.0076049635496082315 0.0007658611419295101 -0.0013014425791189712 0.0007658611419295101 0.005106564603244387" free_energy=-1626.3664811629915 pbc="T T T"
Si       3.20692684       5.94542562       3.10188990      -0.86244655      -0.33454113      -0.10922266
Si       1.67882495       2.61046920       3.91166323       0.14383524       0.74650854      -0.32822024
Si       3.89099507       3.01460606       0.36718662       0.26200489      -0.14404491      -0.38909395
Si       0.61940447       3.19252066       0.89477505       0.57092514      -0.27337811      -0.37359747
Si       0.79766112       0.80786847       6.21212220      -0.02073969      -0.10848652       0.14498897
Si       1.28321766       1.86326119      -0.91758792       0.18296932      -0.18469257       0.48054401
Si       4.83122592       4.91894069       4.65718444      -0.28310573      -0.19570624      -0.29132741
Si       2.56554664       3.85283993       2.06234178      -0.42282099       0.45567519       0.50575477
Si       2.49344593       4.23139479       5.59470593      -0.03737841       0.07636218      -0.17562899
Si       4.79294350       3.11256933       2.88106021       0.46675680      -0.03769642       0.53580298
10
Lattice="5.436533156359157 -0.05220178163583289 -1.0365878485553206 0.45072003438331215 5.317912929016599 -1.6220491432549449 -0.7187237227739537 1.309453497240967 7.677277221829987" Properties=species:S:1:pos:R:3:forces:R:3 unique_starting_index=87 config_type=initial n_minim_iter=7 energy=-1626.4945421031377 stress="-0.002688517174218397 0.0005758830376867915 -0.0009343891084407386 0.0005758830376867915 0.0033475655188138697 -0.00022581428759588864 -0.0009343891084407386 -0.00022581428759588864 0.006062070929370445" free_energy=-1626.4945421031377 pbc="T T T"
Si       3.10282273       5.94400117       3.13692596      -0.85398289      -0.03376281      -0.16418426
Si       1.66836306       2.68380387       3.96005239       0.11808421       0.05703281      -0.22525419
Si       3.83685183       2.98084393       0.34367659       0.56133738       0.00097861      -0.25485782
Si       0.63187776       3.18290362       0.87436372       0.08115562      -0.23869105      -0.13671232
Si       0.76632821       0.78082053       6.31457193       0.00912345       0.23278424       0.05568800
Si       1.28003106       1.84976102      -0.90499784       0.08624992      -0.40620257       0.31614354
Si       4.75154534       4.84547667       4.67732640      -0.32743002       0.02416192      -0.04165254
Si       2.55321353       3.82449672       2.10297699      -0.32479492       0.53915220       0.14598581
Si       2.42322460       4.22330109       5.66581237       0.25728284       0.08218103      -0.01640582
Si       4.74117810       3.09958056       2.97332324       0.39297440      -0.25763438       0.32124960
10
Lattice="5.456361693141843 -0.05390428722239471 -1.0124713783447754 0.4487955717858122 5.303846992755312 -1.5919544217157844 -0.6935566586227204 1.3392630515865045 7.647179805176974" Properties=species:S:1:pos:R:3:forces:R:3 unique_starting_index=87 config_type=initial n_minim_iter=8 energy=-1626.548683855076 stress="0.0011750820590086528 -0.0004767180958814183 0.0024689912917853713 -0.0004767180958814183 0.0013344284634037153 -1.383233656681871e-05 0.0024689912917853713 -1.383233656681871e-05 0.002678526550142574" free_energy=-1626.548683855076 pbc="T T T"
Si       3.10375539       5.95046561       3.15743805      -0.77015127       0.07320791      -0.23539292
Si       1.69209057       2.72109179       3.95234364       0.02775828      -0.18602574      -0.03294187
Si       3.86012287       2.97627654       0.35707061       0.62435031       0.07130809      -0.10368548
Si       0.65803840       3.17478059       0.87034858      -0.15823866      -0.05259203       0.22191118
Si       0.79349878       0.79859110       6.29877526      -0.10560894       0.36176692       0.09473651
Si       1.28558356       1.83834508      -0.87022116       0.15987237      -0.52790605       0.05390922
Si       4.77914505       4.85115889       4.68396182      -0.29216118       0.06972166      -0.00522096
Si       2.56934975       3.83816301       2.12576175      -0.04957778       0.46093485      -0.26013341
Si       2.45559905       4.24720405       5.66196687       0.32845466       0.01095213       0.09503193
Si       4.78809846       3.10519791       3.01172960       0.23530220      -0.28136774       0.17178578
10
Lattice="5.481085907818939 -0.053642012748186134 -1.049201007642189 0.46367688895939596 5.292736653556 -1.5711713081674756 -0.7509875559081826 1.3577213595647037 7.606369859628664" Properties=species:S:1:pos:R:3:forces:R:3 unique_starting_index=87 config_type=initial n_minim_iter=9 energy=-1626.6024675006945 stress="0.0028834606365083144 -0.0020400582440973235 -0.001226120628910388 -0.0020400582440973235 -0.0033419451455129713 -0.001633518753070733 -0.001226120628910388 -0.001633518753070733 -0.002511012174941546" free_energy=-1626.6024675006945 pbc="T T T"
Si       3.05514538       5.95775104       3.12094685      -0.75760455       0.15442187      -0.19846478
Si       1.67521325       2.75190710       3.91495638      -0.13037111      -0.31659883      -0.10597516
Si       3.88464761       2.97277197       0.31790277       0.53886900       0.13156033       0.20903161
Si       0.66707640       3.16709867       0.85840911      -0.25090040       0.03154985       0.33854131
Si       0.74618213       0.81450037       6.26221874      -0.16532372       0.32637234       0.06463147
Si       1.30361022       1.81756640      -0.85462110       0.25557584      -0.48865216      -0.07154236
Si       4.74775854       4.84781130       4.61597970      -0.18054562       0.28149075       0.12175575
Si       2.56614273       3.85357945       2.10195862       0.13030347       0.28825518      -0.56487178
Si       2.42598611       4.26153283       5.61542168       0.33388974      -0.03105448       0.13581432
Si       4.79496697       3.10490563       2.98796477       0.22610734      -0.37734485       0.07107961
10
Lattice="5.48784340275762 -0.03516049213111908 -1.0423210614037801 0.4908021350157855 5.297519328649951 -1.497515866702791 -0.7490248833971016 1.441249553544182 7.529006622985869" Properties=species:S:1:pos:R:3:forces:R:3 unique_starting_index=87 config_type=initial n_minim_iter=10 energy=-1626.6912820539847 stress="0.002769622253604057 -0.0029579822311117405 0.001521719175735391 -0.0029579822311117405 -0.003456790392333613 0.002341685958007434 0.001521719175735391 0.002341685958007434 -0.006402467305359097" free_energy=-1626.6912820539847 pbc="T T T"
Si       3.01052367       6.03423704       3.12846379      -0.51252655       0.14368982      -0.24978471
Si       1.69127028       2.83624628       3.87987915      -0.17477807      -0.24609920       0.00345274
Si       3.93943171       3.00876999       0.32487492       0.15071785       0.20060111       0.65077529
Si       0.69938161       3.17889524       0.87304287      -0.01170863       0.14776304       0.42627551
Si       0.74077595       0.89936020       6.20625836      -0.37613914       0.17323205       0.10533516
Si       1.32840745       1.78411609      -0.80113822       0.30260913      -0.18921304      -0.18921074
Si       4.74663059       4.93698443       4.59397892      -0.03895980       0.24344906       0.08193135
Si       2.58484218       3.94124181       2.10503288       0.40225713       0.02359133      -0.98493675
Si       2.46197871       4.35700225       5.58762896       0.25711480      -0.22134513       0.12434568
Si       4.84336352       3.15164439       3.01632974       0.00141329      -0.27566903       0.03181648
10
Lattice="5.488412498273398 0.030074674445467596 -1.069151735639199 0.555196947057735 5.327495057053809 -1.5105368913503612 -0.7711756471316027 1.4206462535057889 7.516065683361381" Properties=species:S:1:pos:R:3:forces:R:3 unique_starting_index=87 config_type=initial n_minim_iter=11 energy=-1626.7607698389893 stress="0.0021357880640001884 -0.000531484599860972 0.0003793116257167373 -0.000531484599860972 -0.0060531671464956974 -0.0018914626254360703 0.0003793116257167373 -0.0018914626254360703 -0.005600002021679462" free_energy=-1626.7607698389893 pbc="T T T"
Si       2.98360634       6.09571404       3.07505808      -0.33080810       0.05166682      -0.14089633
Si       1.71018314       2.88442437       3.84745998      -0.04135625      -0.09223127      -0.30571971
Si       3.99724634       3.06727052       0.28725290      -0.13707793       0.13500967       0.77224683
Si       0.74001542       3.19001813       0.85688188       0.20694280       0.24495565       0.38426293
Si       0.70258217       0.90617236       6.20548637      -0.50392272      -0.14581008       0.08889611
Si       1.36924126       1.77248752      -0.79492221       0.40168088       0.29374135      -0.25803920
Si       4.75073640       4.98819573       4.53341849      -0.00733922       0.48205274       0.19292817
Si       2.62942150       4.00622162       2.05770062       0.26843100      -0.30483649      -0.80643774
Si       2.48865154       4.38877193       5.55714316       0.21959025      -0.28862328       0.16447429
Si       4.87546880       3.19417600       3.01691956      -0.07614072      -0.37592513      -0.09171534
10
Lattice="5.469335889865951 0.06494890683893612 -1.110742571798907 0.600959400926426 5.403744964423331 -1.488866881971777 -0.8156040273350804 1.4702124809697024 7.512354084128322" Properties=species:S:1:pos:R:3:forces:R:3 unique_starting_index=87 config_type=initial n_minim_iter=12 energy=-1626.8270030703595 stress="-0.0020345842373347433 -0.0006256841563744981 -0.0018790485202340368 -0.0006256841563744981 0.0043020927761102555 0.001544526021423278 -0.0018790485202340368 0.001544526021423278 -0.0011264335202237276" free_energy=-1626.8270030703595 pbc="T T T"
Si       2.91389178       6.22869513       3.05270469      -0.17879651      -0.13045606      -0.06888614
Si       1.70133168       2.97577129       3.82138428       0.12723848       0.12422521      -0.43617106
Si       4.02264243       3.14892116       0.27526272      -0.33515624       0.03045419       0.73475445
Si       0.76437824       3.24405254       0.86846525       0.42544317       0.07561554       0.05877470
Si       0.63333498       0.96064193       6.20709716      -0.46423350      -0.31651413       0.03356006
Si       1.40522090       1.77884096      -0.78809111       0.37717179       0.64493426      -0.10005637
Si       4.70641411       5.11946709       4.49946035       0.03705915       0.34117272       0.08794760
Si       2.64371772       4.11342149       2.01649068       0.16886259      -0.29393024      -0.40093126
Si       2.47844439       4.48968523       5.55051302       0.06469279      -0.31941058       0.03792675
Si       4.86317836       3.26343855       3.01602971      -0.22228171      -0.15609090       0.05308127
10
Lattice="5.469107688456885 0.11021034448408447 -1.11368750248938 0.638603967928503 5.38391222666479 -1.5116075786226795 -0.8023518584700475 1.4382162969070613 7.554105682037745" Properties=species:S:1:pos:R:3:forces:R:3 unique_starting_index=87 config_type=initial n_minim_iter=13 energy=-1626.888786706531 stress="-0.0009965699603157227 0.0008702895545778929 -0.00014834782950727673 0.0008702895545778929 0.0024700682168993923 -0.0005826118569625145 -0.00014834782950727673 -0.0005826118569625145 0.004986294286655079" free_energy=-1626.888786706531 pbc="T T T"
Si       2.92235584       6.21152351       3.04729347      -0.05810798      -0.23193925       0.06739670
Si       1.72885383       2.96769807       3.82193636       0.19268194       0.28649095      -0.53115621
Si       4.05268355       3.16889493       0.29412046      -0.19588297      -0.14571904       0.23597422
Si       0.79750063       3.23367584       0.87489952       0.32113119       0.07484958       0.05712714
Si       0.62185772       0.94550290       6.25132397      -0.42658998      -0.39035343      -0.02258038
Si       1.43693753       1.78336481      -0.79816930       0.37531239       0.82316201      -0.05746444
Si       4.73615356       5.13352685       4.51934353      -0.04905947       0.23014911       0.01865404
Si       2.68300539       4.11249645       1.99117156       0.04393829      -0.27824875       0.02346683
Si       2.52323175       4.46153888       5.57958463       0.05087630      -0.29558263       0.14937772
Si       4.88924994       3.25805205       3.04071872      -0.25429971      -0.07280855       0.05920438
10
Lattice="5.480476259306954 0.17108124547184667 -1.1299559172062623 0.7002915839619773 5.379058842355918 -1.5006852297146644 -0.8105038441228366 1.4458140796213759 7.55209764153046" Properties=species:S:1:pos:R:3:forces:R:3 unique_starting_index=87 config_type=initial n_minim_iter=14 energy=-1626.9490855781823 stress="-0.0004014973049507422 0.00274726531859119 0.0008941032694934234 0.00274726531859119 0.002714821898838696 -0.0009469267501191361 0.0008941032694934234 -0.0009469267501191361 0.002380339914092504" free_energy=-1626.9490855781823 pbc="T T T"
Si       2.90863617       6.24599073       3.03021280       0.13050004      -0.31472185       0.17407041
Si       1.77320733       3.02638614       3.78313093      -0.07744481       0.13054240      -0.37314818
Si       4.09982776       3.21301083       0.31815112       0.35138051      -0.43497336      -0.47803534
Si       0.85328760       3.24836450       0.88886777      -0.02046908      -0.00339995       0.07609768
Si       0.56583024       0.95201975       6.26534542      -0.24685997      -0.06692949      -0.17847317
Si       1.50580086       1.81195084      -0.80118673       0.26918357       0.51326238       0.02742519
Si       4.76644961       5.20331788       4.50216565      -0.18608239       0.21993326       0.00015109
Si       2.75420551       4.13825348       1.94248269      -0.19040684       0.18299047       0.62005224
Si       2.56800614       4.47343529       5.58919921      -0.00054437      -0.21619890       0.13372240
Si       4.91567436       3.28920585       3.06479528      -0.02925665      -0.01050497      -0.00186233
10
Lattice="5.488900987815179 0.13887198339682957 -1.1343030631776119 0.6731873252454339 5.3280991803977935 -1.4943407233314803 -0.8245862943263566 1.446430790789226 7.5546004049073865" Properties=species:S:1:pos:R:3:forces:R:3 unique_starting_index=87 config_type=initial n_minim_iter=15 energy=-1626.9769566640766 stress="-0.0010956261347543302 -0.0004255971889444968 -0.00010161178263053816 -0.0004255971889444968 -0.00072116956706337 0.0003956132941844513 -0.00010161178263053816 0.0003956132941844513 0.001390322749371823" free_energy=-1626.9769566640766 pbc="T T T"
Si       2.89459207       6.16857203       3.04256120       0.07256495      -0.16713390       0.23431671
Si       1.74772313       2.97917059       3.77701565      -0.09622558       0.18668078      -0.29074103
Si       4.08764876       3.16003457       0.32463572       0.31500535      -0.35823075      -0.41014273
Si       0.83574692       3.21901656       0.89962417      -0.16049563      -0.03943253       0.02738728
Si       0.55728589       0.94573932       6.25706127      -0.12730495       0.05973978      -0.15082349
Si       1.50004639       1.80814615      -0.80385754       0.24508701       0.34004588       0.03798946
Si       4.74437527       5.15817570       4.51610243      -0.14165561      -0.00162412      -0.11156164
Si       2.72204887       4.09242357       1.95125260      -0.00250954       0.08644710       0.43749421
Si       2.54863079       4.42296794       5.59277561      -0.06295003      -0.15691229       0.12631787
Si       4.90280785       3.23488766       3.04939351      -0.04151597       0.05042003       0.09976337
10
Lattice="5.502059986511803 0.14379242041269522 -1.1371950840786824 0.6793930808569805 5.320318679545756 -1.4932514447801999 -0.8294698552016015 1.4440856596398282 7.549442283487005" Properties=species:S:1:pos:R:3:forces:R:3 unique_starting_index=87 config_type=initial n_minim_iter=16 energy=-1627.0011404593959 stress="0.0005897334830354688 -0.0014320988004570929 3.376338554066267e-05 -0.0014320988004570929 -0.0007710968166339707 9.527720683903005e-05 3.376338554066267e-05 9.527720683903005e-05 -0.0007053751049949194" free_energy=-1627.0011404593959 pbc="T T T"
Si       2.89913698       6.15559079       3.04399830       0.07324330       0.08482734       0.20972988
Si       1.75058549       2.98595989       3.76069293      -0.15492529      -0.05534474      -0.11944594
Si       4.10572406       3.14781757       0.31322868       0.20696674      -0.24752634      -0.21063199
Si       0.84251730       3.21430822       0.89880787      -0.16302418       0.01312307       0.10075674
Si       0.54838586       0.94114104       6.24944166      -0.10030428       0.22692228      -0.10990942
Si       1.51634404       1.82330975      -0.80184263       0.20911287       0.06793049      -0.04327632
Si       4.75066436       5.15800564       4.50680300      -0.12514183       0.01488234      -0.12108544
Si       2.72965202       4.09112061       1.95765882       0.10894861      -0.03161572       0.15054349
Si       2.55334862       4.41205036       5.59013843      -0.04916512      -0.10365126       0.07611780
Si       4.91493305       3.23306081       3.04990968      -0.00571082       0.03045254       0.06720120
10
Lattice="5.509028172297566 0.16845334485876695 -1.1433120884944847 0.7032211419494321 5.311611629057439 -1.4957470017472727 -0.8317242912675156 1.4367700080444583 7.553899394126974" Properties=species:S:1:pos:R:3:forces:R:3 unique_starting_index=87 config_type=initial n_minim_iter=17 energy=-1627.0176834881477 stress="0.001176167118908335 -0.000805223504570017 4.1641026292798054e-05 -0.000805223504570017 -0.0013335688467630757 8.022498322885633e-05 4.1641026292798054e-05 8.022498322885633e-05 -0.001694563565610686" free_energy=-1627.0176834881477 pbc="T T T"
Si       2.91730661       6.15250586       3.04766831       0.07333935       0.17373600       0.18383114
Si       1.75974270       2.99293149       3.74585473      -0.21287892      -0.15207473      -0.00891289
Si       4.13223953       3.14561128       0.30069961       0.05307451      -0.15795758      -0.04809990
Si       0.85432024       3.21216158       0.90332796      -0.02190176       0.03467094       0.11001702
Si       0.53398532       0.94296586       6.24946502      -0.06554034       0.30243088      -0.09105548
Si       1.54365653       1.84262329      -0.80647713       0.12668780      -0.11188937      -0.01864574
Si       4.76503818       5.17276855       4.49917811      -0.10217375       0.03319241      -0.11529835
Si       2.75191308       4.09434685       1.96125316       0.13902244      -0.09798144      -0.04056322
Si       2.56699091       4.40230764       5.59597669      -0.04311613      -0.03389451      -0.00502598
Si       4.92733055       3.24509659       3.05319847       0.05348680       0.00976740       0.03375340
10
Lattice="5.504881214485569 0.18514518343359354 -1.1470370343884615 0.717521529663194 5.3178401207535755 -1.5054297470603748 -0.8307440380258164 1.4254254385165772 7.563986678700333" Properties=species:S:1:pos:R:3:forces:R:3 unique_starting_index=87 config_type=initial n_minim_iter=18 energy=-1627.0271255884356 stress="0.0003190967529598 -0.00039621384039672424 6.61838707183102e-05 -0.00039621384039672424 -0.00015088300682965564 -9.050739565615522e-05 6.61838707183102e-05 -9.050739565615522e-05 -0.0008964991929233256" free_energy=-1627.0271255884356 pbc="T T T"
Si       2.93148174       6.16085204       3.05108793       0.03534549       0.15982694       0.11374631
Si       1.76008298       2.99313352       3.73936512      -0.18374263      -0.15843224       0.00620426
Si       4.14226108       3.14604630       0.28898734      -0.07323996      -0.08375160       0.07051257
Si       0.85881350       3.21631360       0.90572035       0.11318946       0.00952736       0.06850520
Si       0.52573190       0.94423743       6.25359018      -0.03988980       0.26540462      -0.04843066
Si       1.55907640       1.85828311      -0.81381888       0.04925625      -0.16009209       0.03269127
Si       4.76825254       5.18579980       4.49384927      -0.06189265       0.04751152      -0.09297006
Si       2.76385311       4.09839726       1.96345078       0.13252758      -0.10582759      -0.10331135
Si       2.57101041       4.39641235       5.60204895      -0.03813706       0.03248817      -0.07944985
Si       4.92750800       3.25648100       3.05466561       0.06658332      -0.00665509       0.03250230
10
Lattice="5.505234853961805 0.20311098319482332 -1.152684172770622 0.7347168537788695 5.3191210376202385 -1.5088823238972318 -0.8331353849810501 1.4204318079578788 7.569284948634896" Properties=species:S:1:pos:R:3:forces:R:3 unique_starting_index=87 config_type=initial n_minim_iter=19 energy=-1627.0335328018264 stress="3.89006050721449e-06 0.000678068343412598 -7.59593027791156e-05 0.000678068343412598 0.00015328285754839858 3.002649292433853e-05 -7.59593027791156e-05 3.002649292433853e-05 3.890804442419911e-05" free_energy=-1627.0335328018264 pbc="T T T"
Si       2.94250230       6.17062502       3.05470988       0.03352416       0.06653080       0.06031329
Si       1.75898497       2.99317488       3.73169758      -0.11877651      -0.06086146      -0.01587750
Si       4.15547241       3.14913614       0.28230109      -0.12480175      -0.03934792       0.09448717