18
Lattice="5.174790483728233 1.5566947219429408 0.3272693384288854 4.575652496378672 8.378529672909337 -2.273823741981425 2.9717122167633963 -0.7286804596466387 13.062443802533165" Properties=species:S:1:pos:R:3:forces:R:3 unique_starting_index=194 config_type=initial n_minim_iter=1 energy=-2927.3992119808922 stress="-0.0017881054987593926 5.758896107462117e-05 -0.001478128207348919 5.758896107462117e-05 -0.001288814459706634 -0.0011772255211907681 -0.001478128207348919 -0.0011772255211907681 -0.002463998417314998" free_energy=-2927.3992119808922 pbc="T T T"
Si       5.76434293       1.60930650       1.90705971       0.36929267       0.22130188       0.18971953
Si       6.66074347       5.54932335      12.83478956       0.00488605       0.12660084       0.18339271
Si       4.72404730       3.61156483       2.57141198      -0.21182869       0.01485075       0.19793742
Si       4.01258194       1.87515871      10.72017823       0.13024718      -0.07614437      -0.34099335
Si       9.44899282       7.24926681       6.72314821       0.11843895       0.12929607      -0.02759671
Si       8.01193390       8.21773750       2.50021195       0.20130891      -0.24717637       0.19619264
Si       4.03391692       2.38475326       0.34082006      -0.23229232       0.10527553      -0.01998260
Si       2.69013403       1.75172065       6.05845020       0.10194958       0.10568128      -0.21147549
Si       6.10713342       5.52267031       2.54121220      -0.47283175       0.22377410      -0.09542551
Si       5.08196325       7.43802079       1.57439373      -0.05407166       0.08258369      -0.13416487
Si       2.64759163       1.18300313       1.92263244       0.03959251      -0.16824556      -0.06243873
Si       5.81962588       4.20032079       5.53048649      -0.00999884       0.03133473      -0.11967575
Si       7.72679466       4.76448528       4.13863855       0.18081971      -0.15981843       0.07700584
Si       2.97902848       4.37755724       1.09598790       0.05232364       0.00970939      -0.10990069
Si       7.92984400       7.21072108       4.85724941       0.10369692      -0.12929046       0.00430171
Si      10.60544712       8.30342932       4.90179704      -0.04565321      -0.08079184       0.01739851
Si       6.69155756       1.98524483       8.16156708      -0.06814938      -0.06499109       0.13076582
Si       5.09779312       2.01754780       6.01928939      -0.20773026      -0.12395016       0.12493951
18
Lattice="5.18491094776315 1.5588949579676339 0.33806621694277883 4.5802085447172205 8.386771339237052 -2.2622555437441885 2.997593260814338 -0.7137071835349817 13.099928695393919" Properties=species:S:1:pos:R:3:forces:R:3 unique_starting_index=194 config_type=initial n_minim_iter=2 energy=-2927.405255057014 stress="0.0006951545749609744 -0.00012105226932164979 -0.00047264646197058653 -0.00012105226932164979 0.0015027896377886119 -0.0002813970020435826 -0.00047264646197058653 -0.0002813970020435826 0.001994592185024577" free_energy=-2927.405255057014 pbc="T T T"
Si       5.77888816       1.61401615       1.92337059       0.35817919       0.23426214       0.17462891
Si       6.69282906       5.57257876      12.88559641      -0.01820122       0.16330358       0.21377503
Si       4.73618293       3.61937626       2.59031662      -0.22039155       0.01185027       0.16234984
Si       4.03693255       1.89051519      10.75563352       0.13348871      -0.09724884      -0.30081703
Si       9.47699244       7.26711034       6.76408041       0.11352275       0.09487997      -0.10105543
Si       8.03082580       8.23087249       2.52971926       0.22197979      -0.24088671       0.20541105
Si       4.04132168       2.38840512       0.35085721      -0.23965817       0.12328521       0.03008750
Si       2.70471354       1.76165969       6.07995392       0.09458373       0.07947005      -0.21261037
Si       6.12108605       5.53343631       2.56385244      -0.45716278       0.22330589      -0.09543387
Si       5.09336670       7.44990893       1.59521927      -0.08189262       0.08523985      -0.10723653
Si       2.65556266       1.18642253       1.93302457       0.02726184      -0.17363836      -0.07954535
Si       5.83884651       4.21255562       5.55872046       0.00610066       0.02280000      -0.09933636
Si       7.74785007       4.77519998       4.16739343       0.14754929      -0.14088293       0.06078362
Si       2.98617861       4.38467205       1.10859125       0.09204394      -0.01870612      -0.14482665
Si       7.95206750       7.22568879       4.89102719       0.10716637      -0.10085457       0.04143787
Si      10.63234075       8.31988397       4.94122098      -0.03313958      -0.03007898       0.03565526
Si       6.71649070       1.99745812       8.19581113      -0.04861048      -0.09214028       0.09710969
Si       5.11608272       2.02711442       6.04554727      -0.20281989      -0.14396018       0.11962282
18
Lattice="5.193705518826679 1.5571470557276725 0.37054199884358097 4.577085824997774 8.353161384576783 -2.200435803030917 3.070101641008648 -0.6604717511524678 13.080173346602393" Properties=species:S:1:pos:R:3:forces:R:3 unique_starting_index=194 config_type=initial n_minim_iter=3 energy=-2927.418846362041 stress="2.0859415099557996e-05 -2.5257889378844262e-05 0.002120838017982022 -2.5257889378844262e-05 -0.0014785787305872978 0.0012192789703807587 0.002120838017982022 0.0012192789703807587 -0.00022168319552122275" free_energy=-2927.418846362041 pbc="T T T"
Si       5.80198303       1.62161989       1.95783640       0.33833591       0.22118780       0.14994696
Si       6.77101265       5.60850302      12.91274318       0.03669840       0.18363810       0.14363919
Si       4.75397988       3.61966706       2.62508935      -0.23692407      -0.00241536       0.15739284
Si       4.10119345       1.92562663      10.75269447       0.13694355      -0.02122796      -0.23499542
Si       9.52874563       7.27474998       6.82380851       0.01455615       0.02936981      -0.05607816
Si       8.06026814       8.21384570       2.60002548       0.24110169      -0.23250247       0.19361054
Si       4.04569529       2.38529637       0.38057721      -0.10305483       0.12393559      -0.02593543
Si       2.74213772       1.78143528       6.08269544       0.09338275       0.12631329      -0.24757314
Si       6.13764387       5.53101045       2.60944026      -0.41629293       0.18758071      -0.07284789
Si       5.10982819       7.43533737       1.64483745      -0.12942970       0.13937401      -0.12719580
Si       2.66993128       1.18854641       1.94566524      -0.02594285      -0.18222782      -0.06992589
Si       5.87695280       4.22282434       5.59014677      -0.01045043       0.00644949      -0.04862568
Si       7.78348808       4.77664633       4.21700430       0.13034286      -0.14832722       0.07891711
Si       2.99845304       4.37590791       1.13641271       0.04430393      -0.07574245      -0.11073514
Si       7.99191738       7.22267774       4.94868709       0.11115624      -0.12095798       0.12438168
Si      10.67414047       8.31546729       5.01708330       0.03916248       0.03179597      -0.01981504
Si       6.76798834       2.02362326       8.21987155      -0.06231067      -0.10943011       0.10611134
Si       5.15214778       2.04363645       6.06681762      -0.20157849      -0.15681340       0.05972792
18
Lattice="5.227827123126418 1.5764409153100907 0.3548153693518737 4.628368506112512 8.406616079781994 -2.1853027314369555 3.0459583890379722 -0.6360282127146165 12.984831262519489" Properties=species:S:1:pos:R:3:forces:R:3 unique_starting_index=194 config_type=initial n_minim_iter=4 energy=-2927.4769990603268 stress="0.0028134843986590548 0.0005473815605627176 -9.50578629303827e-05 0.0005473815605627176 0.001992558283197136 0.0008465699647442423 -9.50578629303827e-05 0.0008465699647442423 -0.003759487756112044" free_energy=-2927.4769990603268 pbc="T T T"
Si       5.86782378       1.66616780       1.94597546      -0.01300784       0.33137007       0.11979810
Si       6.78283215       5.69095816      12.83519721       0.04338096       0.04147156       0.08286533
Si       4.76145310       3.65496268       2.61519463      -0.06185822       0.06835759       0.16045261
Si       4.10798497       1.95660954      10.64751586      -0.07295380       0.09346234       0.12549080
Si       9.58759542       7.35423400       6.75713219       0.15564658      -0.05080248       0.08986382
Si       8.13820709       8.25941920       2.59107613       0.19344124      -0.16437474       0.15356360
Si       4.05618742       2.41819649       0.36983046       0.02818940      -0.01279516      -0.00626273
Si       2.75178192       1.81651106       6.01791926      -0.05411590      -0.02914236      -0.32582844
Si       6.13649456       5.59846155       2.57538011       0.03986876      -0.01166935      -0.01616757
Si       5.14202571       7.50024702       1.62087266      -0.20030869       0.19167210      -0.06351343
Si       2.68375162       1.18768140       1.92023628       0.19100414      -0.01695524      -0.09980984
Si       5.90321417       4.26976585       5.53531684      -0.14329772      -0.22702975      -0.03384884
Si       7.84136076       4.81270803       4.18055843      -0.03200987      -0.07964987      -0.01017432
Si       3.02780401       4.40621960       1.11629985      -0.24146908       0.03722549      -0.00621426
Si       8.04934518       7.27776969       4.91013150      -0.10671283      -0.22364087       0.04273008
Si      10.73890434       8.39023041       4.96773705       0.19983925       0.11242403      -0.01460683
Si       6.78226444       2.05391420       8.15907889       0.01721729      -0.13749500      -0.08467233
Si       5.14982439       2.06251191       6.02431549       0.05714634       0.07757165      -0.11366576
18
Lattice="5.201353286234508 1.5670651577816306 0.3521912924419861 4.601381640499381 8.377303085367602 -2.211094005173865 3.0258622152065184 -0.6526237690069916 13.057279704296388" Properties=species:S:1:pos:R:3:forces:R:3 unique_starting_index=194 config_type=initial n_minim_iter=5 energy=-2927.4923469460764 stress="-0.0009587548277693864 1.8850976100039494e-05 -8.196388104364677e-05 1.8850976100039494e-05 -0.0004569790337113862 0.00033519330502154693 -8.196388104364677e-05 0.00033519330502154693 0.00017897899219344" free_energy=-2927.4923469460764 pbc="T T T"
Si       5.84593594       1.66104553       1.95661354      -0.19892729       0.19772095       0.06466591
Si       6.74087521       5.65424790      12.90135028       0.06973002       0.03149865       0.11634723
Si       4.72923957       3.63634654       2.62748438      -0.04739688       0.03769842       0.09107806
Si       4.08487536       1.93213593      10.69653713      -0.11590903       0.20051688       0.26465140
Si       9.53612660       7.31545532       6.77949282       0.11908043      -0.12353599       0.00672111
Si       8.09850320       8.21568530       2.59612930       0.15569293      -0.19235456       0.19591642
Si       4.03025878       2.40942435       0.36671283       0.08800453      -0.12291303       0.05134324
Si       2.73657421       1.80280628       6.04120405      -0.12631712      -0.05396137      -0.21084101
Si       6.09144255       5.57666606       2.57721374       0.13394137      -0.04083056      -0.01799096
Si       5.10833506       7.47209935       1.61432736      -0.16647017       0.24346376      -0.08472757
Si       2.67038377       1.17506615       1.92593794       0.27162090       0.10927805      -0.14274733
Si       5.86858830       4.24329367       5.55561209      -0.12036637      -0.20844702      -0.03838370
Si       7.80183290       4.78159184       4.19547016      -0.06858019      -0.06405631      -0.05981814
Si       3.01016382       4.38700349       1.11219495      -0.28992727       0.05167015      -0.04763017
Si       8.00545728       7.23715759       4.92567850      -0.05043393      -0.16190010       0.04722550
Si      10.67983611       8.34766222       4.97956794       0.14316665       0.07742399      -0.00950444
Si       6.74319250       2.02896959       8.20110432       0.07780127      -0.08430735      -0.13425492
Si       5.11629568       2.04116966       6.05482334       0.12529014       0.10303543      -0.09205065
18
Lattice="5.23602340668163 1.5557523927853463 0.3524192421204325 4.6182215570777885 8.372769285075304 -2.262273649966969 3.075932848597548 -0.7490443429522986 13.073300002860488" Properties=species:S:1:pos:R:3:forces:R:3 unique_starting_index=194 config_type=initial n_minim_iter=6 energy=-2927.515472810039 stress="0.002513350532621558 -0.0008122153996371494 0.0008825901903956647 -0.0008122153996371494 -0.001336431444866171 -0.0033088813350654177 0.0008825901903956647 -0.0033088813350654177 0.00033128903934191283" free_energy=-2927.515472810039 pbc="T T T"
Si       5.89235395       1.65469306       1.96715035      -0.21417504       0.21615688       0.11029634
Si       6.81178087       5.55002978      12.89125567       0.01173502      -0.02784589       0.10871001
Si       4.75358752       3.60764466       2.62260225      -0.13474990       0.13063001       0.02229175
Si       4.13337307       1.85284764      10.69695991      -0.08918292       0.17790793       0.26822912
Si       9.61653761       7.24006715       6.74849710       0.04211022      -0.02571753      -0.09474057
Si       8.16504265       8.15644237       2.57078495       0.17667136      -0.17733941       0.22742569
Si       4.05281791       2.39688728       0.36041080       0.14927406      -0.09176335       0.01050252
Si       2.76408064       1.75362510       6.01868425      -0.11224091      -0.02978360      -0.17175023
Si       6.12297021       5.54632626       2.54742591       0.17752058       0.05901462      -0.04186684
Si       5.12714613       7.45496747       1.56457217      -0.05960276      -0.01634676      -0.12379473
Si       2.70407331       1.15440832       1.91550244       0.26942577       0.06442478      -0.12467906
Si       5.91015494       4.17981222       5.53506909      -0.02128161      -0.19899945      -0.07894898
Si       7.86094975       4.72593919       4.17941814      -0.16233099      -0.10414142      -0.07290418
Si       3.01728486       4.36891863       1.08132561      -0.26734483       0.02113910       0.05095014
Si       8.06344535       7.16789741       4.89662859       0.01132047      -0.10769935       0.03570526
Si      10.76068740       8.28740135       4.94472449       0.07832917      -0.00636937      -0.02988032
Si       6.80634264       1.95124220       8.20185370       0.10008459       0.00059570      -0.08699560
Si       5.16086734       1.98782499       6.05258901       0.04443769       0.11613711      -0.00855033
18
Lattice="5.238706907658827 1.5835904499914097 0.3455292985596442 4.648812390938211 8.43307120008683 -2.234729227981741 3.0387205807671704 -0.6863109821405876 13.050685728933763" Properties=species:S:1:pos:R:3:forces:R:3 unique_starting_index=194 config_type=initial n_minim_iter=7 energy=-2927.5833361555524 stress="0.0008513265987908242 -0.001397115646995824 0.0005454546416322308 -0.001397115646995824 0.0031314784367703487 -0.00034674087633391717 0.0005454546416322308 -0.00034674087633391717 0.001927644965904134" free_energy=-2927.5833361555524 pbc="T T T"
Si       5.89954698       1.74490168       1.98477781      -0.10838238       0.29648340      -0.02568850
Si       6.80237371       5.68469695      12.92072562      -0.05510708      -0.27243264       0.11110691
Si       4.72736939       3.66646994       2.65267553      -0.03920270       0.32496977      -0.06683711
Si       4.10753833       1.94499407      10.69311267      -0.06475330      -0.13687227      -0.10210867
Si       9.64368460       7.34159257       6.74417230       0.06964494       0.14590914      -0.02692102
Si       8.22603827       8.19915457       2.62986672       0.03415734      -0.06445084       0.10382950
Si       4.05184759       2.42332370       0.36624323       0.13445099       0.24259184      -0.06673653
Si       2.74528424       1.80259317       5.96231032       0.11379123      -0.29505250       0.00173559
Si       6.10785899       5.62990842       2.54298924       0.14842230       0.09044464       0.07150161
Si       5.11370447       7.56588041       1.56038213       0.08406047      -0.24965914       0.17805624
Si       2.74071187       1.17490928       1.88645783       0.00226046       0.02450043      -0.13941230
Si       5.89077910       4.22248210       5.51906503      -0.13486374      -0.08516422      -0.17957416
Si       7.86594149       4.77643374       4.17519081      -0.22404457      -0.01319941      -0.08824460
Si       2.99354687       4.41598779       1.07576730      -0.01207627      -0.01947089       0.07286118
Si       8.07355519       7.22883573       4.91501170       0.01679449      -0.08185731       0.14908539
Si      10.78985005       8.40603876       4.94980732      -0.01526295      -0.09886566       0.02225088
Si       6.79429780       2.00144324       8.17845670       0.07623760       0.16020456      -0.04898240
Si       5.14611266       2.04481785       6.04068971      -0.02612684       0.03192109       0.03407799
18
Lattice="5.25983744388889 1.6035886145208542 0.3369449936595562 4.707323466224027 8.420912021066972 -2.235016525667433 3.015784214812202 -0.6516890383303636 13.053388981507254" Properties=species:S:1:pos:R:3:forces:R:3 unique_starting_index=194 config_type=initial n_minim_iter=8 energy=-2927.59327632152 stress="0.002025535437638623 0.0009063329179920027 -0.0002164498162027827 0.0009063329179920027 0.0002346575417797477 0.00028230168846171976 -0.0002164498162027827 0.00028230168846171976 0.002202100856685711" free_energy=-2927.59327632152 pbc="T T T"
Si       5.91997621       1.78032945       1.98040640       0.03503369       0.26060795      -0.01599336
Si       6.82221289       5.71421315      12.92989260       0.00672583      -0.33025774       0.12947051
Si       4.74751551       3.68297698       2.65387170      -0.06423177       0.41473847      -0.01000118
Si       4.10423989       1.97417866      10.69605005      -0.10644442      -0.14795171      -0.12911232
Si       9.69573534       7.36968477       6.73807000       0.06830530       0.18355887      -0.02115374
Si       8.29002363       8.20347736       2.63365380       0.06479520      -0.04968802       0.03567300
Si       4.07423917       2.43547489       0.36153695       0.13654855       0.16964227      -0.08370434
Si       2.74830173       1.81504332       5.95507749       0.17434184      -0.26657664       0.02949948
Si       6.14409431       5.64481798       2.53844408       0.18269607      -0.00366612       0.08784039
Si       5.15672955       7.56876875       1.55846814       0.00620730      -0.22938528       0.15853630
Si       2.75628016       1.18611687       1.87850085      -0.10928623       0.05978486      -0.19110826
Si       5.91158445       4.23714261       5.51282167      -0.11222939      -0.06541168      -0.21656123
Si       7.90032312       4.79827096       4.16731513      -0.20096376       0.00532852      -0.09847639
Si       3.01492318       4.41580345       1.07422591      -0.01533832       0.02957589       0.05220343
Si       8.12061053       7.24112915       4.91440835       0.00581922      -0.10058586       0.18393518
Si      10.85264723       8.43395864       4.94217811      -0.04153340      -0.14368615       0.06494962
Si       6.80640546       2.03582188       8.17150567       0.07550932       0.18327993      -0.01942484
Si       5.15655470       2.07073528       6.03693051      -0.10595501       0.03069242       0.04342776
18
Lattice="5.237318087624977 1.61852117168638 0.32785785870893364 4.709166577996162 8.43798563635984 -2.214792988206338 2.977970374109819 -0.6295727348266464 12.94567364085495" Properties=species:S:1:pos:R:3:forces:R:3 unique_starting_index=194 config_type=initial n_minim_iter=9 energy=-2927.6332406373454 stress="-0.005982523510621616 0.00013337203193707485 -0.0004043680956306739 0.00013337203193707485 -0.005661957369024296 0.0002969732785034785 -0.0004043680956306739 0.0002969732785034785 -0.007944006755363614" free_energy=-2927.6332406373454 pbc="T T T"
Si       5.89177145       1.84963259       1.97192020       0.08187162       0.16232260      -0.04789088
Si       6.78719224       5.73977678      12.85144718      -0.05479936      -0.32552601      -0.03562169
Si       4.70953484       3.73309404       2.64537815       0.04739823       0.38675737       0.04472129
Si       4.06168017       2.00304233      10.60773257      -0.04759723      -0.11043650      -0.27850306
Si       9.67541341       7.41549860       6.67663583       0.03325698       0.17684486       0.15602351
Si       8.29480587       8.20217373       2.64135938      -0.06314473       0.01316385      -0.08524372
Si       4.06904347       2.45863711       0.35211809       0.16744838       0.21999931      -0.19822962
Si       2.73415124       1.81150186       5.87618876       0.13255687      -0.24134267       0.13841280
Si       6.12553194       5.67885617       2.51547210       0.07765809      -0.03904055       0.12232801
Si       5.13184357       7.59852710       1.54486425       0.10677940      -0.22211390       0.11323647
Si       2.76332491       1.19924695       1.83351369      -0.10822713      -0.02641441      -0.09998868
Si       5.86343628       4.23822969       5.44265488      -0.13052704       0.04459817      -0.23987942
Si       7.85257772       4.81256022       4.12005936      -0.12352802      -0.00466906      -0.00988487
Si       2.98439638       4.43220236       1.06235721       0.09101111       0.01396801       0.04236829
Si       8.09184505       7.24578149       4.89016550      -0.01011042      -0.11225649       0.23385177
Si      10.82300891       8.47073104       4.89860668      -0.06048564      -0.06471415       0.08119866
Si       6.77352996       2.06504410       8.09168655      -0.04770266       0.20522378      -0.03671050
Si       5.12148185       2.09727599       5.98364823      -0.09185844      -0.07636422       0.09981162
18
Lattice="5.27269741371074 1.6560088401567077 0.310735993895052 4.781888721528647 8.533565334912197 -2.2459695155473267 2.9535942165054636 -0.6444758917766645 12.9563939280475" Properties=species:S:1:pos:R:3:forces:R:3 unique_starting_index=194 config_type=initial n_minim_iter=10 energy=-2927.716702860918 stress="-0.0005914431417286573 -8.298207058979714e-05 -0.0005872590655871457 -8.298207058979714e-05 -0.0005135555763895422 -2.1171531208712774e-05 -0.0005872590655871457 -2.1171531208712774e-05 -0.0013785145297781436" free_energy=-2927.716702860918 pbc="T T T"
Si       5.92333461       1.94847173       1.96156927       0.07936245       0.09787365       0.10344204
Si       6.81326621       5.75619825      12.86554353      -0.27478934       0.06513333      -0.08736890
Si       4.73198867       3.84140791       2.63826339       0.10172505       0.20751123       0.16654375
Si       4.04583494       2.01096407      10.59697500      -0.05368870      -0.01105165      -0.03092862
Si       9.76527296       7.52931067       6.64588788       0.10052974      -0.03136401       0.09741502
Si       8.39363541       8.27806837       2.63111307      -0.07782301      -0.01876838      -0.10936943
Si       4.12544885       2.52312257       0.32552973      -0.10739509      -0.00016718      -0.05380900
Si       2.75440540       1.78735216       5.85779578      -0.09452983      -0.08231765       0.07797825
Si       6.19949975       5.75668646       2.50086618      -0.06352756      -0.04670671       0.01304732
Si       5.18505101       7.66575364       1.53173536       0.06266608      -0.10948076      -0.18636292
Si       2.78928436       1.22486195       1.79197864       0.19375350      -0.11011063      -0.05886676
Si       5.87297655       4.26748895       5.39029223      -0.03122741       0.02609109      -0.17268751
Si       7.87551346       4.87130644       4.08190704       0.07193301      -0.07358788       0.14555685
Si       3.00125080       4.48461176       1.04974284       0.29831492      -0.01251793      -0.09660464
Si       8.15571156       7.30537782       4.89298282      -0.11571799      -0.01121643       0.10590481
Si      10.91317264       8.57184660       4.86793615       0.00777391       0.24615169       0.16817816
Si       6.80873566       2.11721224       8.06834446      -0.08432319       0.03255000      -0.19601058
Si       5.13383826       2.13217948       5.97833667      -0.01303656      -0.16802179       0.11394216
18
Lattice="5.287128197948115 1.6750772712009174 0.3141778367607817 4.812213527123971 8.573437080682492 -2.2490957674589205 2.9685762020145723 -0.6482896533327331 12.963594267024773" Properties=species:S:1:pos:R:3:forces:R:3 unique_starting_index=194 config_type=initial n_minim_iter=11 energy=-2927.73015625305 stress="0.0007540463934107433 0.0005028413235272833 0.0005081568529289707 0.0005028413235272833 0.0010254142242951798 -0.0005338035125147575 0.0005081568529289707 -0.0005338035125147575 0.000208546813471705" free_energy=-2927.73015625305 pbc="T T T"
Si       5.94868052       1.99739290       1.97582850      -0.00492052       0.04646188       0.07177296
Si       6.84951918       5.77813241      12.88423966      -0.25796965       0.09477955      -0.11985150
Si       4.74385608       3.88378356       2.65187179       0.15278275       0.17250262       0.16754306
Si       4.06461349       2.01907987      10.59588274      -0.06424596       0.02750941       0.07355525
Si       9.82160363       7.57795045       6.65006767       0.05373837      -0.05220095       0.06384450
Si       8.44840734       8.30551063       2.64716705      -0.11762171       0.00259515      -0.11736947
Si       4.14038241       2.54949074       0.32459602      -0.04706401      -0.07731976      -0.04347990
Si       2.77193893       1.78547491       5.84681689      -0.14754869      -0.08710717       0.13738702
Si       6.22253632       5.79530487       2.50218465       0.01440006      -0.04807120       0.02231534
Si       5.21029313       7.70232181       1.52601494       0.06261854      -0.10090164      -0.24020641
Si       2.81090475       1.23134187       1.77933209       0.19349286      -0.08134214      -0.02990768
Si       5.89027076       4.28240299       5.37849419      -0.03133981      -0.04250714      -0.15382865
Si       7.90273020       4.89441844       4.08601243       0.06920231      -0.05017198       0.14954312
Si       3.01663988       4.50600538       1.04386875       0.26287567       0.00617338      -0.06198359
Si       8.19494888       7.33101807       4.90838281      -0.12545155       0.01129805       0.09594095
Si      10.96505193       8.62534003       4.87728188       0.03215045       0.26363097       0.13440173
Si       6.83564460       2.13651985       8.06972329      -0.07779889       0.03667651      -0.21537772
Si       5.14798434       2.14409112       5.98719387       0.03269977      -0.12200553       0.06570098
18
Lattice="5.298434640522132 1.6642426413994014 0.3064131863919352 4.813310527496836 8.555234011856774 -2.2452108776034136 2.9496559102557955 -0.6265275425223886 12.976124466723256" Properties=species:S:1:pos:R:3:forces:R:3 unique_starting_index=194 config_type=initial n_minim_iter=12 energy=-2927.7465493577115 stress="0.00279781611693975 -0.0013781087269533377 -0.00021461640286533798 -0.0013781087269533377 0.0004817465287234838 0.0008150666929238169 -0.00021461640286533798 0.0008150666929238169 0.002581904999281376" free_energy=-2927.7465493577115 pbc="T T T"
Si       5.96189906       2.01229286       1.97753708      -0.15023351       0.06033836       0.08296632
Si       6.81799093       5.78281090      12.90794764      -0.19080945       0.19345101      -0.18888663
Si       4.74196539       3.90366448       2.66512720       0.13934277      -0.04563878       0.17615477
Si       4.04261481       2.03015552      10.60299312      -0.07099060       0.03644588       0.12448155
Si       9.83004802       7.57345930       6.65678925       0.03774991      -0.16273849       0.06010118
Si       8.45555484       8.27873502       2.65584516      -0.11785401       0.02090373      -0.08367817
Si       4.14797895       2.54748730       0.31642770      -0.03612610      -0.08724189      -0.05391579
Si       2.76306227       1.77704984       5.84994672      -0.12931253      -0.06098606       0.11252148
Si       6.22265419       5.78801978       2.50674146       0.15351428       0.07748721       0.03738395
Si       5.20468129       7.68485082       1.52676697       0.02068438      -0.00065954      -0.19324058
Si       2.82431706       1.22530390       1.76519087       0.17827152      -0.07383543       0.01638841
Si       5.87702946       4.27246516       5.36497545      -0.08096155       0.00847906      -0.12251376
Si       7.90181273       4.87751505       4.08762807       0.10461677      -0.02727951       0.17379045
Si       3.01994325       4.50118760       1.04391185       0.19490266      -0.09585122      -0.00049955
Si       8.18873958       7.31124743       4.92755295      -0.12204604       0.02309783       0.02700073
Si      10.97083081       8.61689315       4.88718663       0.04230810       0.20361969       0.06038422
Si       6.83307223       2.14390558       8.06128481      -0.02110055       0.11668113      -0.18216355
Si       5.14068121       2.13929633       5.99545335       0.04804395      -0.18627297      -0.04627502
18