20
Lattice="6.894893403230043 0.9079104146392267 0.6350544394494525 2.024357117818177 5.249476784501023 1.1084755754244615 4.780510142598722 4.586290584056853 12.959572322930612" Properties=species:S:1:pos:R:3:forces:R:3 unique_starting_index=222 config_type=initial n_minim_iter=1 energy=-3258.3672275525205 stress="-0.0005339256148685928 0.0005890402916380874 -0.0004816204800041901 0.0005890402916380874 0.0004362549924849393 -0.0010793218374665946 -0.0004816204800041901 -0.0010793218374665946 0.00033267073025143975" free_energy=-3258.3672275525205 pbc="T T T"
Si       9.17321164       7.71513615       7.53948785      -0.13692187      -0.00053584       0.02147242
Si       4.52654902       3.02854164       7.16361449       0.13692187       0.00053584      -0.02147242
Si      10.42868097       6.62079637      10.16450284       0.00781079      -0.08503224       0.15831312
Si       3.27107969       4.12288141       4.53859949      -0.00781079       0.08503224      -0.15831312
Si       4.79799556       2.32266355       1.70773574       0.00767592       0.00839276      -0.03096473
Si       8.90176510       8.42101423      12.99536660      -0.00767592      -0.00839276       0.03096474
Si      12.29181282       9.78440912      12.46547527       0.02598719      -0.03406509       0.02973871
Si       1.40794785       0.95926866       2.23762707      -0.02598719       0.03406509      -0.02973871
Si       8.05060067       6.91403538       9.66084415       0.09813723       0.04860533      -0.05519732
Si       5.64916000       3.82964240       5.04225819      -0.09813723      -0.04860533       0.05519732
Si       6.54436889       3.40816593       2.87330106      -0.19170132      -0.05361511      -0.13054441
Si       7.15539177       7.33551186      11.82980128       0.19170132       0.05361511       0.13054441
Si       7.49182643       4.84656911       8.74263812       0.09379880      -0.10903635       0.03076018
Si       6.20793424       5.89710867       5.96046422      -0.09379880       0.10903635      -0.03076018
Si       3.14120128       2.11663902       3.34424317       0.16981169      -0.09194613       0.08383773
Si      10.55855938       8.62703877      11.35885916      -0.16981169       0.09194613      -0.08383773
Si       5.22673536       5.14802654       7.99792033      -0.01916170      -0.10260705       0.01801110
Si       8.47302531       5.59565125       6.70518201       0.01916170       0.10260705      -0.01801110
Si       6.62395695       5.48902920       1.69419600      -0.00978605       0.00241732      -0.07924408
Si       7.07580371       5.25464859      13.00890633       0.00978605      -0.00241732       0.07924408
20
Lattice="6.903136295529487 0.8989345664638495 0.6447871665920063 2.020847118246509 5.2440543055421225 1.1234045938247386 4.795024178661767 4.608128620525356 12.96661368985327" Properties=species:S:1:pos:R:3:forces:R:3 unique_starting_index=222 config_type=initial n_minim_iter=2 energy=-3258.3704483794077 stress="0.00029942482831697443 0.0002641017001360937 0.00023649047023260438 0.0002641017001360937 -0.0001978909657187873 0.0008747219182830653 0.00023649047023260438 0.0008747219182830653 -0.0005449125327289841" free_energy=-3258.3704483794077 pbc="T T T"
Si       9.18191968       7.71365500       7.56399769      -0.12540262       0.00391524       0.01257500
Si       4.53708791       3.03746250       7.17080776       0.12540262      -0.00391524      -0.01257500
Si      10.44438610       6.62493354      10.18637541       0.00703727      -0.03148578       0.13241026
Si       3.27462149       4.12618395       4.54843004      -0.00703727       0.03148578      -0.13241027
Si       4.80285631       2.31796807       1.71767166       0.03446609      -0.03172351      -0.02549873
Si       8.91615129       8.43314942      13.01713379      -0.03446609       0.03172351       0.02549873
Si      12.30819951       9.78886823      12.49503958       0.03203705      -0.08713115       0.02967929
Si       1.41080809       0.96224927       2.23976587      -0.03203705       0.08713115      -0.02967929
Si       8.06281594       6.92069143       9.67988913       0.10488797       0.04359763      -0.05351749
Si       5.65619165       3.83042607       5.05491632      -0.10488797      -0.04359763       0.05351749
Si       6.55009454       3.40252811       2.88651979      -0.17416381      -0.11075880      -0.11672550
Si       7.16891305       7.34858938      11.84828566       0.17416381       0.11075880       0.11672550
Si       7.50515245       4.85286408       8.75695937       0.05725378      -0.08367752       0.04083725
Si       6.21385514       5.89825341       5.97784608      -0.05725378       0.08367752      -0.04083725
Si       3.14707133       2.11809370       3.35113561       0.11574037      -0.05367434       0.08167294
Si      10.57193627       8.63302379      11.38366984      -0.11574037       0.05367434      -0.08167294
Si       5.23523261       5.15531136       8.01093157      -0.01492075      -0.11561779       0.06625022
Si       8.48377498       5.59580613       6.72387388       0.01492075       0.11561779      -0.06625022
Si       6.62658669       5.47842706       1.71408373      -0.02965773       0.04597317      -0.08535795
Si       7.09242091       5.27269043      13.02072172       0.02965773      -0.04597317       0.08535795
20
Lattice="6.902340313983082 0.8716426320259169 0.6485286898037436 2.0021002289223597 5.232584688167088 1.1217336324310319 4.7855355206715045 4.575826549769812 12.989076760451237" Properties=species:S:1:pos:R:3:forces:R:3 unique_starting_index=222 config_type=initial n_minim_iter=3 energy=-3258.37496860358 stress="0.0007902682186318644 -0.0023105658809662592 -0.0005846362301640349 -0.0023105658809662592 -0.0009983471981987672 -0.00047297987641052 -0.0005846362301640349 -0.00047297987641052 0.0007716219795372372" free_energy=-3258.37496860358 pbc="T T T"
Si       9.15626046       7.66795065       7.57601641      -0.13024188       0.09049204       0.01670795
Si       4.53371561       3.01210322       7.18332268       0.13024189      -0.09049204      -0.01670796
Si      10.42790473       6.57133492      10.20793951       0.01160614      -0.06068655       0.09550913
Si       3.26207134       4.10871895       4.55139957      -0.01160614       0.06068655      -0.09550913
Si       4.79705538       2.29656465       1.72045809      -0.02726539      -0.01880368      -0.07835720
Si       8.89292068       8.38348922      13.03888099       0.02726539       0.01880368       0.07835720
Si      12.28196574       9.72411561      12.51626636       0.07761127      -0.09172973       0.04261456
Si       1.40801033       0.95593826       2.24307272      -0.07761127       0.09172973      -0.04261456
Si       8.04640242       6.87875860       9.69439015       0.10401026       0.07101037      -0.01393227
Si       5.64357364       3.80129527       5.06494893      -0.10401026      -0.07101037       0.01393227
Si       6.53643255       3.37116334       2.88908700      -0.07407390      -0.08350832      -0.05567716
Si       7.15354351       7.30889053      11.87025209       0.07407390       0.08350832       0.05567716
Si       7.49527116       4.81166824       8.77349521       0.02755518      -0.08631372       0.00706393
Si       6.19470490       5.86838563       5.98584387      -0.02755518       0.08631372      -0.00706393
Si       3.14502246       2.10034736       3.35899799       0.10310045      -0.06154890       0.07620049
Si      10.54495361       8.57970651      11.40034110      -0.10310045       0.06154890      -0.07620049
Si       5.22095570       5.12287056       8.02492880       0.00434476      -0.04747880       0.09620351
Si       8.46902037       5.55718331       6.73441028      -0.00434476       0.04747880      -0.09620351
Si       6.60825264       5.44947469       1.71356381      -0.04834282       0.01338414      -0.08739945
Si       7.08172343       5.23057918      13.04577528       0.04834282      -0.01338414       0.08739945
20
Lattice="6.883133977962981 0.885779975857639 0.6772237652917024 2.008226469973344 5.255207754049845 1.1286014993680564 4.829995598245533 4.593591631815659 13.02406776105144" Properties=species:S:1:pos:R:3:forces:R:3 unique_starting_index=222 config_type=initial n_minim_iter=4 energy=-3258.3856570491607 stress="-0.0011526607619126467 -0.00031207293716101734 0.0016453852510346933 -0.00031207293716101734 0.002392819539008412 0.00013048770436527966 0.0016453852510346933 0.00013048770436527966 0.00029354475708898685" free_energy=-3258.3856570491607 pbc="T T T"
Si       9.15863989       7.70908863       7.62093714      -0.10669251       0.07387157      -0.02906414
Si       4.56271616       3.02549073       7.20895589       0.10669251      -0.07387157       0.02906414
Si      10.44579593       6.60335817      10.27152476       0.00971378      -0.04683907       0.12741926
Si       3.27556012       4.13122119       4.55836826      -0.00971378       0.04683907      -0.12741926
Si       4.79278698       2.31084016       1.73844790      -0.02983096      -0.05431949      -0.20922487
Si       8.92856906       8.42373920      13.09144512       0.02983096       0.05431949       0.20922488
Si      12.31030086       9.76853795      12.58094638       0.00254095      -0.07421997      -0.07134840
Si       1.41105519       0.96604142       2.24894665      -0.00254095       0.07421997       0.07134840
Si       8.07783533       6.91630549       9.73331938       0.04904237      -0.07736410       0.01866015
Si       5.64352071       3.81827387       5.09657364      -0.04904237       0.07736410      -0.01866015
Si       6.51899816       3.38625173       2.90930032       0.00227091       0.04418404      -0.02436329
Si       7.20235789       7.34832763      11.92059270      -0.00227091      -0.04418404       0.02436329
Si       7.51866398       4.83001183       8.81613638       0.00111166       0.11621816      -0.07028515
Si       6.20269206       5.90456753       6.01375665      -0.00111166      -0.11621816       0.07028515
Si       3.16171783       2.10630288       3.38170415      -0.11737281      -0.01017315       0.02994159
Si      10.55963821       8.62827648      11.44818887       0.11737281       0.01017315      -0.02994159
Si       5.24347693       5.13858003       8.05881550       0.05638250      -0.05517980       0.02562750
Si       8.47787911       5.59599933       6.77107753      -0.05638250       0.05517980      -0.02562750
Si       6.59956450       5.48208099       1.73352898      -0.00601476      -0.05407410       0.05568035
Si       7.12179154       5.25249837      13.09636405       0.00601476       0.05407410      -0.05568035
20
Lattice="6.890237885621559 0.894003575837921 0.6651025197067408 2.0165947792451444 5.24343055758662 1.1240481534646518 4.819916646162905 4.586815561501076 13.008691643052181" Properties=species:S:1:pos:R:3:forces:R:3 unique_starting_index=222 config_type=initial n_minim_iter=5 energy=-3258.3895382111655 stress="-0.0012984452158570385 0.00040302432925757523 0.00015745357121371416 0.00040302432925757523 -0.0006058147642556693 0.00026344915555014163 0.00015745357121371416 0.00026344915555014163 -3.6262434219658954e-05" free_energy=-3258.3895382111655 pbc="T T T"
Si       9.16469227       7.70150769       7.60075962      -0.06774236       0.07646828      -0.01621194
Si       4.56205704       3.02274200       7.19708270       0.06774235      -0.07646828       0.01621194
Si      10.44933263       6.59907108      10.25021213       0.03208263      -0.06030629       0.07936276
Si       3.27741668       4.12517861       4.54763019      -0.03208263       0.06030629      -0.07936276
Si       4.79831102       2.31120476       1.72779685      -0.05751989      -0.06740537      -0.13811191
Si       8.92843829       8.41304494      13.07004547       0.05751989       0.06740537       0.13811191
Si      12.31717176       9.75764524      12.55272971      -0.04019115      -0.07228132      -0.05486859
Si       1.40957755       0.96660445       2.24511260       0.04019115       0.07228132       0.05486859
Si       8.08189889       6.90884784       9.71330497       0.04771920      -0.06712716       0.05450533
Si       5.64485042       3.81540185       5.08453734      -0.04771920       0.06712716      -0.05450533
Si       6.52363707       3.38555414       2.89472945      -0.01134844       0.06350584       0.00609378
Si       7.20311224       7.33869556      11.90311287       0.01134844      -0.06350584      -0.00609378
Si       7.51968071       4.82638510       8.79849324      -0.02532642       0.14720191      -0.13285617
Si       6.20706860       5.89786459       5.99934908       0.02532642      -0.14720191       0.13285617
Si       3.16384198       2.10396345       3.37565646      -0.12753178       0.01360125      -0.07807898
Si      10.56290733       8.62028624      11.42218585       0.12753178      -0.01360125       0.07807898
Si       5.24316704       5.12985706       8.04615134       0.05599325      -0.00758717       0.03148575
Si       8.48358227       5.59439264       6.75169097      -0.05599325       0.00758717      -0.03148575
Si       6.61141728       5.47694798       1.71987089       0.00328420      -0.07060470       0.03586540
Si       7.11533204       5.24730172      13.07797143      -0.00328420       0.07060470      -0.03586540
20
Lattice="6.911572944079533 0.8971462132096724 0.6595154884202993 2.0240817438416654 5.248130843324851 1.1202762413606464 4.827162744968421 4.587962252685621 12.997665507691476" Properties=species:S:1:pos:R:3:forces:R:3 unique_starting_index=222 config_type=initial n_minim_iter=6 energy=-3258.391429570102 stress="0.001267257375580202 0.0005178896595968974 -7.425133142126652e-05 0.0005178896595968974 0.00047019704347710706 0.00015923435766001897 -7.425133142126652e-05 0.00015923435766001897 0.0007679406974869196" free_energy=-3258.391429570102 pbc="T T T"
Si       9.18982044       7.70939250       7.58792183      -0.08410587       0.06763064      -0.01414384
Si       4.57299700       3.02384681       7.18953541       0.08410587      -0.06763064       0.01414384
Si      10.47715560       6.60443217      10.23658440       0.03294430      -0.06714889       0.05132212
Si       3.28566183       4.12880713       4.54087284      -0.03294430       0.06714889      -0.05132213
Si       4.81250709       2.31386418       1.72157371      -0.06671477      -0.06302280      -0.08955964
Si       8.95031035       8.41937513      13.05588353       0.06671477       0.06302280       0.08955964
Si      12.35003762       9.76538199      12.53442061      -0.03325333      -0.08633659      -0.05461736
Si       1.41277982       0.96785731       2.24303663       0.03325333       0.08633659       0.05461736
Si       8.10321621       6.91396437       9.70089804       0.06128753      -0.06719188       0.04629017
Si       5.65960122       3.81927494       5.07655920      -0.06128753       0.06719188      -0.04629017
Si       6.54279428       3.39004781       2.88732497      -0.01269328       0.04009571      -0.00289676
Si       7.22002316       7.34319150      11.89013227       0.01269328      -0.04009571       0.00289676
Si       7.53849291       4.83095219       8.78657838      -0.02246592       0.14240105      -0.13111945
Si       6.22432452       5.90228712       5.99087885       0.02246592      -0.14240105       0.13111945
Si       3.17147582       2.10564802       3.37087960      -0.09644626       0.00843701      -0.10297525
Si      10.59134162       8.62759128      11.40657764       0.09644626      -0.00843701       0.10297525
Si       5.25596072       5.13303051       8.03730459       0.05665360      -0.01110250       0.04264123
Si       8.50685671       5.60020880       6.74015265      -0.05665360       0.01110250      -0.04264123
Si       6.63280411       5.48297501       1.71248327      -0.02272397      -0.07303231       0.02247175
Si       7.13001332       5.25026430      13.06497397       0.02272397       0.07303231      -0.02247175
20
Lattice="6.91529573616966 0.8910104949209474 0.6512506219360492 2.0203594044353452 5.246631607916629 1.1095556678195773 4.817580673102484 4.5730865910638645 12.93801811047859" Properties=species:S:1:pos:R:3:forces:R:3 unique_starting_index=222 config_type=initial n_minim_iter=7 energy=-3258.3948884446436 stress="0.0007086299861085061 -0.00029516725043392966 -0.00017942249938859102 -0.00029516725043392966 -0.0003637035017885434 -0.0006854863121850919 -0.00017942249938859102 -0.0006854863121850919 -0.0018533790667969226" free_energy=-3258.3948884446436 pbc="T T T"
Si       9.18257392       7.69839388       7.54373448      -0.06494768       0.08316114      -0.00918217
Si       4.57066190       3.01233481       7.15508992       0.06494768      -0.08316114       0.00918217
Si      10.47259547       6.58635268      10.18397138       0.03711747      -0.06572742       0.04636049
Si       3.28064034       4.12437602       4.51485302      -0.03711747       0.06572742      -0.04636049
Si       4.81140840       2.30741281       1.70636083      -0.05062238      -0.05413871      -0.04655972
Si       8.94182742       8.40331588      12.99246357       0.05062238       0.05413871       0.04655972
Si      12.34131943       9.74398388      12.46554807       0.02712783      -0.08781916      -0.05022339
Si       1.41191638       0.96674482       2.23327633      -0.02712783       0.08781916       0.05022339
Si       8.09779154       6.89864917       9.65106779       0.07817117      -0.04685298       0.03586682
Si       5.65544427       3.81207952       5.04775661      -0.07817117       0.04685298      -0.03586682
Si       6.54221086       3.38368634       2.86797609       0.01132565       0.00955396      -0.01752765
Si       7.21102495       7.32704236      11.83084831      -0.01132565      -0.00955396       0.01752765
Si       7.53318972       4.82059168       8.73896897      -0.01002004       0.05947005      -0.07355405
Si       6.22004609       5.89013702       5.95985543       0.01002004      -0.05947005       0.07355405
Si       3.16741361       2.10045720       3.35167601      -0.03915824       0.00172670      -0.05701023
Si      10.58582220       8.61027150      11.34714839       0.03915824      -0.00172670       0.05701023
Si       5.25098134       5.12211040       7.99774171       0.03893149      -0.01235070       0.07843281
Si       8.50225448       5.58861830       6.70108269      -0.03893149       0.01235070      -0.07843281
Si       6.63146091       5.47566007       1.69643760      -0.03298276      -0.07251980       0.02940070
Si       7.12177490       5.23506863      13.00238680       0.03298276       0.07251980      -0.02940070
20
Lattice="6.901327660480404 0.8860009326921949 0.6450432818420501 2.0101952103354885 5.250284341060684 1.1179172209531438 4.786928548869322 4.59130099025016 12.97677349341467" Properties=species:S:1:pos:R:3:forces:R:3 unique_starting_index=222 config_type=initial n_minim_iter=8 energy=-3258.4009205801954 stress="-0.0004140872271684682 -0.0009664860052027977 -0.002080144609712921 -0.0009664860052027977 2.670864344865764e-05 0.000598529138824638 -0.002080144609712921 0.000598529138824638 0.0006284005410072546" free_energy=-3258.4009205801954 pbc="T T T"
Si       9.14146196       7.71189859       7.56447761      -0.06522095       0.04498536      -0.02544692
Si       4.55698946       3.01568768       7.17525639       0.06522095      -0.04498536       0.02544692
Si      10.43592723       6.59160188      10.21624511       0.09313528      -0.00698673       0.03901956
Si       3.26252419       4.13598439       4.52348889      -0.09313528       0.00698673      -0.03901957
Si       4.79496753       2.30302232       1.70083330      -0.04175622      -0.05760689       0.06157159
Si       8.90348389       8.42456394      13.03890070       0.04175621       0.05760689      -0.06157159
Si      12.29279715       9.75182981      12.49755728       0.06157058      -0.04196794       0.05998482
Si       1.40565427       0.97575646       2.24217671      -0.06157058       0.04196794      -0.05998483
Si       8.06917339       6.90764956       9.68098336       0.05417295      -0.03351077       0.08079462
Si       5.62927803       3.81993671       5.05875063      -0.05417295       0.03351077      -0.08079462
Si       6.52043295       3.38520956       2.87043503      -0.01287693      -0.01565450       0.03924036
Si       7.17801847       7.34237670      11.86929896       0.01287693       0.01565450      -0.03924036
Si       7.50313613       4.83580528       8.75546743       0.08081902      -0.02277311       0.02912545
Si       6.19531529       5.89178098       5.98426656      -0.08081902       0.02277311      -0.02912545
Si       3.15170616       2.10319157       3.35757230       0.08599093       0.05375805       0.02815505
Si      10.54674526       8.62439469      11.38216170      -0.08599093      -0.05375805      -0.02815505
Si       5.22884492       5.13039663       8.02596958      -0.06142359      -0.02058164       0.06620241
Si       8.46960650       5.59718963       6.71376442       0.06142359       0.02058164      -0.06620241
Si       6.61070634       5.47204385       1.70092506       0.02700877      -0.05938113      -0.03605713
Si       7.08774508       5.25554241      13.03880894      -0.02700877       0.05938113       0.03605713
20
Lattice="6.909865538093158 0.886339483254125 0.6694041031974105 2.0183950823316334 5.237356501573128 1.1199081981021164 4.838964295326024 4.564452147037081 13.014044860885356" Properties=species:S:1:pos:R:3:forces:R:3 unique_starting_index=222 config_type=initial n_minim_iter=9 energy=-3258.406668175566 stress="0.00040817840689975725 -0.0005338179505260673 -0.0001886427084039424 -0.0005338179505260673 -0.0019681997096038122 -0.0003852397006516725 -0.0001886427084039424 -0.0003852397006516725 0.0009917414623088728" free_energy=-3258.406668175566 pbc="T T T"
Si       9.17148336       7.69184203       7.60098992      -0.05188612       0.07157624      -0.04488219
Si       4.59574155       2.99630610       7.20236724       0.05188612      -0.07157624       0.04488219
Si      10.48636351       6.56212582      10.27259375       0.05232662      -0.00664781       0.00638144
Si       3.28086141       4.12602231       4.53076341      -0.05232661       0.00664781      -0.00638144
Si       4.80377112       2.29381990       1.71206294       0.02152771       0.00543187       0.10499521
Si       8.96345379       8.39432823      13.09129423      -0.02152770      -0.00543187      -0.10499521
Si      12.35290627       9.71100227      12.55179394       0.02957194      -0.03196591       0.06496208
Si       1.41431865       0.97714586       2.25156322      -0.02957194       0.03196591      -0.06496208
Si       8.11982965       6.87997625       9.72079454       0.08227543      -0.00958495       0.10662970
Si       5.64739526       3.80817188       5.08256262      -0.08227543       0.00958496      -0.10662970
Si       6.53230628       3.37542975       2.89101979      -0.04300856      -0.03284197       0.03357986
Si       7.23491864       7.31271838      11.91233738       0.04300856       0.03284197      -0.03357986
Si       7.54445733       4.81815246       8.78937042       0.09794848      -0.09718648       0.06979392
Si       6.22276759       5.86999567       6.01398674      -0.09794848       0.09718648      -0.06979392
Si       3.16753507       2.09356176       3.37241247       0.07324410      -0.00105531       0.06255587
Si      10.59968985       8.59458637      11.43094469      -0.07324410       0.00105531      -0.06255587
Si       5.26567098       5.10549047       8.05805464      -0.02999448       0.00700049       0.05979514
Si       8.50155394       5.58265766       6.74530253       0.02999448      -0.00700049      -0.05979514
Si       6.62368232       5.45719517       1.71865134       0.00551700      -0.07693909      -0.07225022
Si       7.14354259       5.23095296      13.08470582      -0.00551700       0.07693909       0.07225022
20
Lattice="6.911444320641515 0.8907657701534634 0.6760339562715008 2.0214193342941265 5.253579034234484 1.1170741716957004 4.856159471734405 4.571460771351168 12.996480339827096" Properties=species:S:1:pos:R:3:forces:R:3 unique_starting_index=222 config_type=initial n_minim_iter=10 energy=-3258.4139909592327 stress="5.067996915082506e-05 0.000137824097892645 0.00031805373411464814 0.000137824097892645 -0.00012400553708555797 -5.763969999898495e-05 0.00031805373411464814 -5.763969999898495e-05 -0.00017142083848925186" free_energy=-3258.4139909592327 pbc="T T T"
Si       9.16982737       7.71961381       7.59411981      -0.02271430       0.05193122      -0.07436256
Si       4.61919575       2.99619177       7.19546866       0.02271430      -0.05193122       0.07436256
Si      10.50481447       6.57227889      10.27774901       0.06394462       0.00604957      -0.00536878
Si       3.28420866       4.14352668       4.51183946      -0.06394462      -0.00604957       0.00536878
Si       4.80529192       2.29678795       1.70707663       0.01414096      -0.01335489       0.09558559
Si       8.98373121       8.41901763      13.08251184      -0.01414096       0.01335490      -0.09558559
Si      12.37398868       9.72738266      12.54074931       0.02712456      -0.01613299       0.01779281
Si       1.41503445       0.98842292       2.24883916      -0.02712456       0.01613299      -0.01779281
Si       8.14514313       6.89655864       9.71189314       0.05856363      -0.08685060       0.12553861
Si       5.64388000       3.81924694       5.07769533      -0.05856363       0.08685059      -0.12553861
Si       6.52562679       3.38211770       2.88504473       0.02808622       0.00505595       0.06325869
Si       7.26339634       7.33368788      11.90454374      -0.02808622      -0.00505595      -0.06325869
Si       7.56228386       4.82849890       8.77934342       0.09183668      -0.02929419       0.05803064
Si       6.22673927       5.88730667       6.01024505      -0.09183668       0.02929419      -0.05803064
Si       3.17732326       2.09511087       3.37292102      -0.00200522       0.05185636       0.03724002
Si      10.61169987       8.62069471      11.41666745       0.00200522      -0.05185637      -0.03724002
Si       5.27825159       5.10995603       8.05526905      -0.01508917      -0.00312297       0.03474665
Si       8.51077154       5.60584955       6.73431941       0.01508917       0.00312297      -0.03474665
Si       6.62580938       5.47172568       1.71560962       0.01692701      -0.09387879       0.00288131
Si       7.16321375       5.24407990      13.07397884      -0.01692701       0.09387879      -0.00288131
20
Lattice="6.90990555616301 0.8891081182640929 0.6801766146891606 2.0176990105113966 5.276381825291194 1.1134895438338837 4.861479152396273 4.578553490480482 12.98956808873132" Properties=species:S:1:pos:R:3:forces:R:3 unique_starting_index=222 config_type=initial n_minim_iter=11 energy=-3258.4230973248677 stress="-0.000543516171400073 0.0004909330004882332 0.00032519631385984516 0.0004909330004882332 0.001661885645216697 0.00039739914683923906 0.00032519631385984516 0.00039739914683923906 -0.00048666069352325844" free_energy=-3258.4230973248677 pbc="T T T"
Si       9.13720096       7.76225596       7.58260214      -0.01194397      -0.00511843      -0.10916896
Si       4.65188276       2.98178747       7.20063210       0.01194397       0.00511843       0.10916896
Si      10.51882259       6.57202761      10.30127716       0.07690258      -0.00547284      -0.00136609
Si       3.27026113       4.17201583       4.48195708      -0.07690258       0.00547284       0.00136609
Si       4.79835516       2.28985589       1.69767973      -0.00389781       0.00788791       0.06203837
Si       8.99072856       8.45418755      13.08555451       0.00389781      -0.00788791      -0.06203837
Si      12.37928515       9.73165361      12.53473859       0.02437267       0.05600816       0.00111960
Si       1.40979857       1.01238982       2.24849566      -0.02437267      -0.05600816      -0.00111960
Si       8.17293427       6.90354601       9.72144602       0.02049845      -0.12469055       0.09215334
Si       5.61614945       3.84049742       5.06178823      -0.02049845       0.12469055      -0.09215334
Si       6.50557217       3.38662020       2.87817934       0.08891755       0.01250873       0.09535073
Si       7.28351155       7.35742323      11.90505490      -0.08891755      -0.01250873      -0.09535073
Si       7.57931736       4.84080906       8.77093063       0.07832720      -0.00170530       0.04700336
Si       6.20976636       5.90323437       6.01230361      -0.07832720       0.00170530      -0.04700337
Si       3.18171646       2.09806970       3.37668508      -0.06038015       0.11541808       0.02097800
Si      10.60736726       8.64597373      11.40654917       0.06038015      -0.11541808      -0.02097800
Si       5.28247946       5.10892592       8.06834508       0.03142496      -0.04772966      -0.05056810
Si       8.50660425       5.63511751       6.71488917      -0.03142496       0.04772966       0.05056810
Si       6.61870591       5.47443533       1.70857713       0.03876634      -0.00894601       0.07833505
Si       7.17037781       5.26960810      13.07465712      -0.03876634       0.00894601      -0.07833505
20
Lattice="6.911880222514948 0.8806002313239041 0.66841939414298 2.0110162574926984 5.269820807752237 1.1108701919460047 4.836241706265534 4.570084452670002 12.98917497164025" Properties=species:S:1:pos:R:3:forces:R:3 unique_starting_index=222 config_type=initial n_minim_iter=12 energy=-3258.433656270408 stress="0.00029991286141176055 -8.439920135205767e-05 -0.00026882902611347363 -8.439920135205767e-05 0.0002473524335338938 -0.00022506469830458665 -0.00026882902611347363 -0.00022506469830458665 0.00020447614710406456" free_energy=-3258.433656270408 pbc="T T T"
Si       9.11529065       7.75409856       7.56102489      -0.08963708       0.00296318      -0.06944530