22
Lattice="10.61883194584804 0.38314594757934683 -0.20793514678748082 -4.123171491351823 9.793153198240743 0.2079351467874968 -3.423101437092129 -4.976271742838293 8.744639834171888" Properties=species:S:1:pos:R:3:forces:R:3 unique_starting_index=6 config_type=initial n_minim_iter=1 energy=-3572.5470014317953 stress="0.0003654406104469609 2.1896731129200204e-05 4.069689310557355e-05 2.1896731129200204e-05 0.0003857677246408826 -2.597733736118469e-05 4.069689310557355e-05 -2.597733736118469e-05 0.00035146363954227135" free_energy=-3572.5470014317953 pbc="T T T"
Si      -3.01399124       5.79851415       7.82062465       0.01470239       0.02279248      -0.01730502
Si       2.27074879       1.83845509       5.45333202      -0.00000653      -0.03217303      -0.00012953
Si       7.63013299       4.10294834      -0.30449685      -0.03004842       0.00477209      -0.01046137
Si      -0.73912690      -1.33901649       4.52150804       0.01535256       0.00460846       0.02789591
Si       7.90803143      -1.75989372       3.08421676      -0.02917989      -0.01355130       0.00012953
Si      -1.01702534       4.52382556       1.13279443       0.01448403       0.02293186       0.01730502
Si       2.16993291       3.96537452       4.22397589      -0.00228357       0.01586582      -0.02789591
Si      -2.91317536       3.67159472       9.04998078       0.01697943      -0.02524638       0.01046137
Si      -0.43213650       6.83584659       2.08030257       0.01851984      -0.00271906       0.00941980
Si       1.76830656       6.63508804       4.04310926      -0.01206828      -0.00139905      -0.01707365
Si       1.61140333       4.48677377       1.77418093       0.00228069       0.02076906      -0.00159839
Si       2.50012021       7.21261763       1.05667042      -0.00873225      -0.01665095       0.00925224
Si       1.85153589      -0.57931898       4.70237467       0.00381193      -0.01153559       0.01707365
Si       2.96005770      -2.49071456       6.66518136      -0.01026349       0.01565370      -0.00941980
Si       2.06728005       0.32762429       7.68881351      -0.01142687      -0.01493094      -0.00925224
Si      -0.03103993      -1.62611461       6.97130300       0.01787842       0.01081283       0.00159839
Si      -1.48153784       1.93383553       1.11298386       0.00429434      -0.00178698      -0.00571866
Si       3.56315172       3.89999220       6.45531612      -0.00525308       0.00239896       0.00458125
Si      -1.38500045      -0.10282037       2.29016781       0.00438762      -0.00375482      -0.00458125
Si      -5.16768172       4.28674779       7.84043522      -0.00342888       0.00314285       0.00571866
Si       3.24849163       5.08836114       0.00042205      -0.00000000       0.00000000       0.00000000
Si       3.59852666      -2.29635133       4.26877439      -0.00000000      -0.00000000      -0.00000000
22
Lattice="10.617639237273938 0.3830273946789344 -0.20804244563891622 -4.122776874926929 9.792021435717006 0.20804244563893226 -3.4227928350791847 -4.975588853537721 8.743698267085998" Properties=species:S:1:pos:R:3:forces:R:3 unique_starting_index=6 config_type=initial n_minim_iter=2 energy=-3572.5470621633144 stress="-8.988771901901146e-07 -1.64654266562391e-05 -3.060236483931276e-05 -1.64654266562391e-05 -1.6184025463509613e-05 1.9533877372401355e-05 -3.060236483931276e-05 1.9533877372401355e-05 9.611221571619313e-06" free_energy=-3572.5470621633144 pbc="T T T"
Si      -3.01378465       5.79791694       7.81985804       0.01260714       0.01360037      -0.01446033
Si       2.27041315       1.83825465       5.45272915       0.00237106      -0.02316115      -0.00330916
Si       7.62924215       4.10240966      -0.30453012      -0.02260752       0.00507616      -0.00401796
Si      -0.73908631      -1.33881512       4.52102744       0.00762932       0.00448461       0.02178746
Si       7.90710673      -1.75971816       3.08377066      -0.02200665      -0.00760055       0.00330916
Si      -1.01695089       4.52331270       1.13272666       0.00702844       0.01716133       0.01446033
Si       2.16960890       3.96492875       4.22351482       0.00085571       0.00880829      -0.02178746
Si      -2.91298039       3.67124283       9.04907238       0.01412249      -0.01836907       0.00401796
Si      -0.43215382       6.83505468       2.08014096       0.01361916       0.00227106       0.00988456
Si       1.76800870       6.63432123       4.04269767      -0.01330448      -0.00247192      -0.01025788
Si       1.61117071       4.48625202       1.77400440       0.00199741       0.01562214      -0.00634844
Si       2.49977472       7.21174850       1.05658567      -0.00231208      -0.01542128       0.00672176
Si       1.85127427      -0.57922905       4.70184460       0.00335924      -0.01310859       0.01025788
Si       2.95965519      -2.49038073       6.66440130      -0.00367392       0.01330945      -0.00988456
Si       2.06694567       0.32762795       7.68795659      -0.01301449      -0.00858980      -0.00672176
Si      -0.03110674      -1.62586233       6.97053786       0.01332917       0.00838894       0.00634844
Si      -1.48139694       1.93362450       1.11289570       0.00577476      -0.00023357      -0.00910895
Si       3.56264276       3.89955814       6.45460687      -0.00924390       0.00244796       0.00499331
Si      -1.38487138      -0.10278183       2.28993539       0.00611227      -0.00735407      -0.00499331
Si      -5.16722933       4.28633793       7.83968901      -0.00264313       0.00513967       0.00910895
Si       3.24809250       5.08773596       0.00042200      -0.00000000       0.00000000       0.00000000
Si       3.59808452      -2.29606919       4.26824991      -0.00000000      -0.00000000      -0.00000000
22
Lattice="10.617362380334578 0.3837038287533341 -0.20684943710518455 -4.12204675205089 9.792055101838963 0.20684943710520057 -3.4220138614494617 -4.976585795046341 8.743100948162793" Properties=species:S:1:pos:R:3:forces:R:3 unique_starting_index=6 config_type=initial n_minim_iter=3 energy=-3572.547083422693 stress="-1.8340084302894483e-05 3.497794462965797e-05 6.500941842359871e-05 3.497794462965797e-05 1.413055785481973e-05 -4.149632993566457e-05 6.500941842359871e-05 -4.149632993566457e-05 -4.066696237463005e-05" free_energy=-3572.547083422693 pbc="T T T"
Si      -3.01240875       5.79740159       7.81852402       0.01119484       0.01133296      -0.01313266
Si       2.27109627       1.83795550       5.45248517       0.00268913      -0.02019527      -0.00333868
Si       7.62916341       4.10304605      -0.30395814      -0.01995198       0.00451961      -0.00277827
Si      -0.73860193      -1.33921063       4.52083896       0.00606801       0.00434269       0.01924961
Si       7.90704995      -1.75954501       3.08461040      -0.01945034      -0.00606336       0.00333868
Si      -1.01648847       4.52338043       1.13227042       0.00556638       0.01492567       0.01313266
Si       2.17027851       3.96491472       4.22310605       0.00138432       0.00733236      -0.01924960
Si      -2.91159098       3.67044237       9.04790315       0.01249964      -0.01619467       0.00277827
Si      -0.43142982       6.83509653       2.07950211       0.01072367       0.00277015       0.00942303
Si       1.76877198       6.63432954       4.04210998      -0.01230358      -0.00176167      -0.00754869
Si       1.61161337       4.48642629       1.77372005       0.00241620       0.01269497      -0.00666813
Si       2.50026058       7.21198105       1.05630636      -0.00083629      -0.01370345       0.00479380
Si       1.85173947      -0.57953018       4.70183502       0.00358209      -0.01190169       0.00754870
Si       2.96016737      -2.49070338       6.66444290      -0.00200217       0.01089321      -0.00942303
Si       2.06773107       0.32716958       7.68763865      -0.01207766      -0.00652794      -0.00479380
Si      -0.03035602      -1.62638441       6.97022496       0.01049775       0.00753642       0.00666813
Si      -1.48108921       1.93351141       1.11247622       0.00492386      -0.00153572      -0.00689262
Si       3.56348365       3.89943784       6.45432979      -0.00653883       0.00256657       0.00497668
Si      -1.38455550      -0.10306671       2.28961521       0.00508098      -0.00485050      -0.00497668
Si      -5.16595232       4.28560615       7.83831822      -0.00346600       0.00381964       0.00689262
Si       3.24831918       5.08809103       0.00042203       0.00000000      -0.00000000      -0.00000000
Si       3.59833563      -2.29622942       4.26854778       0.00000000      -0.00000000       0.00000000
22
Lattice="10.618413429596236 0.38308914967361946 -0.2079990920368867 -4.123046807743647 9.792749668994002 0.20799909203690273 -3.4230084213083742 -4.9760071738668765 8.744317619688374" Properties=species:S:1:pos:R:3:forces:R:3 unique_starting_index=6 config_type=initial n_minim_iter=4 energy=-3572.5472423358356 stress="-7.830770043975868e-06 4.235298807084652e-06 7.871656946183914e-06 4.235298807084652e-06 -3.899063242568677e-06 -5.024577541651631e-06 7.871656946183914e-06 -5.024577541651631e-06 -1.0534214276582039e-05" free_energy=-3572.5472423358356 pbc="T T T"
Si      -3.01338014       5.79891959       7.81972543       0.00415453      -0.01217026      -0.00493517
Si       2.27072740       1.83734924       5.45297108       0.00847676       0.00410754      -0.01005006
Si       7.62879921       4.10297055      -0.30469515       0.00041242       0.00402754       0.01316586
Si      -0.73878457      -1.33872984       4.52232200      -0.01304371       0.00403518       0.00181936
Si       7.90671184      -1.76017091       3.08419151       0.00015690       0.00941822       0.01005006
Si      -1.01669720       4.52441161       1.13343534      -0.01278819      -0.00135550       0.00493517
Si       2.16984794       3.96560998       4.22283968       0.00915174      -0.01013246      -0.00181936
Si      -2.91250068       3.67065885       9.04985683       0.00347955       0.00206974      -0.01316586
Si      -0.43156294       6.83567253       2.08071117       0.00556439       0.00419601       0.00366769
Si       1.76758116       6.63471108       4.04253210      -0.00660540      -0.00353152      -0.00243267
Si       1.61140999       4.48727248       1.77382847      -0.00105113       0.00578843      -0.00523547
Si       2.49989530       7.21161029       1.05693309       0.00209215      -0.00645292       0.00400045
Si       1.85159236      -0.57987107       4.70262957      -0.00042229      -0.00747828       0.00243267
Si       2.95975132      -2.49000300       6.66445051       0.00146331       0.00681379      -0.00366769
Si       2.06655401       0.32726078       7.68822859      -0.00673397      -0.00081910      -0.00400045
Si      -0.03049740      -1.62563401       6.97133321       0.00569296       0.00148359       0.00523547
Si      -1.48123935       1.93373219       1.11257265       0.00375122      -0.00378482      -0.00354097
Si       3.56256471       3.89995570       6.45530111      -0.00235417       0.00289306       0.00519837
Si      -1.38469343      -0.10310359       2.28986056       0.00361531      -0.00091733      -0.00519837
Si      -5.16768346       4.28683609       7.84058813      -0.00501236       0.00180909       0.00354097
Si       3.24834469       5.08813097       0.00042203      -0.00000000       0.00000000       0.00000000
Si       3.59836388      -2.29624745       4.26858129       0.00000000      -0.00000000      -0.00000000
22
Lattice="10.619160628076502 0.3823636927694412 -0.20931548670981953 -4.124019418543497 9.793121988105456 0.20931548670983557 -3.4240053259296 -4.9751223263746445 8.745337773752878" Properties=species:S:1:pos:R:3:forces:R:3 unique_starting_index=6 config_type=initial n_minim_iter=5 energy=-3572.5473364784248 stress="2.3303254874878646e-05 -1.4017342631681616e-05 -2.605239933642382e-05 -1.4017342631681616e-05 1.0290703486352e-05 1.6629575332430524e-05 -2.605239933642382e-05 1.6629575332430524e-05 3.2250709587762346e-05" free_energy=-3572.5473364784248 pbc="T T T"
Si      -3.01413539       5.79954853       7.82049162       0.00009226      -0.02040298       0.00004330
Si       2.27076212       1.83693167       5.45262967       0.00919008       0.01447794      -0.01105547
Si       7.62815749       4.10295648      -0.30463316       0.00980239       0.00305356       0.01763181
Si      -0.73986703      -1.33786376       4.52387547      -0.01908473       0.00287147      -0.00661964
Si       7.90606874      -1.76015582       3.08423664       0.00926308       0.01443135       0.01105547
Si      -1.01777828       4.52524854       1.13500567      -0.01854542      -0.00850631      -0.00004330
Si       2.16986692       3.96552449       4.22230632       0.01063956      -0.01610192       0.00661964
Si      -2.91324019       3.67095571       9.05081496      -0.00135723       0.01017689      -0.01763181
Si      -0.43135892       6.83630140       2.08221661      -0.00163767       0.00151614      -0.00589514
Si       1.76574247       6.63462858       4.04269847       0.00475560      -0.00350635       0.00219617
Si       1.61102034       4.48839599       1.77356022      -0.00487387      -0.00367660       0.00156888
Si       2.49949921       7.21049126       1.05786600       0.00175595       0.00566681       0.00213009
Si       1.85129472      -0.58068874       4.70348333      -0.00518263       0.00283735      -0.00219617
Si       2.95923892      -2.48866832       6.66396518       0.00206471      -0.00084714       0.00589514
Si       2.06470883       0.32731523       7.68831579       0.00440081       0.00397856      -0.00213009
Si      -0.03031119      -1.62462956       6.97262157      -0.00128289      -0.00596877      -0.00156888
Si      -1.48111646       1.93365449       1.11242630       0.00290020      -0.00513054      -0.00129595
Si       3.56121868       3.90056558       6.45646666       0.00039487       0.00302725       0.00520509
Si      -1.38457046      -0.10318288       2.28971514       0.00257963       0.00163269      -0.00520509
Si      -5.16977521       4.28817203       7.84307098      -0.00587470       0.00047060       0.00129595
Si       3.24823196       5.08795439       0.00042201      -0.00000000       0.00000000       0.00000000
Si       3.59823901      -2.29616777       4.26843316      -0.00000000       0.00000000       0.00000000
22
Lattice="10.618430147326402 0.38227082498616843 -0.2094162534679117 -4.123796109972112 9.79242030453477 0.20941625346792775 -3.4238366778591987 -4.974670833685871 8.744772006423222" Properties=species:S:1:pos:R:3:forces:R:3 unique_starting_index=6 config_type=initial n_minim_iter=6 energy=-3572.547437219214 stress="-1.612925046543976e-06 2.1361842062908297e-06 3.970276768508547e-06 2.1361842062908297e-06 3.7014315705357565e-07 -2.5342860537790384e-06 3.970276768508547e-06 -2.5342860537790384e-06 -2.976476564073176e-06" free_energy=-3572.547437219214 pbc="T T T"
Si      -3.01361303       5.79800746       7.81955061       0.00426444       0.00225586      -0.00464671
Si       2.27137242       1.83719050       5.45125936       0.00165918      -0.00603698      -0.00238081
Si       7.62761898       4.10301663      -0.30337396      -0.00632481       0.00213639       0.00054677
Si      -0.74113844      -1.33732786       4.52379592       0.00040119       0.00164474       0.00648075
Si       7.90548468      -1.75913461       3.08494035      -0.00617440      -0.00103671       0.00238081
Si      -1.01900414       4.52482338       1.13548160       0.00025079       0.00481783       0.00464671
Si       2.17054972       3.96425385       4.22182004       0.00132295       0.00105636      -0.00648076
Si      -2.91279032       3.67094411       9.04898993       0.00460066      -0.00483748      -0.00054677
Si      -0.43094393       6.83614012       2.08228967      -0.00352563      -0.00271510      -0.00850158
Si       1.76512662       6.63379968       4.04226182       0.00941813      -0.00104616       0.00151097
Si       1.61067039       4.48848776       1.77311440      -0.00426085      -0.00567958       0.00645493
Si       2.49942742       7.20955031       1.05821029      -0.00163165       0.00944084       0.00053567
Si       1.85097074      -0.58114480       4.70335415      -0.00491411       0.00810230      -0.00151097
Si       2.95908650      -2.48790827       6.66332630      -0.00097839      -0.00434104       0.00850158
Si       2.06405415       0.32730548       7.68740567       0.00925029       0.00249476      -0.00053567
Si      -0.02991203      -1.62445682       6.97250156      -0.00335779      -0.00625602      -0.00645493
Si      -1.48063692       1.93311857       1.11200758       0.00373682      -0.00355483      -0.00366829
Si       3.56063140       3.90061104       6.45659345      -0.00256163       0.00280469       0.00506248
Si      -1.38411338      -0.10324492       2.28902252       0.00362249      -0.00114272      -0.00506248
Si      -5.17007131       4.28813121       7.84302464      -0.00479768       0.00189286       0.00366829
Si       3.24797832       5.08755710       0.00042198      -0.00000000       0.00000000       0.00000000
Si       3.59795804      -2.29598847       4.26809986       0.00000000      -0.00000000      -0.00000000
