18
Lattice="5.791045231918763 0.7102956209762616 0.5186331942326818 1.2221473010706507 5.232534430558459 1.5052160239145298 -0.40580627394325874 2.499957432139788 12.575784635243364" Properties=species:S:1:pos:R:3:forces:R:3 unique_starting_index=392 config_type=initial n_minim_iter=1 energy=-2930.331432989883 stress="0.00011419913915895545 -0.00014877656859826527 6.695992056774068e-05 -0.00014877656859826527 0.00045460960754004114 9.704257640363811e-05 6.695992056774068e-05 9.704257640363811e-05 0.00038178509329614993" free_energy=-2930.331432989883 pbc="T T T"
Si       3.17350349       3.84345049      10.02052832      -0.01991159       0.04816945       0.01355284
Si       4.14667675       3.69232752       7.78803411      -0.04804471      -0.01471619      -0.00359478
Si       7.22846781       5.72477997       4.87789894       0.00092997      -0.02011158       0.04397893
Si       5.57405962       6.48063935      10.06491283       0.03017423       0.01258106       0.03158030
Si       2.29889204       3.59472916       2.55885074       0.00821758      -0.01556484      -0.00235778
Si       4.32210314       4.86108699       2.11119674       0.00105219      -0.00385877      -0.01056029
Si       1.13942575       2.68661599       9.68409846      -0.00707716      -0.03172640       0.02261995
Si       4.90412810       3.32556301      11.54644456      -0.01620933       0.03301800      -0.04560169
Si       2.14221425       3.95029919       6.41648988      -0.01826042      -0.00375441      -0.00164665
Si       3.28050709       6.17512167       9.83882314      -0.02433753       0.00070824      -0.02699893
Si       0.34215676       4.10173066       7.92932579       0.01400757      -0.00564134      -0.00697921
Si       7.02053563       6.36975422      11.88148823      -0.00343457      -0.01088879      -0.06064516
Si       5.03453854       4.92856966       4.35684035      -0.01613784       0.01949067       0.04060953
Si       4.87830481       2.52411943       4.25434880       0.00891069       0.01754042      -0.02040184
Si       0.58114064       3.21303786       0.94716089       0.03573486      -0.01224127       0.04285471
Si       1.78154151       1.64508514       6.03174047       0.01483028       0.00714652      -0.01021229
Si       5.26822701       2.00955402       6.46787962       0.00895133       0.01013134      -0.00511578
Si       2.73991558       1.61566390       3.82820615       0.03060445      -0.03028208      -0.00108186
18
Lattice="5.79034550390867 0.7108743329952992 0.5178572621815941 1.2227849705439136 5.229757857553094 1.5038363000280686 -0.4063086349572794 2.4970930127174316 12.569839267604989" Properties=species:S:1:pos:R:3:forces:R:3 unique_starting_index=392 config_type=initial n_minim_iter=2 energy=-2930.3315751736163 stress="-0.00024080244376657595 -3.834374715756639e-05 5.730080075936429e-06 -3.834374715756639e-05 -0.0002395238435844076 5.0607804945717996e-05 5.730080075936429e-06 5.0607804945717996e-05 -0.0003006252592971063" free_energy=-2930.3315751736163 pbc="T T T"
Si       3.17288906       3.84094992      10.01534636      -0.02719163       0.04253201       0.01787635
Si       4.14598599       3.69012414       7.78374450      -0.04737459      -0.00817292      -0.00497253
Si       7.22811479       5.72234138       4.87460855       0.00142961      -0.01778906       0.04130648
Si       5.57375101       6.47701592      10.05927796       0.02332481       0.01384857       0.03182284
Si       2.29903937       3.59285103       2.55708919       0.01287221      -0.01260293      -0.00579166
Si       4.32221121       4.85897436       2.10930383      -0.00453418      -0.00269727      -0.01738784
Si       1.13895270       2.68414873       9.67939384      -0.00733591      -0.02814658       0.02866677
Si       4.90307955       3.32341993      11.54029447      -0.01328849       0.03714907      -0.04004559
Si       2.14204982       3.94779819       6.41295683      -0.01444019       0.00311696       0.00055701
Si       3.28028871       6.17124433       9.83330977      -0.01964280       0.00327480      -0.02752135
Si       0.34225168       4.09865041       7.92521566       0.01013808      -0.00737341      -0.00887078
Si       7.01975392       6.36615738      11.87461771       0.00348142      -0.01445635      -0.05473736
Si       5.03432576       4.92636694       4.35403999      -0.01425595       0.01819636       0.04225195
Si       4.87778207       2.52318976       4.25167750       0.00742262       0.01822748      -0.02597968
Si       0.58167409       3.21125906       0.94646158       0.03724641      -0.02001663       0.03872243
Si       1.78116187       1.64384356       6.02864624       0.01331715      -0.00087165      -0.01340933
Si       5.26738523       2.00869075       6.46428666       0.01207581       0.00511606      -0.00364492
Si       2.73962922       1.61473405       3.82606714       0.02675561      -0.02933452       0.00115721
18
Lattice="5.795551173356304 0.714309074344917 0.5161536449657492 1.2269866697776817 5.22826309747842 1.5009434588273716 -0.4080687420167799 2.4889368462881514 12.571836902040845" Properties=species:S:1:pos:R:3:forces:R:3 unique_starting_index=392 config_type=initial n_minim_iter=3 energy=-2930.3318993946427 stress="0.0008038060007507716 0.000362523986369705 -0.00012052446098995762 0.000362523986369705 -0.0002285867551762172 -0.00028238202448714345 -0.00012052446098995762 -0.00028238202448714345 0.00010265426979272491" free_energy=-2930.3318993946427 pbc="T T T"
Si       3.17509785       3.83736240      10.01539618      -0.03680923       0.02956730       0.01196984
Si       4.14890766       3.68720224       7.78256326      -0.03560872      -0.00201313       0.00612549
Si       7.23687559       5.72241590       4.87183998      -0.00607225      -0.02196367       0.03608317
Si       5.58094097       6.47355270      10.05760671      -0.00468090       0.01217735       0.01324944
Si       2.30303186       3.59161864       2.55503844       0.02469238      -0.00912056      -0.00097101
Si       4.32855285       4.85926679       2.10566748      -0.01196092      -0.01700399      -0.00585999
Si       1.13915830       2.67794089       9.68075986      -0.00181193      -0.01220118       0.02771917
Si       4.90624327       3.32006370      11.53923320      -0.00364080       0.02175997      -0.03393464
Si       2.14455768       3.94449156       6.41185934      -0.02099649       0.00487185       0.00710006
Si       3.28428089       6.16617734       9.83092580       0.01087004       0.01674966      -0.02931905
Si       0.34363273       4.09304900       7.92469275      -0.00041419      -0.01512692      -0.01155043
Si       7.02703243       6.36204659      11.87103227      -0.00036708      -0.01492190      -0.02943854
Si       5.04045378       4.92635683       4.35211362       0.00215712       0.00502957       0.02560348
Si       4.88271834       2.52378933       4.24958898      -0.00185220       0.01539856      -0.01613371
Si       0.58497367       3.20981263       0.94568755       0.03554708      -0.00206245       0.01487354
Si       1.78260576       1.64120236       6.02857237       0.00024598      -0.00626722      -0.01483167
Si       5.27181720       2.00817783       6.46344332       0.02553255       0.00271849      -0.01329979
Si       2.74274129       1.61325370       3.82548443       0.02516955      -0.00759175       0.01261466
18
Lattice="5.786033964647165 0.7136510177808898 0.5164892215041264 1.2240431538106582 5.231215637555291 1.5016746855206022 -0.407564644186345 2.491127101842899 12.575620280422406" Properties=species:S:1:pos:R:3:forces:R:3 unique_starting_index=392 config_type=initial n_minim_iter=4 energy=-2930.3324384775087 stress="-0.0008612960596149449 4.371255880908868e-05 -0.0004517946005545036 4.371255880908868e-05 0.0002922424766167336 -0.0002893978593102674 -0.0004517946005545036 -0.0002893978593102674 0.0002523089808336126" free_energy=-2930.3324384775087 pbc="T T T"
Si       3.16784332       3.84206214      10.01952486      -0.04615088       0.02356342       0.00365089
Si       4.13893726       3.68845106       7.78498646      -0.01043380      -0.00634572       0.01708467
Si       7.22416468       5.72350784       4.87622574       0.01241643      -0.01886518       0.01268171
Si       5.57211505       6.47763795      10.06270772      -0.02622128       0.00529625      -0.03933534
Si       2.29951969       3.59266935       2.55579370       0.02825809      -0.01295934       0.03145743
Si       4.32040343       4.86107774       2.10584800       0.00767639      -0.00877629       0.01675775
Si       1.13667155       2.67822356       9.68536644      -0.00916378      -0.00382441       0.00139967
Si       4.89721094       3.32367006      11.54043661      -0.00100149      -0.02013388       0.00758883
Si       2.13946867       3.94683435       6.41405692      -0.00736672      -0.00914898      -0.00179319
Si       3.27713012       6.17002887       9.83250671       0.00299645       0.02199006      -0.02675819
Si       0.34305361       4.09530826       7.92668357      -0.02143769      -0.00249838       0.01728501
Si       7.01476985       6.36426993      11.87187784       0.02730988      -0.01441378       0.03025984
Si       5.03075902       4.92950676       4.35608897      -0.00812997      -0.01780376      -0.00687184
Si       4.87479641       2.52562952       4.24972676       0.02687272       0.02308597       0.00213810
Si       0.58564745       3.21080664       0.94827203       0.02316118       0.02563309      -0.04684028
Si       1.78023135       1.64216969       6.02968763       0.02520572       0.00308723      -0.01032307
Si       5.26389173       2.00906231       6.46519967      -0.01361692      -0.00340282      -0.01309963
Si       2.73975608       1.61235170       3.82692172      -0.01037432       0.01551651       0.00471763
18
Lattice="5.789603343454863 0.7120008272913443 0.5215413547724077 1.2243391004497597 5.230712688135636 1.5054838949818943 -0.3981748809582687 2.498900080078934 12.571885466766139" Properties=species:S:1:pos:R:3:forces:R:3 unique_starting_index=392 config_type=initial n_minim_iter=5 energy=-2930.332801203542 stress="-0.00027238197370480687 -3.3207814362675976e-05 0.00011026956542991293 -3.3207814362675976e-05 5.0632398814141046e-05 5.061531077981902e-05 0.00011026956542991293 5.061531077981902e-05 -6.901527969136695e-07" free_energy=-2930.332801203542 pbc="T T T"
Si       3.17605484       3.84759201      10.02093327      -0.04597892       0.00549209       0.01719287
Si       4.14578689       3.69124358       7.78775889       0.00098071       0.00600040       0.00862551
Si       7.23063892       5.72275055       4.88476360       0.00321357      -0.01648378      -0.00260654
Si       5.58182689       6.48130858      10.06780271      -0.04192637      -0.00389907      -0.03359010
Si       2.30223230       3.59256711       2.55909892       0.01344308      -0.01079159       0.02235572
Si       4.32306751       4.85989705       2.11160254       0.02687789      -0.00445345       0.01767018
Si       1.14436009       2.68313229       9.68466625       0.00417841       0.00082506      -0.00456540
Si       4.90835794       3.32938276      11.54137834      -0.01684242      -0.01360081       0.00715592
Si       2.14443302       3.94948259       6.41585510       0.00574317      -0.01447890      -0.00068209
Si       3.28501322       6.17430111       9.83468270       0.02294723       0.03334100      -0.01917422
Si       0.34856557       4.09932022       7.92638648      -0.03584302      -0.00905570       0.02498882
Si       7.02680724       6.36811351      11.87635282       0.01626457      -0.01707241       0.01652004
Si       5.03550899       4.92989162       4.36234857      -0.00064185      -0.00855066      -0.01246272
Si       4.88057610       2.52673161       4.25333444       0.01556524       0.01137509      -0.00221242
Si       0.58651134       3.21045972       0.95083155       0.02218520       0.02334234      -0.03173298
Si       1.78604304       1.64518925       6.02954619       0.00748436       0.00413257      -0.00730379
Si       5.27187233       2.01125698       6.46810739      -0.00128979       0.00012755      -0.00790130
Si       2.74444583       1.61328343       3.82879979       0.00363894       0.01375026       0.00772251
18
Lattice="5.792663332399727 0.7107239766558484 0.5191396143350714 1.2233540737241249 5.229865158305322 1.5050014445198046 -0.4040111238058718 2.4994624843079287 12.569496239856678" Properties=species:S:1:pos:R:3:forces:R:3 unique_starting_index=392 config_type=initial n_minim_iter=6 energy=-2930.332998470544 stress="0.0002112219496521571 -0.00013155979131556988 -0.00016773709483624964 -0.00013155979131556988 -3.379470315738953e-05 0.00014685182454537556 -0.00016773709483624964 0.00014685182454537556 -0.00011818869270153444" free_energy=-2930.332998470544 pbc="T T T"
Si       3.17240370       3.84707743      10.01796124      -0.03794079       0.01013420       0.01355726
Si       4.14439110       3.69049806       7.78479932      -0.00245840       0.00045153       0.00741039
Si       7.23176379       5.72055999       4.88108172       0.00003031      -0.01273183      -0.00565330
Si       5.57900432       6.47986229      10.06324458      -0.03321932      -0.00047381      -0.02905882
Si       2.30202226       3.59163993       2.55818603       0.01350804      -0.00407701       0.01985896
Si       4.32411264       4.85839045       2.11000492       0.02865130      -0.00951868       0.00594797
Si       1.14063833       2.68323343       9.68220621       0.00016398      -0.00991303      -0.00076396
Si       4.90569222       3.32839752      11.53727598      -0.00923865      -0.00760761       0.00103355
Si       2.14235802       3.94872475       6.41386761      -0.00546391      -0.00978597       0.01090921
Si       3.28210325       6.17394195       9.83137209       0.01960830       0.02975114      -0.01418736
Si       0.34415845       4.09907327       7.92515788      -0.02470196      -0.00625858       0.01496679
Si       7.02505494       6.36632351      11.87171268       0.01159395      -0.01234992       0.01077458
Si       5.03572564       4.92829571       4.35944611       0.00299490       0.00046159       0.00022648
Si       4.88140863       2.52579353       4.25061769       0.01188141       0.00594360      -0.00954793
Si       0.58608876       3.21036335       0.95004829       0.01096339       0.01962791      -0.02206243
Si       1.78438674       1.64502540       6.02752964      -0.00184652       0.00093418      -0.01140927
Si       5.27195749       2.01028765       6.46458231       0.00519129       0.00156474      -0.00047039
Si       2.74420600       1.61301264       3.82711011       0.01028268       0.00384758       0.00846830
18
Lattice="5.794730362057631 0.7124103260776833 0.5209714300584705 1.2262481445620625 5.228126917351476 1.5022679988098158 -0.39834900733133977 2.4905348631657214 12.569429113004395" Properties=species:S:1:pos:R:3:forces:R:3 unique_starting_index=392 config_type=initial n_minim_iter=7 energy=-2930.3333368702556 stress="0.0006100092438100316 -3.7955989098904238e-06 0.00026042398864760917 -3.7955989098904238e-06 -0.00030062758951971915 -0.00025876618720728413 0.00026042398864760917 -0.00025876618720728413 9.28838981860609e-05" free_energy=-2930.3333368702556 pbc="T T T"
Si       3.17625846       3.84140625      10.01885826      -0.02195890       0.02049967       0.02873633
Si       4.14968029       3.68628931       7.78550329      -0.01169075       0.00195130       0.00812680
Si       7.23787866       5.71790173       4.88085885      -0.00570056      -0.01322603       0.00601067
Si       5.58495925       6.47385675      10.06103711       0.01192251       0.00673532       0.01058621
Si       2.30582898       3.58953460       2.55814332       0.01321504      -0.00694338       0.00027139
Si       4.32920003       4.85710128       2.10942062       0.01241978      -0.01260542       0.00498506
Si       1.14578859       2.67650239       9.68223000      -0.01331010       0.00055520      -0.00082089
Si       4.91204950       3.32150675      11.53860631      -0.01822749       0.01203582      -0.01246654
Si       2.14684154       3.94383970       6.41319948      -0.01059795       0.00447922       0.01423851
Si       3.29021682       6.16898341       9.82891327       0.00504651       0.01453869      -0.02340604
Si       0.34731168       4.09260880       7.92466776      -0.01173473      -0.01806420       0.00609349
Si       7.03468845       6.35892497      11.87244113      -0.01241144      -0.01589190      -0.03094019
Si       5.04068575       4.92595965       4.35853065       0.01459062       0.00119521       0.00207254
Si       4.88605150       2.52485346       4.25110981       0.00376058      -0.00428259      -0.00241048
Si       0.58893177       3.21029630       0.94698742       0.02424388       0.00804470       0.00085485
Si       1.78805324       1.64150237       6.02744735      -0.01184554      -0.00827759      -0.00524986
Si       5.27683390       2.00764436       6.46583113       0.01379080       0.00078672      -0.01275758
Si       2.74746486       1.61164147       3.82809492       0.01848774       0.00846926       0.00607574
18
Lattice="5.794648409325977 0.7189409486086248 0.520739160751826 1.2312948733005973 5.232982073124616 1.5042877368123673 -0.39668055334743 2.497627131122397 12.566997465961542" Properties=species:S:1:pos:R:3:forces:R:3 unique_starting_index=392 config_type=initial n_minim_iter=8 energy=-2930.333808346329 stress="0.00063641398020017 0.00044196731458906956 6.790864420165278e-05 0.00044196731458906956 0.0001230632446683893 0.00014320705535483878 6.790864420165278e-05 0.00014320705535483878 -0.00024135361024774717" free_energy=-2930.333808346329 pbc="T T T"
Si       3.17512335       3.85386326      10.01935000      -0.02501676       0.03677758       0.02816506
Si       4.15054320       3.69621666       7.78533354      -0.00285735       0.00419544       0.01382108
Si       7.24248899       5.72898253       4.88303917      -0.01152351      -0.00811087      -0.01363915
Si       5.58857742       6.48842310      10.05987896       0.03568735       0.00619330       0.01149851
Si       2.31059002       3.59403239       2.56025984       0.01646596       0.00987764      -0.01376797
Si       4.33498247       4.86440641       2.11134285      -0.00781588      -0.01984876       0.00416578
Si       1.14734147       2.68279824       9.68134346      -0.01747153      -0.00555186      -0.00153904
Si       4.91251773       3.33442773      11.53528236      -0.00934931       0.00738302      -0.00243526
Si       2.14940469       3.95066364       6.41351411      -0.01991550      -0.00961072       0.02365700
Si       3.29613239       6.18279822       9.82641163      -0.00543425      -0.00182041      -0.00752444
Si       0.34911077       4.09808615       7.92538417      -0.01957871      -0.01262614      -0.00729088
Si       7.04019756       6.37374984      11.87043393      -0.01319477      -0.01434909      -0.03579558
Si       5.04451209       4.93603881       4.36012281       0.02546712       0.00085098       0.00724563
Si       4.88888416       2.53448822       4.24971180      -0.00604163      -0.00997618      -0.01066284
Si       0.59475808       3.21416773       0.94752730       0.03246358       0.00099954       0.00068929
Si       1.78965696       1.64724337       6.02529515      -0.01755093       0.00887752      -0.00756651
Si       5.27832667       2.01748751       6.46376910       0.01785168      -0.00357185       0.00072374
Si       2.74989471       1.61713297       3.82821488       0.02781441       0.01031087       0.01025557
18
Lattice="5.7914135241963836 0.7181663275467198 0.5211423700254013 1.230204726932888 5.23029594546476 1.5058711510665705 -0.39671796721361813 2.4976746440198885 12.575924405515744" Properties=species:S:1:pos:R:3:forces:R:3 unique_starting_index=392 config_type=initial n_minim_iter=9 energy=-2930.334557846541 stress="7.473190558609236e-05 -2.1976622727151906e-05 -0.00020553590687176983 -2.1976622727151906e-05 -0.000365893259525828 0.00024339170631337227 -0.00020553590687176983 0.00024339170631337227 0.00027560719032279494" free_energy=-2930.334557846541 pbc="T T T"
Si       3.16436918       3.85872880      10.03089918      -0.00076882       0.02717206       0.03093803
Si       4.14327164       3.69433413       7.79243378       0.01280297      -0.00717671       0.02704141
Si       7.23818506       5.72180544       4.89049053      -0.00060045       0.00609088      -0.04028219
Si       5.58319382       6.48691780      10.06640811       0.07033767       0.01013187       0.00466700
Si       2.31277068       3.58993826       2.56467152       0.00570570       0.02517580      -0.01535623
Si       4.33501641       4.85980574       2.11401720       0.01181452      -0.02006802       0.01933739
Si       1.14537014       2.67946858       9.69033032      -0.04307828      -0.00671144      -0.02978321
Si       4.90630287       3.33532342      11.54020660      -0.00716580       0.00566635       0.01162839
Si       2.14583139       3.94765622       6.41946738      -0.02612760       0.00460497       0.03890944
Si       3.29468237       6.18481440       9.82830903      -0.02626843      -0.00441921       0.00212268
Si       0.34511371       4.09448572       7.93307739      -0.01182136      -0.00089312      -0.00554154
Si       7.03736490       6.36741683      11.87529858      -0.02200299      -0.01023134      -0.01752333
Si       5.04092158       4.93412061       4.36633302       0.03284173      -0.00095763      -0.02157123
Si       4.88856622       2.53597477       4.25017714       0.01187454      -0.02981642       0.01374426
Si       0.60091625       3.21423252       0.94794254       0.00985743       0.00056017      -0.01761080
Si       1.78993078       1.64726270       6.02712128      -0.01731487      -0.00435084      -0.00609621
Si       5.27689231       2.01723048       6.46678570      -0.00847832      -0.00924990      -0.00400594
Si       2.75204383       1.61588174       3.83244921       0.00839237       0.01447255       0.00938209
18
Lattice="5.790876431977268 0.7179411313798127 0.5218781118285511 1.2299845948825099 5.233977234499942 1.5018850757547053 -0.39348120249621743 2.492552544515067 12.563972719662427" Properties=species:S:1:pos:R:3:forces:R:3 unique_starting_index=392 config_type=initial n_minim_iter=10 energy=-2930.33484627885 stress="-9.662309915080015e-05 -0.00013528779799989397 -9.293156761780743e-05 -0.00013528779799989397 0.00019787162248651783 -7.093862789720986e-05 -9.293156761780743e-05 -7.093862789720986e-05 -0.0003051840378261039" free_energy=-2930.33484627885 pbc="T T T"
Si       3.16354476       3.85821747      10.02292896      -0.00168985       0.03548704       0.03825187
Si       4.14322472       3.69246859       7.78567851       0.01924218      -0.01478851       0.01810496
Si       7.23824926       5.72205039       4.88583675       0.00271726       0.00984068      -0.04268057
Si       5.58481502       6.48677102      10.05550879       0.06459195       0.00953189      -0.00258399
Si       2.31416384       3.59088793       2.56167901       0.00947093       0.01505599      -0.01137307
Si       4.33569201       4.86168218       2.11106274       0.01065210      -0.01795023       0.00637432
Si       1.14687749       2.67510456       9.68143405      -0.04599115       0.00261578      -0.03523565
Si       4.90746917       3.33166981      11.52911198      -0.00925197      -0.00684598       0.02965751
Si       2.14609222       3.94676362       6.41314714      -0.02197219       0.00129579       0.03534222
Si       3.29647592       6.18568467       9.81566424      -0.02160176      -0.01621912       0.00804216
Si       0.34556905       4.09268553       7.92478772      -0.01077623      -0.00421009       0.00403240
Si       7.03956079       6.36413005      11.86222780      -0.02044270      -0.00610172      -0.01521038
Si       5.04129157       4.93564050       4.36184247       0.03582759      -0.00983833      -0.01063385
Si       4.88992821       2.53589359       4.24579319       0.01441487      -0.03046731       0.00770719
Si       0.60314025       3.21707976       0.94504235       0.00334730       0.01034780      -0.02814275
Si       1.79153827       1.64511522       6.02081803      -0.02220212       0.00669058       0.00241735
Si       5.27835408       2.01480167       6.46111755      -0.01375402      -0.01022604       0.00543043
Si       2.75395502       1.61480037       3.82964808       0.00741780       0.02578177      -0.00950016
18
Lattice="5.7844122849088695 0.7275148522191096 0.5281556157754326 1.238327894903566 5.238024953296209 1.502756942081774 -0.37592729790282586 2.4878480220325274 12.577831782261878" Properties=species:S:1:pos:R:3:forces:R:3 unique_starting_index=392 config_type=initial n_minim_iter=11 energy=-2930.336131175061 stress="-0.0007756926901304627 0.0002503006538830967 0.000507835869668027 0.0002503006538830967 0.000307751331852395 -0.00019076886435367703 0.000507835869668027 -0.00019076886435367703 0.00030067396256785485" free_energy=-2930.336131175061 pbc="T T T"
Si       3.16594439       3.86998011      10.04516126      -0.02858640       0.00002357       0.04100650
Si       4.14926521       3.69666279       7.80187373      -0.01249984      -0.02224248       0.02249954
Si       7.24257019       5.73112821       4.89530119       0.02636503       0.00741653       0.00754080
Si       5.60160369       6.49690267      10.06855541       0.00911504       0.00918747      -0.00236124
Si       2.32422015       3.59492644       2.56718560      -0.00343622      -0.00155050      -0.04597544
Si       4.34435483       4.86628250       2.11889088      -0.01624292      -0.00476760       0.02265721
Si       1.15406014       2.67197089       9.69128596      -0.01947935       0.02665228      -0.02149757
Si       4.91328850       3.33721010      11.54651891      -0.01799066       0.01421849       0.01732149
Si       2.15203865       3.94795673       6.42644928       0.00100462       0.01138906      -0.01577583
Si       3.31157407       6.19432167       9.82313021       0.02548486      -0.00183730       0.00960980
Si       0.35392852       4.08897535       7.93577639      -0.00802510       0.00074641      -0.00140305
Si       7.05176250       6.36887581      11.87654159      -0.00611532      -0.01200419      -0.00764732
Si       5.05032957       4.94388996       4.37022640       0.01435130      -0.02404892      -0.02229003
Si       4.89565051       2.54291576       4.25369742       0.01962391      -0.01142396       0.02403662
Si       0.61623035       3.22271655       0.94094268       0.03326450      -0.01674959      -0.00279261
Si       1.79699712       1.64695047       6.02674922       0.00711791       0.01734070       0.01361015
Si       5.28130637       2.02109445       6.47172161      -0.02749336      -0.01368840      -0.01561282
Si       2.76110136       1.62121547       3.83802060       0.00354202       0.02133843      -0.02292620
18
Lattice="5.789939498408307 0.7268141882132415 0.5245673668075156 1.2382911423359941 5.236466031032433 1.5008439563930338 -0.38377862326158163 2.485405861163048 12.574134336919299" Properties=species:S:1:pos:R:3:forces:R:3 unique_starting_index=392 config_type=initial n_minim_iter=12 energy=-2930.337080602365 stress="0.00020201240349187753 -0.00010513518745225333 -0.00014174608900425576 -0.00010513518745225333 -4.159725867699999e-05 3.8364627178553186e-05 -0.00014174608900425576 3.8364627178553186e-05 -7.876129611800576e-06" free_energy=-2930.337080602365 pbc="T T T"
Si       3.15301502       3.87482083      10.04795787      -0.02895819      -0.02310172       0.03041928
Si       4.14584415       3.69271950       7.80062333      -0.03502001      -0.03562075       0.02009066
Si       7.24749026       5.72521354       4.88853695       0.03527513       0.01903093       0.01610296
Si       5.60268653       6.49536705      10.05904174      -0.03408918       0.01365094      -0.00965214
Si       2.32912192       3.59278773       2.56518352      -0.01082997       0.00417567      -0.05238316
Si       4.35118251       4.86079827       2.11779689      -0.00221880      -0.00750689      -0.01040969
Si       1.14477989       2.66804173       9.68596354      -0.00676200       0.01051719      -0.00359727
Si       4.90705502       3.33551484      11.53951586       0.00199654       0.02981905       0.00778258
Si       2.14665240       3.94476111       6.42652813      -0.00288529       0.02989146      -0.01453892
Si       3.30991673       6.19565576       9.81288145       0.05961815       0.00815430       0.02827312
Si       0.34392430       4.08420652       7.93503486       0.01171200       0.01358176      -0.02396869
Si       7.05158605       6.36036429      11.86429914       0.00333857      -0.00089627       0.00741501
Si       5.05555661       4.94082607       4.36538529       0.01064980      -0.00777912       0.00555863
Si       4.90207898       2.54122726       4.24829907       0.01555704      -0.01271415       0.00783503
Si       0.62365575       3.22436931       0.93611191      -0.00635114      -0.03071922       0.01580233
Si       1.79481790       1.64640173       6.02152346      -0.00607037       0.00926377       0.00389976
Si       5.28291568       2.01857474       6.46461209      -0.01547114      -0.01168225      -0.00018734
Si       2.76581617       1.62236365       3.83610245       0.01050886      -0.00806470      -0.02844215
18