22
Lattice="8.605886330618773 6.413235093068721e-13 1.8747120528829904e-41 -4.302943165309942 7.452916184396783 2.3135944176173757e-40 -2.639867754300599e-41 -3.914286406470007e-40 12.11834200695777" Properties=species:S:1:pos:R:3:forces:R:3 unique_starting_index=200 config_type=initial n_minim_iter=1 energy=-3568.0085151987796 stress="-0.0008714767687790972 -1.2848408025390433e-12 6.670860856842778e-13 -1.2848408025390433e-12 -0.0008714767789704495 1.873225478786946e-12 6.670860856842778e-13 1.873225478786946e-12 0.050951941422770736" free_energy=-3568.0085151987796 pbc="T T T"
Si      -0.11705143       6.86669582       7.56396099       0.28700574      -1.51264611      -0.43089025
Si       1.70231557       4.12093778       7.56396099      -1.45349283       0.50776879      -0.43089025
Si      -1.58526414       3.91819877       7.56396099       1.16648709       1.00487732      -0.43089025
Si      -0.11705143       6.86669582       4.55438102       0.28700574      -1.51264611       0.43089025
Si       1.70231557       4.12093778       4.55438102      -1.45349283       0.50776879       0.43089025
Si      -1.58526414       3.91819877       4.55438102       1.16648709       1.00487732       0.43089025
Si       3.07492098       2.93958066       9.72096443      -2.79696542       2.49368210       0.41091058
Si       5.31123420       3.32016617       9.72096443       3.55807476       1.17540205       0.41091058
Si       4.52267431       1.19316935       9.72096443      -0.76110934      -3.66908416       0.41091058
Si       3.07492098       2.93958066       2.39737757      -2.79696542       2.49368210      -0.41091058
Si       5.31123420       3.32016617       2.39737757       3.55807476       1.17540205      -0.41091058
Si       4.52267431       1.19316935       2.39737757      -0.76110934      -3.66908416      -0.41091058
Si      -0.82185971       3.79924801       1.26532753      -1.11977710       0.05102906      -0.31729365
Si      -0.60176803       6.26504357       1.26532753       0.60408101       0.94424089      -0.31729365
Si       1.42362773       4.84154080       1.26532753       0.51569609      -0.99526995      -0.31729365
Si      -0.82185971       3.79924801      10.85301447      -1.11977710       0.05102906       0.31729365
Si      -0.60176803       6.26504357      10.85301447       0.60408101       0.94424089       0.31729365
Si       1.42362773       4.84154080      10.85301447       0.51569609      -0.99526995       0.31729365
Si      -2.27546237       6.05736706       6.05917100       0.73177957      -0.27316419       0.00000000
Si       2.08062177       6.39484087       6.05917100      -0.60245692      -0.49715760       0.00000000
Si       0.19484059       2.45362444       6.05917100      -0.12932266       0.77032180       0.00000000
Si       4.30294317       2.48430540      -0.00000000      -0.00000000       0.00000000       0.00000000
22
Lattice="8.617669926281968 6.396396374309497e-13 1.458921755269313e-41 -4.308834963141541 7.463121077589033 2.234630315166027e-40 -3.018612680745895e-41 -3.781846186776798e-40 11.186639597726545" Properties=species:S:1:pos:R:3:forces:R:3 unique_starting_index=200 config_type=initial n_minim_iter=2 energy=-3569.746495559831 stress="-0.008941449114491934 5.845607182352429e-13 1.1580040170181544e-12 5.845607182352429e-13 -0.008941449123149469 -6.501265520242006e-13 1.1580040170181544e-12 -6.501265520242006e-13 -0.0052899388052295515" free_energy=-3569.746495559831 pbc="T T T"
Si      -0.11663114       6.87303822       6.98161253       0.07312321      -1.50593350      -0.46595325
Si       1.70170630       4.12760750       6.98161253      -1.34073828       0.68964019      -0.46595325
Si      -1.58507516       3.92559644       6.98161253       1.26761507       0.81629331      -0.46595325
Si      -0.11663114       6.87303822       4.20502707       0.07312321      -1.50593350       0.46595325
Si       1.70170630       4.12760750       4.20502707      -1.34073828       0.68964019       0.46595325
Si      -1.58507516       3.92559644       4.20502707       1.26761507       0.81629331       0.46595325
Si       3.07347354       2.94864996       8.97434742      -2.11902906       2.11020196      -0.90702442
Si       5.32570397       3.32708994       8.97434742       2.88700303       0.78003202      -0.90702442
Si       4.52732738       1.18738118       8.97434742      -0.76797397      -2.89023398      -0.90702442
Si       3.07347354       2.94864996       2.21229218      -2.11902906       2.11020196       0.90702442
Si       5.32570397       3.32708994       2.21229218       2.88700303       0.78003202       0.90702442
Si       4.52732738       1.18738118       2.21229218      -0.76797397      -2.89023398       0.90702442
Si      -0.82525015       3.80455334       1.16745286      -0.84860905       0.11661875       1.24397340
Si      -0.60137005       6.27553200       1.16745286       0.52529933       0.67660762       1.24397340
Si       1.42662019       4.84615681       1.16745286       0.32330972      -0.79322637       1.24397340
Si      -0.82525015       3.80455334      10.01918674      -0.84860905       0.11661875      -1.24397340
Si      -0.60137005       6.27553200      10.01918674       0.52529933       0.67660762      -1.24397340
Si       1.42662019       4.84615681      10.01918674       0.32330972      -0.79322637      -1.24397340
Si      -2.27709778       6.06510854       5.59331980       1.12861308      -0.18806224       0.00000000
Si       2.08225200       6.40259133       5.59331980      -0.72717322      -0.88337648      -0.00000000
Si       0.19484578       2.45854229       5.59331980      -0.40143986       1.07143872      -0.00000000
Si       4.30883496       2.48770703      -0.00000000      -0.00000000       0.00000000      -0.00000000
22
Lattice="8.828594406137757 6.537050653859713e-13 5.625445325460834e-42 -4.4142972030694505 7.6457870354241635 2.1032911019070196e-40 -4.3341695886534925e-41 -4.145109578126423e-40 11.12333002572075" Properties=species:S:1:pos:R:3:forces:R:3 unique_starting_index=200 config_type=initial n_minim_iter=3 energy=-3570.1383543577813 stress="0.005820552870477087 -7.432680670877485e-13 1.272954151341339e-12 -7.432680670877485e-13 0.005820552854423017 5.5980073413025864e-12 1.272954151341339e-12 5.5980073413025864e-12 -0.004267859225088464" free_energy=-3570.1383543577813 pbc="T T T"
Si      -0.11906030       7.03475262       6.94044001       0.06665478      -1.51834155      -0.60104076
Si       1.73750742       4.23151998       6.94044001      -1.34824974       0.70144604      -0.60104076
Si      -1.61844712       4.02530148       6.94044001       1.28159496       0.81689551      -0.60104076
Si      -0.11906030       7.03475262       4.18289001       0.06665478      -1.51834155       0.60104076
Si       1.73750742       4.23151998       4.18289001      -1.34824974       0.70144604       0.60104076
Si      -1.61844712       4.02530148       4.18289001       1.28159496       0.81689551       0.60104076
Si       3.13919809       3.03013276       8.92089804      -0.77918761       1.77725644      -0.98770145
Si       5.46887010       3.41209536       8.92089804       1.92874303      -0.21383195      -0.98770145
Si       4.63482341       1.20355892       8.92089804      -1.14955542      -1.56342449      -0.98770145
Si       3.13919809       3.03013276       2.20243199      -0.77918761       1.77725644       0.98770145
Si       5.46887010       3.41209536       2.20243199       1.92874303      -0.21383195       0.98770145
Si       4.63482341       1.20355892       2.20243199      -1.14955542      -1.56342449       0.98770145
Si      -0.84925361       3.89814304       1.16460690      -0.72477621       0.63813699       1.32978053
Si      -0.61377950       6.43219072       1.16460690       0.91503095       0.30860612       1.32978053
Si       1.46303311       4.96124032       1.16460690      -0.19025474      -0.94674311       1.32978053
Si      -0.84925361       3.89814304       9.95872313      -0.72477621       0.63813699      -1.32978053
Si      -0.61377950       6.43219072       9.95872313       0.91503095       0.30860612      -1.32978053
Si       1.46303311       4.96124032       9.95872313      -0.19025474      -0.94674311      -1.32978053
Si      -2.32815954       6.21270100       5.56166501       1.83288737      -0.34661178       0.00000000
Si       2.13013946       6.55568184       5.56166501      -1.21661829      -1.41402114      -0.00000000
Si       0.19802008       2.52319123       5.56166501      -0.61626908       1.76063292       0.00000000
Si       4.41429720       2.54859568      -0.00000000       0.00000000       0.00000000      -0.00000000
22
Lattice="8.71288051911686 6.367389856072309e-13 -1.059539448921592e-41 -4.356440259558989 7.545575869693431 1.7317094974163472e-40 -6.318372593944953e-41 -4.852706099194525e-40 11.201684576319359" Properties=species:S:1:pos:R:3:forces:R:3 unique_starting_index=200 config_type=initial n_minim_iter=4 energy=-3572.4467396829655 stress="0.003616549318591382 4.275655326198189e-14 1.1394861392211411e-12 4.275655326198189e-14 0.003616549318069661 3.0744469842038226e-12 1.1394861392211411e-12 3.0744469842038226e-12 -4.2421062435964906e-05" free_energy=-3572.4467396829655 pbc="T T T"
Si      -0.11336275       6.86920063       6.96751234       0.04784422      -1.05768302       0.13966702
Si       1.64914336       4.20915057       6.96751234      -0.93990248       0.48740720       0.13966702
Si      -1.53578062       4.01280054       6.96751234       0.89205825       0.57027582       0.13966702
Si      -0.11336275       6.86920063       4.23417224       0.04784422      -1.05768302      -0.13966702
Si       1.64914336       4.20915057       4.23417224      -0.93990248       0.48740720      -0.13966702
Si      -1.53578062       4.01280054       4.23417224       0.89205825       0.57027582      -0.13966702
Si       3.03099994       3.08459928       8.94965085       0.67490605       0.50933945      -0.69756980
Si       5.51228162       3.37835328       8.94965085       0.10364788      -0.83915550      -0.69756980
Si       4.52603921       1.08262331       8.94965085      -0.77855392       0.32981606      -0.69756980
Si       3.03099994       3.08459928       2.25203372       0.67490605       0.50933945       0.69756980
Si       5.51228162       3.37835328       2.25203372       0.10364788      -0.83915550       0.69756980
Si       4.52603921       1.08262331       2.25203372      -0.77855392       0.32981606       0.69756980
Si      -0.87670867       3.86729059       1.21980171      -0.49677288       0.46126832       0.21774537
Si      -0.56891403       6.37118256       1.21980171       0.64785652       0.19958377       0.21774537
Si       1.44562270       4.85267860       1.21980171      -0.15108365      -0.66085209       0.21774537
Si      -0.87670867       3.86729059       9.98188286      -0.49677288       0.46126832      -0.21774537
Si      -0.56891403       6.37118256       9.98188286       0.64785652       0.19958377      -0.21774537
Si       1.44562270       4.85267860       9.98188286      -0.15108365      -0.66085209      -0.21774537
Si      -2.22437646       6.11734300       5.60084229       0.74594659      -0.28147891      -0.00000000
Si       2.05352241       6.41327089       5.60084229      -0.61674118      -0.50526924      -0.00000000
Si       0.17085405       2.56053785       5.60084229      -0.12920541       0.78674815      -0.00000000
Si       4.35644026       2.51519196      -0.00000000      -0.00000000       0.00000000       0.00000000
22
Lattice="8.648407154761147 6.250780274784386e-13 -2.415439183287573e-41 -4.324203577381125 7.48974029829394 1.4247064513791473e-40 -8.273427957946832e-41 -5.422957760787282e-40 11.190476366638007" Properties=species:S:1:pos:R:3:forces:R:3 unique_starting_index=200 config_type=initial n_minim_iter=5 energy=-3573.089150055535 stress="0.007831760696967461 -1.136837484761623e-12 9.656984191239189e-13 -1.136837484761623e-12 0.007831760707793 -7.436681923833454e-12 9.656984191239189e-13 -7.436681923833454e-12 0.0022787411955825566" free_energy=-3573.089150055535 pbc="T T T"
Si      -0.10886287       6.74915249       6.95328663       0.04228114      -0.48080387       0.56240467
Si       1.57516537       4.20944207       6.95328663      -0.43752894       0.20378540       0.56240467
Si      -1.46630250       4.02088604       6.95328663       0.39524780       0.27701848       0.56240467
Si      -0.10886287       6.74915249       4.23718974       0.04228114      -0.48080387      -0.56240467
Si       1.57516537       4.20944207       4.23718974      -0.43752894       0.20378540      -0.56240467
Si      -1.46630250       4.02088604       4.23718974       0.39524780       0.27701848      -0.56240467
Si       2.98354072       3.12832331       8.90621541       1.11740629      -0.20900650      -0.64895673
Si       5.54164067       3.34175659       8.90621541      -0.73970808      -0.86319899      -0.64895673
Si       4.44742934       1.01966040       8.90621541      -0.37769821       1.07220548      -0.64895673
Si       2.98354072       3.12832331       2.28426096       1.11740629      -0.20900650       0.64895673
Si       5.54164067       3.34175659       2.28426096      -0.73970808      -0.86319899       0.64895673
Si       4.44742934       1.01966040       2.28426096      -0.37769821       1.07220548       0.64895673
Si      -0.90589954       3.85894490       1.24795896      -0.32444023       0.46827731      -0.32633921
Si      -0.52930950       6.34479986       1.24795896       0.56776017       0.04683483      -0.32633921
Si       1.43520903       4.77573584       1.24795896      -0.24331993      -0.51511214      -0.32633921
Si      -0.90589954       3.85894490       9.94251741      -0.32444024       0.46827731       0.32633921
Si      -0.52930950       6.34479986       9.94251741       0.56776017       0.04683483       0.32633921
Si       1.43520903       4.77573584       9.94251741      -0.24331993      -0.51511214       0.32633921
Si      -2.15308286       6.05768294       5.59523818       0.59155048      -0.56276644      -0.00000000
Si       1.99844517       6.32552328       5.59523818      -0.78314527      -0.23091452      -0.00000000
Si       0.15463769       2.59627438       5.59523818       0.19159479       0.79368096      -0.00000000
Si       4.32420358       2.49658010      -0.00000000      -0.00000000       0.00000000      -0.00000000
22
Lattice="8.285576992273333 5.963308258162063e-13 -4.82337236813256e-41 -4.142788496137189 7.175520160320271 8.582363673023721e-41 -1.1039523401452937e-40 -6.192673909792015e-40 11.149767885822497" Properties=species:S:1:pos:R:3:forces:R:3 unique_starting_index=200 config_type=initial n_minim_iter=6 energy=-3573.962257769063 stress="-0.01917514004674182 2.8579656134583466e-12 2.457358473526397e-13 2.8579656134583466e-12 -0.019175140046536556 -6.850716278309175e-13 2.457358473526397e-13 -6.850716278309175e-13 -0.016316978002804912" free_energy=-3573.962257769063 pbc="T T T"
Si      -0.09775776       6.35428211       6.94066331       0.16713267      -1.25500118      -0.53748143
Si       1.40906011       4.08303981       6.94066331      -1.17042924       0.48275945      -0.53748143
Si      -1.31130235       3.91371840       6.94066331       1.00329657       0.77224173      -0.53748143
Si      -0.09775776       6.35428211       4.20910457       0.16713267      -1.25500118       0.53748143
Si       1.40906011       4.08303981       4.20910457      -1.17042924       0.48275945       0.53748143
Si      -1.31130235       3.91371840       4.20910457       1.00329657       0.77224173       0.53748143
Si       2.84584608       3.08320769       8.80120611       0.72927707      -0.26066432      -0.57456501
Si       5.39000163       3.16934132       8.80120611      -0.59038046      -0.50124031      -0.57456501
Si       4.19251777       0.92297116       8.80120611      -0.13889661       0.76190463      -0.57456501
Si       2.84584608       3.08320769       2.34856178       0.72927707      -0.26066432       0.57456501
Si       5.39000163       3.16934132       2.34856178      -0.59038046      -0.50124031       0.57456501
Si       4.19251777       0.92297116       2.34856178      -0.13889661       0.76190463       0.57456501
Si      -0.93114706       3.73398090       1.27327415       0.38538935       0.24060541      -1.03459709
Si      -0.44349265       6.11492672       1.27327415       0.01567572      -0.45405968      -1.03459709
Si       1.37463971       4.50213270       1.27327415      -0.40106508       0.21345426      -1.03459709
Si      -0.93114706       3.73398090       9.87649374       0.38538935       0.24060541       1.03459709
Si      -0.44349265       6.11492672       9.87649374       0.01567572      -0.45405967       1.03459710
Si       1.37463971       4.50213270       9.87649374      -0.40106507       0.21345426       1.03459709
Si      -1.97684264       5.76319482       5.57488394       0.78972681      -0.54556906      -0.00000000
Si       1.83670594       6.00591870       5.57488394      -0.86734007      -0.41113895      -0.00000000
Si       0.14013670       2.58192681       5.57488394       0.07761326       0.95670801      -0.00000000
Si       4.14278850       2.39184005      -0.00000000      -0.00000000       0.00000000      -0.00000000
22
Lattice="8.307922207792949 5.964746947299687e-13 -6.821065086513507e-41 -4.153961103896994 7.194871684613297 4.723392155677305e-41 -1.380951227026928e-40 -7.006257907502605e-40 11.244686721816965" Properties=species:S:1:pos:R:3:forces:R:3 unique_starting_index=200 config_type=initial n_minim_iter=7 energy=-3574.8862416321394 stress="-0.02337359994400285 9.262344352506305e-13 -1.898518952545293e-12 9.262344352506305e-13 -0.02337359994584449 4.10281087823701e-12 -1.898518952545293e-12 4.10281087823701e-12 -0.023642122585731312" free_energy=-3574.8862416321394 pbc="T T T"
Si      -0.08911537       6.25595561       7.00263875       0.09663549      -0.56052607      -0.61128653
Si       1.30841307       4.14407006       7.00263875      -0.53374756       0.19657425      -0.61128653
Si      -1.21929769       3.98971770       7.00263875       0.43711208       0.36395182      -0.61128653
Si      -0.08911537       6.25595561       4.24204798       0.09663549      -0.56052607       0.61128653
Si       1.30841307       4.14407006       4.24204798      -0.53374756       0.19657425       0.61128653
Si      -1.21929769       3.98971770       4.24204798       0.43711208       0.36395182       0.61128653
Si       2.86713697       3.15932691       8.80767023       1.22682409      -0.65629232      -0.01790621
Si       5.45644998       3.13219478       8.80767023      -1.18177787      -0.73431467      -0.01790621
Si       4.13829636       0.90335000       8.80767023      -0.04504622       1.39060699      -0.01790621
Si       2.86713697       3.15932691       2.43701649       1.22682409      -0.65629232       0.01790621
Si       5.45644998       3.13219478       2.43701649      -1.18177787      -0.73431467       0.01790622
Si       4.13829636       0.90335000       2.43701649      -0.04504622       1.39060699       0.01790621
Si      -0.98227030       3.78630708       1.29122718       0.43171712       0.48970155      -1.60969736
Si      -0.38378784       6.15238917       1.29122718       0.20823542      -0.61872877      -1.60969736
Si       1.36605813       4.45104711       1.29122718      -0.63995254       0.12902722      -1.60969736
Si      -0.98227030       3.78630708       9.95345954       0.43171712       0.48970155       1.60969736
Si      -0.38378784       6.15238917       9.95345954       0.20823542      -0.61872877       1.60969736
Si       1.36605813       4.45104711       9.95345954      -0.63995254       0.12902722       1.60969736
Si      -1.88710928       5.73194489       5.62234336      -0.60061991       0.32765260      -0.00000000
Si       1.75360342       5.96318382       5.62234336       0.58406543       0.35632580       0.00000000
Si       0.13350586       2.69461466       5.62234336       0.01655448      -0.68397840      -0.00000000
Si       4.15396110       2.39829056      -0.00000000      -0.00000000      -0.00000000      -0.00000000
22
Lattice="8.490123087178969 6.098609934284402e-13 -7.574949650508179e-41 -4.2450615435900145 7.352662274753445 3.637963351447493e-41 -1.502784551839729e-40 -7.401344608463974e-40 11.385545441259831" Properties=species:S:1:pos:R:3:forces:R:3 unique_starting_index=200 config_type=initial n_minim_iter=8 energy=-3575.4949321865606 stress="0.01996374818402018 1.2619972935421187e-12 2.2394686006683106e-12 1.2619972935421187e-12 0.019963748195378963 1.870300337500373e-12 2.2394686006683106e-12 1.870300337500373e-12 0.006140880221484141" free_energy=-3575.4949321865606 pbc="T T T"
Si      -0.08684188       6.35392314       7.09082759       0.00702248      -0.32386562      -0.19444098
Si       1.30101825       4.25090798       7.09082759      -0.28398709       0.15585116      -0.19444098
Si      -1.21417637       4.10049343       7.09082759       0.27696461       0.16801446      -0.19444098
Si      -0.08684188       6.35392314       4.29471786       0.00702248      -0.32386562       0.19444098
Si       1.30101825       4.25090798       4.29471786      -0.28398709       0.15585116       0.19444098
Si      -1.21417637       4.10049343       4.29471786       0.27696461       0.16801446       0.19444098
Si       2.96024961       3.23505787       8.89707229       1.44071854      -0.65899313       0.18065234
Si       5.56657904       3.17148198       8.89707229      -1.29106406      -0.91820229       0.18065233
Si       4.20835599       0.94612243       8.89707229      -0.14965448       1.57719542       0.18065233
Si       2.96024961       3.23505787       2.48847315       1.44071854      -0.65899312      -0.18065234
Si       5.56657904       3.17148198       2.48847315      -1.29106406      -0.91820229      -0.18065233
Si       4.20835599       0.94612243       2.48847315      -0.14965448       1.57719542      -0.18065233
Si      -1.01355200       3.88945960       1.29004867      -0.13062718       0.63632866      -1.33085752
Si      -0.36991473       6.28569426       1.29004867       0.61639038      -0.20503788      -1.33085752
Si       1.38346672       4.53017070       1.29004867      -0.48576320      -0.43129078      -1.33085752
Si      -1.01355200       3.88945960      10.09549677      -0.13062718       0.63632866       1.33085752
Si      -0.36991473       6.28569426      10.09549677       0.61639038      -0.20503788       1.33085752
Si       1.38346672       4.53017070      10.09549677      -0.48576320      -0.43129079       1.33085752
Si      -1.89803527       5.83893991       5.69277272      -0.41285002       0.39947220      -0.00000000
Si       1.76062638       6.07693908       5.69277272       0.55237809       0.15780251      -0.00000000
Si       0.13740889       2.78944557       5.69277272      -0.13952806      -0.55727471      -0.00000000
Si       4.24506154       2.45088743      -0.00000000      -0.00000000      -0.00000000       0.00000000
22
Lattice="8.340341851957492 6.014350552268889e-13 -8.667171389268109e-41 -4.170170925979267 7.222947920041438 1.1438333259195011e-41 -1.5811861672022954e-40 -7.731212653106848e-40 11.713813653541944" Properties=species:S:1:pos:R:3:forces:R:3 unique_starting_index=200 config_type=initial n_minim_iter=9 energy=-3576.2522310265103 stress="-0.006663530634559708 2.2361859953846623e-12 1.7365811350652584e-12 2.2361859953846623e-12 -0.0066635306403539825 -3.372594075576199e-13 1.7365811350652584e-12 -3.372594075576199e-13 0.01731421178769359" free_energy=-3576.2522310265103 pbc="T T T"
Si      -0.07998575       6.18885480       7.29367703      -0.14481958       0.57970797      -0.10016378
Si       1.22952742       4.19779022       7.29367703       0.57445162      -0.16443654      -0.10016378
Si      -1.14954167       4.05925083       7.29367703      -0.42963203      -0.41527142      -0.10016378
Si      -0.07998575       6.18885480       4.42013662      -0.14481958       0.57970797       0.10016378
Si       1.22952742       4.19779022       4.42013662       0.57445162      -0.16443654       0.10016378
Si      -1.14954167       4.05925083       4.42013662      -0.42963203      -0.41527142       0.10016378
Si       2.96756391       3.16302595       9.13374609       0.20612787       0.14703713       0.48318698
Si       5.42564979       3.07144921       9.13374609       0.02427395      -0.25203053       0.48318698
Si       4.11729907       0.98847276       9.13374609      -0.23040182       0.10499341       0.48318698
Si       2.96756391       3.16302595       2.58006756       0.20612787       0.14703712      -0.48318698
Si       5.42564979       3.07144921       2.58006756       0.02427395      -0.25203053      -0.48318698
Si       4.11729907       0.98847276       2.58006756      -0.23040182       0.10499341      -0.48318698
Si      -1.00595876       3.84810509       1.26498600      -0.51859644       0.10121248      -0.89264802
Si      -0.33463478       6.17008122       1.26498600       0.34695080       0.39851145      -0.89264802
Si       1.34059354       4.42770953       1.26498600       0.17164564      -0.49972394      -0.89264802
Si      -1.00595876       3.84810509      10.44882766      -0.51859644       0.10121248       0.89264802
Si      -0.33463478       6.17008122      10.44882766       0.34695080       0.39851145       0.89264802
Si       1.34059354       4.42770953      10.44882766       0.17164564      -0.49972394       0.89264802
Si      -1.85918893       5.72750094       5.85690683      -0.66725677       0.68363197       0.00000000
Si       1.71958485       5.96930229       5.85690683       0.92567104       0.23604533       0.00000000
Si       0.13960407       2.74909261       5.85690683      -0.25841427      -0.91967730      -0.00000000
Si       4.17017093       2.40764931      -0.00000000      -0.00000000       0.00000000       0.00000000
22
Lattice="8.365148552449917 6.052134652014657e-13 -8.732464911952712e-41 -4.182574276225484 7.244431152851948 1.0693150473420438e-41 -1.6156533017380945e-40 -7.780058492691799e-40 11.52121680899102" Properties=species:S:1:pos:R:3:forces:R:3 unique_starting_index=200 config_type=initial n_minim_iter=10 energy=-3576.523739989909 stress="-0.009208505339780662 -1.1738423320639818e-12 1.6193558793585516e-13 -1.1738423320639818e-12 -0.009208505337765256 -3.1741789918117713e-14 1.6193558793585516e-13 -3.1741789918117713e-14 0.0036789801472941184" free_energy=-3576.523739989909 pbc="T T T"
Si      -0.08399473       6.24341895       7.17111912      -0.05251353      -0.21124050      -0.25150028
Si       1.26638251       4.19546325       7.17111912      -0.15668287       0.15109830      -0.25150028
Si      -1.18238778       4.04998011       7.17111912       0.20919640       0.06014220      -0.25150028
Si      -0.08399473       6.24341895       4.35009769      -0.05251353      -0.21124050       0.25150028
Si       1.26638251       4.19546325       4.35009769      -0.15668287       0.15109830       0.25150028
Si      -1.18238778       4.04998011       4.35009769       0.20919640       0.06014220       0.25150028
Si       2.98805625       3.14304838       9.00570501      -0.09018154       0.46206408       0.39534227
Si       5.41050590       3.08517435       9.00570501       0.44525001      -0.15293253       0.39534227
Si       4.14916069       1.01620843       9.00570501      -0.35506846      -0.30913155       0.39534227
Si       2.98805625       3.14304838       2.51551179      -0.09018154       0.46206408      -0.39534227
Si       5.41050590       3.08517435       2.51551179       0.44525001      -0.15293253      -0.39534227
Si       4.14916069       1.01620843       2.51551179      -0.35506846      -0.30913155      -0.39534227
Si      -0.99494749       3.84978651       1.22664808      -0.63842608       0.04084529      -0.32291466
Si      -0.35108761       6.18118770       1.22664808       0.35458610       0.53247056      -0.32291466
Si       1.34603510       4.45788810       1.22664808       0.28383998      -0.57331585      -0.32291466
Si      -0.99494749       3.84978651      10.29456873      -0.63842608       0.04084530       0.32291466
Si      -0.35108761       6.18118770      10.29456873       0.35458610       0.53247056       0.32291466
Si       1.34603510       4.45788810      10.29456873       0.28383998      -0.57331585       0.32291466
Si      -1.89801351       5.76293438       5.76060840       0.09168349       0.16702870      -0.00000000
Si       1.75728005       6.00669189       5.76060840       0.09880935      -0.16291458      -0.00000000
Si       0.14073346       2.71923605       5.76060840      -0.19049284      -0.00411412      -0.00000000
Si       4.18257428       2.41481039      -0.00000000      -0.00000000       0.00000000      -0.00000000
22
Lattice="8.447990444734062 6.104710751737751e-13 -9.252134116245223e-41 -4.223995222367562 7.316174336067591 2.2747827158614114e-42 -1.7197873307791778e-40 -8.043189050430749e-40 11.367466559160988" Properties=species:S:1:pos:R:3:forces:R:3 unique_starting_index=200 config_type=initial n_minim_iter=11 energy=-3576.6497026499455 stress="0.003772136777016582 1.0001695084206129e-12 1.4258203374564493e-12 1.0001695084206129e-12 0.0037721367722257544 -1.4980782463908464e-12 1.4258203374564493e-12 -1.4980782463908464e-12 -0.0026897923510020155" free_energy=-3576.6497026499455 pbc="T T T"
Si      -0.08518646       6.28716257       7.07262761      -0.02833294       0.11785378       0.03795862
Si       1.26344051       4.24636669       7.07262761       0.11623084      -0.03438984       0.03795862
Si      -1.17825405       4.09881942       7.07262761      -0.08789789      -0.08346394       0.03795862
Si      -0.08518646       6.28716257       4.29483895      -0.02833294       0.11785378      -0.03795862