14
Lattice="7.822523245378009 0.12400173483442539 1.978672741925804 0.28000721668465406 8.0737154846997 -1.036887460753234 -1.8343150636384125 -0.9026973197607249 6.4664913028655056" Properties=species:S:1:pos:R:3:forces:R:3 unique_starting_index=20 config_type=initial n_minim_iter=13 energy=-2275.3256186849053 stress="-4.371479158462035e-06 -8.17946284272132e-06 -2.3564915742095143e-05 -8.17946284272132e-06 -1.1015464907701953e-05 1.874048386547125e-05 -2.3564915742095143e-05 1.874048386547125e-05 4.663019296165572e-06" free_energy=-2275.3256186849053 pbc="T T T"
Si       4.72175908       4.40697818       7.24857158      -0.00289989       0.00042692       0.00248244
Si       6.86749818       3.06846160       1.54127250       0.00384955       0.00132050       0.00445921
Si       1.54645632       2.88804172       0.15970500       0.00289989      -0.00042692      -0.00248244
Si      -0.59928278       4.22655830       5.86700408      -0.00384955      -0.00132050      -0.00445921
Si       5.80105591       4.56282479       4.95098518      -0.00209567       0.00075449       0.00166408
Si       5.77887967       2.45645894       3.74557276      -0.00721505       0.00082661       0.00177291
Si       0.46715949       2.73219511       2.45729140       0.00209567      -0.00075449      -0.00166408
Si       0.48933573       4.83856096       3.66270382       0.00721505      -0.00082661      -0.00177291
Si       2.30898392       4.63052977       1.76630007       0.00189864       0.00399593      -0.00157250
Si       1.41255507       2.81599353       4.89940849       0.00375097      -0.00020268       0.00309088
Si       3.95923148       2.66449013       5.64197652      -0.00189864      -0.00399593       0.00157250
Si       4.85566033       4.47902637       2.50886810      -0.00375097       0.00020268      -0.00309088
Si       4.17490262       5.35128107       0.14557511       0.00238649      -0.00017074       0.00100974
Si       2.09331278       1.94373883       7.26270148      -0.00238649       0.00017074      -0.00100974
