14
Lattice="6.35344 -8.694400112480346e-48 -8.634722626515799e-64 7.831219421355292e-32 6.35344 -7.005319244996501e-32 7.831219421355292e-32 4.552713499256878e-33 6.68958" Properties=species:S:1:pos:R:3:forces:R:3 unique_starting_index=410 config_type=initial n_minim_iter=1 energy=-2270.2164656628483 stress="0.05803243955540472 -0.09744837502864143 -0.06230644668991182 1.0543166771467792e-11 1.670961951229255e-12 -2.40497809260743e-12" pbc="T T T"
Si       6.14225102       1.22896877       1.78083978      -0.78323014      -4.01806815       1.42857415
Si       6.14225102       5.12447123       4.90874022      -0.78323014       4.01806815      -1.42857415
Si       2.96553102       4.66208438       1.29398954      -0.40237150      -1.07240965      -2.38016557
Si       2.96553102       1.69135562       5.39559046      -0.40237150       1.07240965       2.38016557
Si       0.21118898       5.12447123       1.78083978       0.78323014       4.01806815       1.42857415
Si       0.21118898       1.22896877       4.90874022       0.78323014      -4.01806815      -1.42857415
Si       3.38790898       1.69135562       1.29398954       0.40237151       1.07240965      -2.38016557
Si       3.38790898       4.66208438       5.39559046       0.40237151      -1.07240965       2.38016557
Si      -0.00000000       3.17672000       1.15443888      -0.00000000       0.00000000      -2.71772038
Si      -0.00000000       3.17672000       5.53514112      -0.00000000      -0.00000000       2.71772038
Si       3.17672000       1.09643030       3.34479000       0.00000000      -0.55391892      -0.00000000
Si       3.17672000       5.25700970       3.34479000       0.00000000       0.55391892      -0.00000000
Si       1.58836000      -0.00000000      -0.00000000      -0.15361803       0.00000000      -0.00000000
Si       4.76508000      -0.00000000      -0.00000000       0.15361803       0.00000000      -0.00000000
14
Lattice="6.343491531286689 3.2896853388317645e-34 2.5530901159601746e-34 7.85185384031432e-32 6.370180629490415 1.1035196267743504e-19 7.845838645646199e-32 1.1619032878066288e-19 6.700844552688132" Properties=species:S:1:pos:R:3:forces:R:3 unique_starting_index=410 config_type=initial n_minim_iter=2 energy=-2270.3486309289246 stress="0.05883999881276816 -0.0933414394320902 -0.059865906599991144 1.175118390982272e-12 -4.5001829887002754e-12 6.963043068815822e-12" pbc="T T T"
Si       6.13255504       1.23180410       1.78398163      -0.77152928      -3.91559398       1.37912632
Si       6.13255504       5.13837652       4.91686293      -0.77152928       3.91559398      -1.37912632
Si       2.96084730       4.67426095       1.29593007      -0.40548624      -1.04123300      -2.32927005
Si       2.96084730       1.69591968       5.40491449      -0.40548624       1.04123300       2.32927005
Si       0.21093649       5.13837652       1.78398163       0.77152928       3.91559398       1.37912632
Si       0.21093649       1.23180410       4.91686293       0.77152928      -3.91559398      -1.37912632
Si       3.38264423       1.69591968       1.29593007       0.40548624       1.04123300      -2.32927005
Si       3.38264423       4.67426095       5.40491449       0.40548624      -1.04123300       2.32927005
Si      -0.00000000       3.18509031       1.15611060       0.00000000      -0.00000000      -2.65687264
Si      -0.00000000       3.18509031       5.54473395       0.00000000      -0.00000000       2.65687265
Si       3.17174577       1.09926374       3.35042228      -0.00000000      -0.57952224       0.00000000
Si       3.17174577       5.27091689       3.35042228       0.00000000       0.57952224      -0.00000000
Si       1.58585755      -0.00000000      -0.00000000      -0.15441891      -0.00000000      -0.00000000
Si       4.75763399      -0.00000000      -0.00000000       0.15441891      -0.00000000       0.00000000
14
Lattice="6.117418122659185 7.766300942300145e-33 6.007355498666531e-33 8.316946576536961e-32 6.747658606254205 4.305410969828701e-17 8.172825693034573e-32 4.542612240482178e-17 6.952876735555169" Properties=species:S:1:pos:R:3:forces:R:3 unique_starting_index=410 config_type=initial n_minim_iter=3 energy=-2272.499705937804 stress="0.07126347007808899 -0.027612833750507042 -0.017294046154908618 5.009125898472589e-12 -2.5226568326269666e-12 -5.370871816505649e-12" pbc="T T T"
Si       5.91230974       1.29530030       1.85435111      -0.56251468      -2.01297137       0.65132469
Si       5.91230974       5.45235830       5.09852563      -0.56251468       2.01297137      -0.65132469
Si       2.85443886       4.94871836       1.33914913      -0.43638735      -0.54847855      -1.45361390
Si       2.85443886       1.79894024       5.61372761      -0.43638735       0.54847855       1.45361390
Si       0.20510838       5.45235830       1.85435111       0.56251468       2.01297137       0.65132469
Si       0.20510838       1.29530030       5.09852563       0.56251468      -2.01297137      -0.65132468
Si       3.26297926       1.79894024       1.33914913       0.43638735       0.54847855      -1.45361390
Si       3.26297926       4.94871836       5.61372761       0.43638735      -0.54847855       1.45361390
Si      -0.00000000       3.37382930       1.19329393      -0.00000000       0.00000000      -1.71768001
Si      -0.00000000       3.37382930       5.75958281       0.00000000      -0.00000000       1.71768001
Si       3.05870906       1.16299727       3.47643837      -0.00000000      -1.04421391       0.00000000
Si       3.05870906       5.58466133       3.47643837      -0.00000000       1.04421391       0.00000000
Si       1.52900162      -0.00000000      -0.00000000      -0.10571505       0.00000000       0.00000000
Si       4.58841651      -0.00000000      -0.00000000       0.10571505       0.00000000       0.00000000
14
Lattice="5.765973412121362 1.280101750007788e-32 1.0737618747822741e-32 8.395417182206103e-32 6.904138334250895 -1.9584895844159336e-18 8.241718916196387e-32 -1.42658358771067e-18 7.053428348054938" Properties=species:S:1:pos:R:3:forces:R:3 unique_starting_index=410 config_type=initial n_minim_iter=4 energy=-2273.8929360490843 stress="0.05369143479978847 -0.022588915165418735 -0.015033568655086408 -2.4122324052847886e-12 -1.5185183081306524e-12 -1.1561778611393741e-12" pbc="T T T"
Si       5.57122655       1.31861809       1.88323333      -0.21478863      -1.37421556       0.50653593
Si       5.57122655       5.58552024       5.17019502      -0.21478862       1.37421556      -0.50653593
Si       2.68934869       5.06164911       1.35390748      -0.15911868      -0.45860826      -1.13404932
Si       2.68934869       1.84248923       5.69952087      -0.15911868       0.45860826       1.13404932
Si       0.19474686       5.58552024       1.88323333       0.21478862       1.37421556       0.50653593
Si       0.19474686       1.31861809       5.17019502       0.21478863      -1.37421556      -0.50653593
Si       3.07662472       1.84248923       1.35390748       0.15911868       0.45860826      -1.13404932
Si       3.07662472       5.06164911       5.69952087       0.15911868      -0.45860826       1.13404932
Si      -0.00000000       3.45206917       1.20510579      -0.00000000       0.00000000      -1.23059378
Si      -0.00000000       3.45206917       5.84832256       0.00000000       0.00000000       1.23059378
Si       2.88298671       1.18648122       3.52671417       0.00000000      -0.90323134       0.00000000
Si       2.88298671       5.71765711       3.52671417      -0.00000000       0.90323133      -0.00000000
Si       1.44089349      -0.00000000      -0.00000000      -0.05914632       0.00000000      -0.00000000
Si       4.32507992      -0.00000000      -0.00000000       0.05914632       0.00000000      -0.00000000
14
Lattice="4.868548727053372 2.5836410529039406e-32 2.325349232120622e-32 8.675828770502653e-32 7.413459074308245 6.529035168107274e-17 8.495374622153534e-32 7.228273437273927e-17 7.395587601597724" Properties=species:S:1:pos:R:3:forces:R:3 unique_starting_index=410 config_type=initial n_minim_iter=5 energy=-2274.787952665231 stress="-0.05403640245256327 0.012643836995120726 0.009247874183034827 1.320511371833921e-11 1.4594655611168552e-12 -2.5083116764021923e-12" pbc="T T T"
Si       4.70243637       1.39633953       1.98121416       1.92989582      -0.80723411       0.56857478
Si       4.70243637       6.01711954       5.41437345       1.92989581       0.80723411      -0.56857478
Si       2.26953271       5.42852330       1.40475084       1.91806786      -0.59042116      -0.88377903
Si       2.26953271       1.98493577       5.99083676       1.91806786       0.59042116       0.88377903
Si       0.16611236       6.01711954       1.98121416      -1.92989582       0.80723411       0.56857478
Si       0.16611236       1.39633953       5.41437345      -1.92989582      -0.80723411      -0.56857478
Si       2.59901601       1.98493577       1.40475084      -1.91806786       0.59042116      -0.88377903
Si       2.59901601       5.42852330       5.99083676      -1.91806786      -0.59042116       0.88377903
Si      -0.00000000       3.70672954       1.24746797       0.00000000      -0.00000000      -0.17302151
Si      -0.00000000       3.70672954       6.14811963       0.00000000       0.00000000       0.17302151
Si       2.43427436       1.26115644       3.69779380       0.00000000      -0.33122753      -0.00000000
Si       2.43427436       6.15230264       3.69779380      -0.00000000       0.33122753       0.00000000
Si       1.21616911      -0.00000000      -0.00000000       0.04214025       0.00000000       0.00000000
Si       3.65237962      -0.00000000      -0.00000000      -0.04214025       0.00000000       0.00000000
14
Lattice="5.301054603129178 1.7912382219674726e-33 7.576355593128702e-33 6.633606984656039e-32 7.267283043906323 -3.029911279565763e-16 7.28159797751007e-32 -3.146097548345063e-16 7.288645400197621" Properties=species:S:1:pos:R:3:forces:R:3 unique_starting_index=410 config_type=initial n_minim_iter=6 energy=-2275.257329658129 stress="0.021910828726216056 0.006342863779070212 0.006065586643015321 -3.1117136206008943e-12 -3.861767015472729e-12 2.9126084504396367e-13" pbc="T T T"
Si       5.12746616       1.36244966       1.95660646       0.60341175      -0.49820575       0.43489875
Si       5.12746616       5.90483339       5.33203894       0.60341175       0.49820575      -0.43489875
Si       2.47838671       5.31683571       1.37815623       0.59951896      -0.45441332      -0.57741991
Si       2.47838671       1.95044733       5.91048917       0.59951896       0.45441332       0.57741991
Si       0.17358845       5.90483339       1.95660646      -0.60341175       0.49820575       0.43489875
Si       0.17358845       1.36244966       5.33203894      -0.60341175      -0.49820575      -0.43489875
Si       2.82266789       1.95044733       1.37815623      -0.59951896       0.45441332      -0.57741991
Si       2.82266789       5.31683571       5.91048917      -0.59951896      -0.45441332       0.57741991
Si      -0.00000000       3.63364152       1.22819948       0.00000000       0.00000000      -0.24902645
Si      -0.00000000       3.63364152       6.06044592      -0.00000000       0.00000000       0.24902645
Si       2.65052730       1.23368082       3.64432270      -0.00000000      -0.35098440       0.00000000
Si       2.65052730       6.03360222       3.64432270      -0.00000000       0.35098440      -0.00000000
Si       1.32436856      -0.00000000      -0.00000000       0.03142865      -0.00000000       0.00000000
Si       3.97668605      -0.00000000      -0.00000000      -0.03142865      -0.00000000       0.00000000
14
Lattice="5.161852988633849 -5.763278512078907e-33 3.4859052652535125e-33 5.750068855536397e-32 7.21151640192446 -1.6582111599654204e-16 6.706237464664961e-32 -1.7009004601948546e-16 7.235150830491832" Properties=species:S:1:pos:R:3:forces:R:3 unique_starting_index=410 config_type=initial n_minim_iter=7 energy=-2275.3925364154584 stress="0.00276690930346058 -0.0012599890916482504 -0.0017402445693876542 -4.983517476674618e-12 2.585933009140735e-12 2.171403882648544e-12" pbc="T T T"
Si       4.99459202       1.34919701       1.94446269       0.84957565      -0.61232725       0.48402593
Si       4.99459202       5.86231939       5.29068814       0.84957565       0.61232725      -0.48402593
Si       2.41506395       5.27348438       1.36509830       0.84645431      -0.49717446      -0.67787215
Si       2.41506395       1.93803202       5.87005254       0.84645431       0.49717446       0.67787215
Si       0.16726097       5.86231939       1.94446269      -0.84957565       0.61232725       0.48402593
Si       0.16726097       1.34919701       5.29068814      -0.84957565      -0.61232725      -0.48402593
Si       2.74678904       1.93803202       1.36509830      -0.84645431       0.49717446      -0.67787215
Si       2.74678904       5.27348438       5.87005254      -0.84645430      -0.49717446       0.67787215
Si      -0.00000000       3.60575820       1.21791593       0.00000000       0.00000000      -0.15834584
Si      -0.00000000       3.60575820       6.01723491       0.00000000      -0.00000000       0.15834584
Si       2.58092649       1.22224302       3.61757542      -0.00000000      -0.24423479      -0.00000000
Si       2.58092649       5.98927338       3.61757542      -0.00000000       0.24423479      -0.00000000
Si       1.28968381      -0.00000000      -0.00000000       0.03174341       0.00000000       0.00000000
Si       3.87216918      -0.00000000      -0.00000000      -0.03174341       0.00000000       0.00000000
14
Lattice="5.145026535047576 -1.3004351533380145e-32 -8.000288798849208e-34 5.018346332541571e-32 7.2222468321942825 -1.7272107123985266e-16 6.243329256544977e-32 -1.7732953047262587e-16 7.250024041233005" Properties=species:S:1:pos:R:3:forces:R:3 unique_starting_index=410 config_type=initial n_minim_iter=8 energy=-2275.4404739586957 stress="0.0017733275037197871 -3.631041968646454e-05 -4.066540483715101e-05 -7.422403580847927e-12 -2.4441973297183575e-13 -2.806098077676254e-12" pbc="T T T"
Si       4.98075985       1.34774289       1.95094577       0.85977890      -0.57760636       0.47397422
Si       4.98075985       5.87450394       5.29907827       0.85977890       0.57760636      -0.47397422
Si       2.40963145       5.27852042       1.36442308       0.85704470      -0.48403106      -0.63617595
Si       2.40963145       1.94372641       5.88560096       0.85704470       0.48403106       0.63617595
Si       0.16426668       5.87450394       1.95094577      -0.85977890       0.57760636       0.47397422
Si       0.16426668       1.34774289       5.29907827      -0.85977890      -0.57760636      -0.47397422
Si       2.73539509       1.94372641       1.36442308      -0.85704470       0.48403106      -0.63617595
Si       2.73539509       5.27852042       5.88560096      -0.85704470      -0.48403106       0.63617595
Si      -0.00000000       3.61112342       1.21960634      -0.00000000      -0.00000000      -0.12318497
Si      -0.00000000       3.61112342       6.03041770      -0.00000000      -0.00000000       0.12318497
Si       2.57251327       1.22268094       3.62501202       0.00000000      -0.19315907      -0.00000000
Si       2.57251327       5.99956589       3.62501202       0.00000000       0.19315907      -0.00000000
Si       1.28557124      -0.00000000      -0.00000000       0.03118173      -0.00000000       0.00000000
Si       3.85945530      -0.00000000      -0.00000000      -0.03118173      -0.00000000       0.00000000
14
Lattice="5.123648244962982 -1.953427521839272e-32 -5.066975365712034e-33 4.352745059950606e-32 7.2228626076137505 -4.31591872552246e-16 5.776471927986747e-32 -4.498926920252957e-16 7.250716327187382" Properties=species:S:1:pos:R:3:forces:R:3 unique_starting_index=410 config_type=initial n_minim_iter=9 energy=-2275.5259374624557 stress="0.0011136942624428742 0.000315697504447525 0.0005364034559328991 1.1943183782867095e-11 6.632685177912749e-13 3.41453995497112e-12" pbc="T T T"
Si       4.96495781       1.34135206       1.95598470       0.84148375      -0.52621519       0.45817863
Si       4.96495781       5.88151055       5.29473162       0.84148375       0.52621519      -0.45817863
Si       2.40449723       5.27351870       1.35804007       0.83893233      -0.46588517      -0.58297114
Si       2.40449723       1.94934391       5.89267626       0.83893233       0.46588517       0.58297114
Si       0.15869044       5.88151055       1.95598470      -0.84148375       0.52621519       0.45817863
Si       0.15869044       1.34135206       5.29473162      -0.84148375      -0.52621519      -0.45817863
Si       2.71915101       1.94934391       1.35804007      -0.83893233       0.46588517      -0.58297114
Si       2.71915101       5.27351870       5.89267626      -0.83893233      -0.46588517       0.58297114
Si      -0.00000000       3.61143130       1.21846161      -0.00000000      -0.00000000      -0.06771716
Si      -0.00000000       3.61143130       6.03225472       0.00000000       0.00000000       0.06771717
Si       2.56182412       1.22060958       3.62535816      -0.00000000      -0.12520547      -0.00000000
Si       2.56182412       6.00225303       3.62535816      -0.00000000       0.12520547       0.00000000
Si       1.28040699      -0.00000000      -0.00000000       0.03196405       0.00000000      -0.00000000
Si       3.84324125      -0.00000000      -0.00000000      -0.03196405       0.00000000      -0.00000000
14
Lattice="5.0520685852770075 -2.504700721223514e-32 -8.960379962614591e-33 3.7496928861878805e-32 7.194114412947144 -5.745976763928908e-16 5.295510073749148e-32 -6.021242487644421e-16 7.201749984378402" Properties=species:S:1:pos:R:3:forces:R:3 unique_starting_index=410 config_type=initial n_minim_iter=10 energy=-2275.8865352235584 stress="0.002076573470433917 -0.000357366717763524 -0.0007158473123720771 -9.518686627450817e-12 1.6884413898221012e-13 -3.260947163181047e-12" pbc="T T T"
Si       4.92099915       1.30412297       1.96794528       0.66018288      -0.26858582       0.39775923
Si       4.92099915       5.88999145       5.23380471       0.66018288       0.26858582      -0.39775923
Si       2.39623233       5.22429512       1.31684340       0.65821244      -0.40343288      -0.33164928
Si       2.39623233       1.96981929       5.88490658       0.65821244       0.40343288       0.33164928
Si       0.13106943       5.88999145       1.96794528      -0.66018288       0.26858582       0.39775923
Si       0.13106943       1.30412297       5.23380471      -0.66018288      -0.26858582      -0.39775923
Si       2.65583625       1.96981929       1.31684340      -0.65821244       0.40343288      -0.33164928
Si       2.65583625       5.22429512       5.88490658      -0.65821244      -0.40343288       0.33164928
Si      -0.00000000       3.59705721       1.20651293       0.00000000       0.00000000       0.13314634
Si      -0.00000000       3.59705721       5.99523705       0.00000000      -0.00000000      -0.13314634
Si       2.52603429       1.20816351       3.60087499      -0.00000000       0.08776601      -0.00000000
Si       2.52603429       5.98595090       3.60087499      -0.00000000      -0.08776601      -0.00000000
Si       1.26348412      -0.00000000      -0.00000000       0.03996490      -0.00000000       0.00000000
Si       3.78858447      -0.00000000      -0.00000000      -0.03996490      -0.00000000       0.00000000
