14
Lattice="3.8844065506400898 0.5569065610590431 0.028606505394016712 3.543804352323452 6.528279412485975 -1.3679608685780997 1.3811118360555925 1.4756066737937448 11.34927962807508" Properties=species:S:1:pos:R:3:forces:R:3 unique_starting_index=296 config_type=initial n_minim_iter=1 energy=-2280.7585045613337 stress="2.139556471637835e-07 -2.6351593386736935e-07 -9.581371794633216e-07 -2.6351593386736935e-07 -3.1903685405411878e-06 1.0651411639570641e-06 -9.581371794633216e-07 1.0651411639570641e-06 -2.982432498051093e-06" free_energy=-2280.7585045613337 pbc="T T T"
Si       5.85992656       1.45002614       1.05834655       0.00426040       0.00082499       0.00089325
Si       2.94939617       7.11076651       8.95157871      -0.00426040      -0.00082500      -0.00089325
Si       4.55239556       7.23664693       3.12027237      -0.00126210      -0.00199790      -0.00185980
Si       4.25692718       1.32414572       6.88965289       0.00126210       0.00199790       0.00185980
Si       5.32929423       4.14677239       8.66200263       0.00015354      -0.00760493       0.00103954
Si       3.48002851       4.41402026       1.34792263      -0.00015354       0.00760493      -0.00103954
Si       2.56577714       3.07424652       6.60887984      -0.00059608      -0.00302122       0.00117612
Si       6.24354560       5.48654612       3.40104542       0.00059608       0.00302122      -0.00117612
Si       3.22136532       4.85789205       9.49935747      -0.00399485      -0.00380303       0.00623558
Si       5.58795742       3.70290060       0.51056779       0.00399485       0.00380303      -0.00623558
Si       4.00379623       0.72258588       2.30157138       0.00185504      -0.00065021       0.00419247
Si       4.80552651       7.83820677       7.70835388      -0.00185504       0.00065021      -0.00419247
Si       3.52753050       4.93141713       5.42503447       0.00218434       0.00092922       0.00496843
Si       5.28179224       3.62937552       4.58489080      -0.00218434      -0.00092922      -0.00496843
