14
Lattice="5.035779999999999 -4.538039837115279e-16 -3.0134218121293644e-16 -0.009754079618100792 6.169192288941136 -2.817766632366097e-15 -0.13842594350716989 -1.7757417534522888 9.198810140382848" Properties=species:S:1:pos:R:3:forces:R:3 unique_starting_index=196 config_type=initial n_minim_iter=1 energy=-2225.679674577954 stress="-0.3245094517516948 -0.3958197609183168 -0.39769040429536723 0.046952627227902874 -0.0696312955486509 -0.12232828174966624" pbc="T T T"
Si       2.06087113       1.29285486       8.64595061      17.54361767      15.60296288      22.69789713
Si       4.11509040       3.01415854       5.81579593      10.04151834       9.12118966      23.42584805
Si       1.78998939       1.95374251       7.11899872      -2.53552766      27.88630637     -15.56078221
Si       0.97372588       3.79581272       1.49797564       5.00959678      -7.25205038      23.96115468
Si       1.38806484       4.45940320       4.23716605      -0.11567065      17.47841187      -7.24222204
Si       4.58824369       0.34509084       6.01023486       0.22014082      -0.68319940       0.26559844
Si       3.24965249       2.51027692       4.56794882     -14.67231455      -8.87435644     -21.53291064
Si       1.66889961       0.38104524       7.38725074      -3.64111375     -32.90928412     -14.36471756
Si       0.74503086       0.43661895       8.95486413     -16.09659913     -12.46783676       8.48568694
Si       0.76878053       3.03123239       4.67590054      -5.97249158     -19.99698833       3.99467583
Si       0.69804671       4.17136740      -0.03269717      -6.54456902      10.02874010     -23.42069815
Si       3.76246523       0.60624501       8.74929189       5.00155624      -1.18666619       0.39542451
Si       2.18649429       5.46103650       0.93933190       1.25665580       0.54212594      -0.39776977
Si       3.19989666       4.81268910       4.21525080      10.50520070       2.71064482      -0.70718521
14
Lattice="5.082738770078722 0.017779756809435873 0.010112734976074853 0.011936442808595116 6.2393811801036785 -0.0083701158159459 -0.1275135207130651 -1.8088949656917046 9.306103917060382" Properties=species:S:1:pos:R:3:forces:R:3 unique_starting_index=196 config_type=initial n_minim_iter=2 energy=-2229.974598291176 stress="-0.27939751193056406 -0.33696932523951645 -0.3408559120406826 0.044919644791343596 -0.059956835755902015 -0.1045953070480353" pbc="T T T"
Si       2.10379685       1.30472574       8.74948378      15.18267108      13.66448090      20.05535286
Si       4.17680635       3.05604821       5.88884081       8.82363686       8.37877289      20.88451323
Si       1.82762614       1.97548708       7.19976070      -2.36353996      24.74154898     -14.20949824
Si       0.99972380       3.83969544       1.51434465       4.41188157      -6.45229820      21.28293918
Si       1.42525535       4.51109829       4.28162512      -0.44293136      15.40052249      -6.40709909
Si       4.64433922       0.35701420       6.08772256       0.28303594      -0.60928923       0.27149412
Si       3.29650345       2.54324175       4.62112161     -13.18023138      -8.02714519     -19.02171592
Si       1.70026038       0.37794800       7.47309419      -3.21350053     -29.07014389     -12.59034365
Si       0.76987543       0.43083043       9.05900516     -14.34188303     -11.34327832       7.54603877
Si       0.79543271       3.06009660       4.72720553      -5.08019613     -17.61969091       3.57846384
Si       0.71855642       4.22237367      -0.03968701      -6.07658851       9.64266428     -20.83740228
Si       3.81776537       0.61446870       8.85609703       5.31004109      -1.21858078       0.43331679
Si       2.22817790       5.52970265       0.94702993       0.93282927       0.01576235      -0.37273747
Si       3.25625397       4.87334157       4.26328470       9.75477507       2.49667462      -0.61332213
14
Lattice="5.466004367952542 0.16734455159559916 0.09516840433330578 0.19442169346198407 6.809488169610656 -0.08646309012990572 -0.035418830152216085 -2.0933872526989172 10.183825150211579" Properties=species:S:1:pos:R:3:forces:R:3 unique_starting_index=196 config_type=initial n_minim_iter=3 energy=-2251.316814893563 stress="-0.10094491560744555 -0.10753787071115484 -0.11637835438139821 0.019300694959826326 -0.01913773964770875 -0.03337767273636011" pbc="T T T"
Si       2.46066253       1.38998893       9.59395819       8.19045384       6.38401210       9.53532726
Si       4.68701140       3.39175926       6.48317211       4.39326349       3.94757071       8.87510758
Si       2.14044640       2.14390822       7.85458797      -0.35144811      10.76099215      -7.19112184
Si       1.21633970       4.19412226       1.64370887       1.83799778      -2.97086197      11.21161738
Si       1.73491113       4.92639236       4.63721327      -1.39310991       5.92771370      -3.10288432
Si       5.10556372       0.44867807       6.72149207      -0.67226264      -0.49855617      -0.04786150
Si       3.68212069       2.80604568       5.05124576      -5.73047458      -3.59377126      -8.64178966
Si       1.95895385       0.34081789       8.17313721      -2.31710377     -12.26600837      -5.95033029
Si       0.97667869       0.36839021       9.90828707      -7.11813461      -6.96027925       3.38423512
Si       1.01747386       3.28650309       5.14154087      -1.59415087      -7.12610970       0.91191710
Si       0.88906927       4.63880156      -0.10448314      -4.97683117       7.86132370      -9.05345127
Si       4.27499570       0.67073005       9.72825902       5.39420929      -1.11540512       0.52487890
Si       2.57354721       6.08775858       1.00220443      -0.64738086      -1.68196616      -0.20188854
Si       3.72343246       5.36293168       4.64909291       4.98497212       1.33134562      -0.25375593
14
Lattice="5.808047495607562 0.2922701499994236 0.16558611647537821 0.3468020044494102 7.263163168213302 -0.17226866738201493 0.03975838582794633 -2.355217145456513 10.934856157247859" Properties=species:S:1:pos:R:3:forces:R:3 unique_starting_index=196 config_type=initial n_minim_iter=4 energy=-2258.951178572667 stress="-0.02678733242941654 -0.028492264550366225 -0.038329755146711074 0.0019924049068126264 -0.00664723245627015 -0.010378695742709691" pbc="T T T"
Si       2.77321305       1.43089748      10.31075751       6.16128677       3.99796020       5.04926683
Si       5.13376264       3.64349903       6.97925217       2.10128206       1.39269277       3.86740999
Si       2.41068349       2.25754243       8.39910107       0.19755592       4.31363006      -4.36779707
Si       1.40216427       4.46953721       1.74837868       1.25239923      -0.53001593       5.81522437
Si       1.99726975       5.24338739       4.92253964      -1.15244074       1.57523066      -1.08510108
Si       5.50841804       0.50327027       7.25662595      -0.44630470      -0.16428284       0.34266503
Si       4.01504514       2.99967206       5.40397122      -3.14976536      -1.09789252      -3.49175413
Si       2.17690654       0.28071070       8.76392355      -1.29877376      -5.17884258      -4.65476867
Si       1.14741424       0.27780187      10.62898297      -4.20294673      -3.73571911       1.96313942
Si       1.20535674       3.44736992       5.48310340      -0.24986393      -3.12977957       0.60211200
Si       1.02971962       4.98020775      -0.17664735      -3.95790108       4.64588957      -4.23118315
Si       4.67871974       0.68575947      10.46693061       4.10954584      -0.40039436      -0.32766872
Si       2.86917430       6.52728844       1.03094831      -1.29619652      -2.16201746       0.40154570
Si       4.12979442       5.74184081       4.96062807       1.93212301       0.47354112       0.11690948
14
Lattice="5.99393779615606 0.3726547366055349 0.21696691336106141 0.4449188370053118 7.5085646464119495 -0.19330449683144524 0.10015973147852009 -2.4593259133391987 11.430028927890374" Properties=species:S:1:pos:R:3:forces:R:3 unique_starting_index=196 config_type=initial n_minim_iter=5 energy=-2260.9794790303517 stress="0.008999885407871526 0.0023662889401959487 -0.005784069102063935 0.0032263980527759994 -0.008194520202127195 -0.0024918813911356786" pbc="T T T"
Si       2.98386102       1.50312453      10.80980155       4.75624838       2.53176675       3.34347544
Si       5.40296820       3.81532403       7.33758955       1.22436088       0.70704297       2.23285436
Si       2.58229560       2.35780578       8.77209090       0.31841971       2.61926577      -2.33970812
Si       1.51987806       4.62819063       1.84926125       1.08079245       0.10134611       2.48943489
Si       2.15952567       5.43507938       5.14228372      -0.15555247       0.69526555      -0.07733688
Si       5.74304110       0.56895453       7.62397542      -0.38937023       0.23577379       0.43512357
Si       4.20821682       3.13057296       5.65691836      -2.39075326       0.24002825      -2.07242725
Si       2.31114470       0.27710471       9.15605441      -0.85195761      -3.39040677      -3.39602020
Si       1.25655494       0.25989701      11.12006920      -2.93770551      -1.70817651       1.61110875
Si       1.32716585       3.55165176       5.73300415       0.56758349      -2.30176828       0.74125706
Si       1.10845592       5.17417893      -0.20476998      -3.44053336       2.72683823      -2.47413735
Si       4.93096233       0.74057525      10.96986318       2.88935071      -0.32606972      -0.46047826
Si       3.04137464       6.76792759       1.08634205      -1.13443184      -2.00947209      -0.23819586
Si       4.37534573       5.97310002       5.20263036       0.46354866      -0.12143405       0.20504984
14
Lattice="5.925186897219574 0.38868396405634686 0.283281370583762 0.4646889596336385 7.486858453440231 -0.22404897945248833 0.2175332547750934 -2.4991787629503808 11.533285398940537" Properties=species:S:1:pos:R:3:forces:R:3 unique_starting_index=196 config_type=initial n_minim_iter=6 energy=-2261.7834261785674 stress="0.0039284446488132944 0.004081849755787451 -0.004115472192776207 0.003998144906297415 -0.0078082882768635686 -0.0012420935263754195" pbc="T T T"
Si       3.09396957       1.47360296      10.93676472       3.88583261       2.53870038       2.78215322
Si       5.43897966       3.79165480       7.44784757       0.82274128       0.53811935       2.07021302
Si       2.65921365       2.33232436       8.84963888       0.43625042       2.30676690      -1.77061040
Si       1.54384728       4.61070933       1.87034524       0.82466995       0.44166836       2.04788699
Si       2.21026263       5.40544863       5.18187457      -0.35428291       0.70128626      -0.03159911
Si       5.75947017       0.55316839       7.74719918      -0.47077747       0.24740549       0.23122070
Si       4.22227960       3.10984713       5.72489125      -2.28643203       0.46805416      -1.71639686
Si       2.38045533       0.23167045       9.23965400      -0.41965621      -3.04961497      -3.12607818
Si       1.35501813       0.20768307      11.22737178      -2.44575336      -1.72348355       1.58245704
Si       1.38925654       3.51131772       5.78088979       0.87801445      -2.25860824       0.43838018
Si       1.09917529       5.17161417      -0.22952784      -3.27432393       2.65050918      -1.85622594
Si       5.00694449       0.70728625      11.10741110       3.08169312      -0.61475616      -0.45466406
Si       3.03601219       6.74260433       1.09694304      -1.25752255      -2.13878627      -0.53663637
Si       4.40392608       5.94521010       5.26629136       0.57954662      -0.10726090       0.33989978
14
Lattice="5.850438803377464 0.4046720801072704 0.46044226973479063 0.48442033414060487 7.378419334003129 -0.33106129370927667 0.537568241564552 -2.6274671578913207 11.7660001405358" Properties=species:S:1:pos:R:3:forces:R:3 unique_starting_index=196 config_type=initial n_minim_iter=7 energy=-2263.4692778270532 stress="-0.004327264853543898 0.008134985611220554 0.00047066988841781393 0.00615527904513218 -0.005069986140096408 0.0027171970046152476" pbc="T T T"
Si       3.42034028       1.33714030      11.22052473       1.96391340       2.46725359       1.65469346
Si       5.60563718       3.65532703       7.69847027      -0.16474095       0.07934645       1.74478997
Si       2.89316267       2.20748314       9.01438851       0.56770949       1.69197588      -0.43497549
Si       1.60803503       4.52467523       1.90006808       0.53773176       1.06000867       1.33236652
Si       2.34979088       5.26511611       5.24638323      -0.53779495       0.81367253      -0.07411006
Si       5.89982470       0.45959505       8.03973038      -0.62732423       0.41522649       0.10140990
Si       4.31622501       3.00146338       5.87243589      -1.94909246       0.84463908      -0.87005374
Si       2.60246454       0.07319892       9.42214966       0.28153194      -2.38136821      -2.56795482
Si       1.63629546       0.02424397      11.46398234      -1.41103575      -1.79132922       1.54228926
Si       1.55881875       3.35643829       5.86957153       1.70123545      -2.15130985      -0.25466639
Si       1.06692239       5.12714197      -0.30966980      -2.62383171       2.43218078      -1.03789895
Si       5.29064200       0.55536283      11.42645637       3.05795985      -0.99154907      -0.41609463
Si       3.03737236       6.61291395       1.09416997      -1.56260704      -2.41291883      -1.12593229
Si       4.52594096       5.79723332       5.39613109       0.76634519      -0.07582829       0.40613726
14
Lattice="5.952719840027346 0.33199512375442564 0.5796875504527285 0.3951877274559233 7.159611527364225 -0.49919415779106124 0.77820859010428 -2.8128037060770152 11.823915667372441" Properties=species:S:1:pos:R:3:forces:R:3 unique_starting_index=196 config_type=initial n_minim_iter=8 energy=-2264.8433166393033 stress="-0.0004531046062896309 0.008654978087198076 -0.0030795396595621563 0.005491979373072847 -0.002420951897472961 0.006999397238249414" pbc="T T T"
Si       3.67851157       1.04646129      11.26807896       1.66654964       2.53430265       1.52513418
Si       5.78724194       3.32572112       7.74349386      -0.31599786      -0.28098107       1.31715841
Si       3.07451847       1.93641109       9.00485300       0.47212519       1.52305601      -0.22455489
Si       1.62072976       4.34312070       1.83911743       0.68958156       1.22010696       0.93554910
Si       2.40804978       4.97878012       5.15965169      -0.37564220       1.07189748      -0.25093421
Si       6.12439810       0.22103923       8.14681739      -0.46609360       0.30219992       0.12655349
Si       4.43030779       2.75202424       5.87088415      -1.75426973       0.59546431      -0.48849184
Si       2.80004678      -0.18128535       9.43526367       0.06458285      -2.10716733      -2.23025941
Si       1.84324689      -0.26630787      11.50089567      -1.41053051      -1.85446138       1.57171429
Si       1.65745800       3.09200899       5.81616481       1.69671652      -2.23180605      -0.15866151
Si       0.98938181       4.99445292      -0.43079223      -1.72110282       2.26235884      -0.77787394
Si       5.59704972       0.23461805      11.51462633       2.81858311      -0.83414858      -0.55372010
Si       3.00344004       6.33746064       0.98510666      -1.90774536      -2.48445877      -1.17330581
Si       4.63069740       5.46443059       5.35393511       0.54324322       0.28363702       0.38169224
14
Lattice="5.959423464512051 0.1968461678871272 0.6314408219507373 0.22960756230138174 6.975645763847481 -0.6262785438187476 0.9202184092343233 -2.9454051306087066 11.992481184273831" Properties=species:S:1:pos:R:3:forces:R:3 unique_starting_index=196 config_type=initial n_minim_iter=9 energy=-2265.862082262886 stress="-0.0020348683333890876 0.006236542508106155 -7.777501330457542e-05 0.006357143177493273 -0.0010021963567247458 0.005869747908889418" pbc="T T T"
Si       3.75342655       0.78631446      11.40432329       1.14456900       2.65562103       1.29627848
Si       5.77129030       2.99762842       7.82266689      -0.43572433      -0.22317742       0.98217664
Si       3.09900187       1.69477084       9.07978831       0.34607026       1.68424532      -0.00358158
Si       1.54524734       4.17922874       1.80374576       0.49995574       1.05928077       0.49272405
Si       2.32932302       4.72941486       5.13756506      -0.49483834       1.36749577      -0.34799857
Si       6.17927378      -0.03399143       8.27397937      -0.35616514       0.09970560      -0.03512032
Si       4.39753547       2.50413763       5.90806398      -1.68297516       0.36262005      -0.25851818
Si       2.86524621      -0.39745300       9.53246403      -0.03923959      -2.39005120      -1.68968755
Si       1.91616563      -0.49858715      11.64711969      -1.26084416      -1.71989847       1.35394987
Si       1.64074491       2.86949166       5.83598069       1.48275234      -2.47697057      -0.06383321
Si       0.85959531       4.87190726      -0.52813036      -0.81673441       1.78089432      -0.54000183
Si       5.69943420      -0.07060253      11.66934116       2.46252862      -0.51676476      -0.58152711
Si       2.85007835       6.07923526       0.89712652      -1.68430709      -2.38075542      -0.97868554
Si       4.55479684       5.14892951       5.35384636       0.83495225       0.69775497       0.37382486
14
Lattice="6.041067283984258 -0.04507269321062875 0.6885399031033976 -0.06691856329369109 6.721364588640272 -0.9370724732788082 1.1075831087586439 -3.328684182436296 12.14615700492687" Properties=species:S:1:pos:R:3:forces:R:3 unique_starting_index=196 config_type=initial n_minim_iter=10 energy=-2267.354813130508 stress="0.007128355715578534 0.0009771917588068133 0.004741212856187628 0.0049735774154157425 0.00031823051675228237 0.0006125612197039038" pbc="T T T"
Si       3.85023557       0.22171509      11.44559491       1.01207956       2.15434122       0.95361053
Si       5.75546842       2.36678686       7.78100248      -0.38660134       0.21496181       0.60249082
Si       3.11616939       1.19680526       9.04106820       0.00265990       1.65769975       0.30063521
Si       1.40947107       3.90901317       1.64442477      -0.10208444       0.28451165      -0.26292776
Si       2.17167270       4.28962916       4.94015106      -0.76033180       1.34319883      -0.35914925
Si       6.29759253      -0.56929720       8.34841185       0.01547097       0.06718904      -0.09070770
Si       4.34481360       2.03011172       5.83481321      -1.49197735       0.33632412       0.08139804
Si       2.95350253      -0.88649590       9.56104057      -0.46274843      -2.71053454      -1.57446865
Si       1.99308004      -1.03386648      11.73480322      -1.24098051      -0.67951932       0.91134117
Si       1.59425025       2.43215563       5.74608214       0.98549956      -2.21135604       0.23603174
Si       0.64438062       4.70591222      -0.76107847       0.23269142       0.15693454      -0.31742303
Si       5.87901104      -0.72704674      11.74553467       1.85393773      -0.20107380      -0.89592395
Si       2.59791733       5.67134997       0.63623211      -0.88881107      -0.96330520      -0.20118583
Si       4.44213488       4.59184036       5.18763003       1.23119579       0.55062794       0.61627866
14
Lattice="5.788263037689488 -0.07316532091894493 0.6557659086066753 -0.10084438004662412 6.711792362291706 -1.1365915132814675 1.064570539779165 -3.6227361776150317 11.917013547297259" Properties=species:S:1:pos:R:3:forces:R:3 unique_starting_index=196 config_type=initial n_minim_iter=11 energy=-2268.0033438828923 stress="-0.012171405438343216 -0.0024336022458145918 -0.004679590050877368 0.0023733848369804312 -0.004632020053962058 0.0037492558273745343" pbc="T T T"
Si       3.69432190      -0.04945590      11.12367691       1.13039151       1.61132916       0.76177684
Si       5.48740842       2.14741910       7.48061735      -0.71171037      -0.14661708       1.25874943
Si       2.96809067       0.97956012       8.73947429       0.11992843       0.98774348       0.01611198
Si       1.32339622       3.85103302       1.45633510      -0.45516648       0.13301463       0.11744296
Si       2.03468607       4.16192387       4.63548333      -1.51701650       0.83137695      -0.07531703
Si       6.02708384      -0.78839543       8.11712256      -0.34007951       0.53189354      -0.00849857
Si       4.11812826       1.86970401       5.58706770      -1.33456698       0.68726300      -0.16539395
Si       2.80975069      -1.16377987       9.29520884      -0.57784037      -2.03240212      -2.07226457
Si       1.88281414      -1.34485985      11.45545775      -0.30069409      -0.60158331       1.37605633
Si       1.52642178       2.23512082       5.52065978       1.58017841      -1.87316483      -0.26950531
Si       0.59462948       4.70454638      -0.90616298      -0.42010769       0.12826008      -0.63188376
Si       5.65200615      -1.03215458      11.41788325       1.24376702      -0.21007180      -1.13365264
Si       2.44057638       5.60900630       0.41829495      -0.53830623      -0.14604541       0.31001772
Si       4.24829950       4.43367308       4.89341709       2.12122286       0.09900371       0.51636056
14
Lattice="5.96392006532194 -0.13163866806585425 0.7404205115266571 -0.1728186710125319 6.757747032763869 -1.191438474248022 1.2349988932774512 -3.715860998508896 12.08325023205552" Properties=species:S:1:pos:R:3:forces:R:3 unique_starting_index=196 config_type=initial n_minim_iter=12 energy=-2268.310505947551 stress="0.007478011969464297 0.00410226426096382 0.004287105732646252 -0.0018012138166160843 -0.0006421256023531295 0.0012293890666031507" pbc="T T T"
Si       3.91232756      -0.13407262      11.29941654       0.83210014       1.32314249       0.56313638
Si       5.69355846       2.06548316       7.63241963      -0.61619267       0.05702573       0.50852321
Si       3.12567487       0.91825317       8.86621044       0.02729037       0.78423306       0.27598340
Si       1.33826626       3.85416821       1.46613752      -0.36884611       0.18698616      -0.26787795
Si       2.08778025       4.14911947       4.68213992      -1.14189563       0.63235369       0.01198099
Si       6.28059815      -0.88841989       8.28867103       0.00958463       0.42417617       0.17666679
Si       4.26199706       1.81812770       5.68574450      -1.30259667       0.49095056       0.15545245
Si       2.97859957      -1.25364441       9.42624726      -0.46671052      -1.71261220      -1.74160731
Si       2.05358839      -1.43723680      11.62688648      -0.75750292       0.00625100       0.89760312
Si       1.61329791       2.19266316       5.59242956       1.30592771      -1.41548351      -0.17517072
Si       0.55827392       4.73358562      -0.94370422       0.36331964      -0.48105056      -0.23919517
Si       5.93649897      -1.15002301      11.61645967       1.46672395      -0.21271995      -1.08122070
Si       2.46316588       5.61495207       0.42314255      -0.77340762      -0.05091123       0.27529995
Si       4.39449442       4.39254011       4.98441907       1.42220571      -0.03234141       0.64042558
14
Lattice="5.890601549277582 -0.1415330251229835 0.7405261850056246 -0.18479795458288087 6.70822745531481 -1.162160759773213 1.2406963379592664 -3.65767381317979 11.986551294363494" Properties=species:S:1:pos:R:3:forces:R:3 unique_starting_index=196 config_type=initial n_minim_iter=13 energy=-2268.480553442852 stress="0.0013530895384682867 -0.0007675960009834612 0.0020152533893691886 0.00033546640942312185 -0.0009416161725598585 0.0019327566972915154" pbc="T T T"
Si       3.88158661      -0.10381796      11.22441632       0.83977327       1.30143145       0.45538426
Si       5.62497866       2.06086082       7.59201573      -0.83949416      -0.06092442       0.75187337
Si       3.09553584       0.93417609       8.80913733       0.13539464       0.95690317       0.07199481
Si       1.31366622       3.83049856       1.46642001      -0.59250605      -0.01849868       0.04962810
Si       2.05323590       4.13300881       4.66101637      -1.14938932       0.79246910      -0.09137898
Si       6.21371180      -0.87009745       8.23316888      -0.13953625       0.43623932       0.10137050
Si       4.20529102       1.81540650       5.65325419      -1.12590993       0.62522457       0.14863303
Si       2.95058422      -1.22861922       9.34931001      -0.42879318      -1.78446723      -1.79891632
Si       2.04151173      -1.39904049      11.54583887      -0.64788499      -0.19047927       1.07819002
Si       1.60257392       2.18390599       5.56385749       1.38345962      -1.59221238      -0.17787771
Si       0.54300201       4.69520324      -0.92194012       0.16191006      -0.33372004      -0.33142576
Si       5.88437055      -1.12067748      11.53125217       1.41254277      -0.17501885      -1.14267821
Si       2.41869783       5.57183692       0.44065308      -0.63713787       0.14804183       0.23887720
Si       4.34544814       4.36571410       4.97260931       1.62757138      -0.10498856       0.64632571
14
Lattice="5.879921652227006 -0.15890459022088183 0.748825376753722 -0.20605868338410993 6.717013316979753 -1.1661529430426372 1.2622756121734529 -3.66564426257312 11.95505799912642" Properties=species:S:1:pos:R:3:forces:R:3 unique_starting_index=196 config_type=initial n_minim_iter=14 energy=-2268.6151299937997 stress="0.0016184836406980382 -2.9413189569371286e-05 0.002716524515469734 0.00034759695027632273 -0.0010554332370942942 0.0020690914629930748" pbc="T T T"
Si       3.89035628      -0.11066145      11.19779155       0.81396609       1.26167682       0.40699381
Si       5.61252825       2.04592835       7.57923029      -0.88490057      -0.10013301       0.75919828
Si       3.09639999       0.93025339       8.78503422       0.16463970       0.91869619       0.01735370
Si       1.29820670       3.83143774       1.45953493      -0.64786065      -0.06539401       0.11452389
Si       2.03572437       4.13599871       4.64232222      -1.12245266       0.77747654      -0.06928968
Si       6.21202387      -0.88749453       8.21901179      -0.12345000       0.44281910       0.10816199
Si       4.19201006       1.80819076       5.63945121      -1.07891256       0.64121080       0.16899341
Si       2.95474886      -1.24318912       9.31843301      -0.39559699      -1.70897597      -1.78993539
Si       2.05246377      -1.40882238      11.52032676      -0.63212515      -0.16367986       1.07998505
Si       1.60561421       2.17514026       5.54999555       1.37671214      -1.51100406      -0.19647833
Si       0.52710812       4.69844729      -0.92437406       0.16735070      -0.37979583      -0.31618163
Si       5.89371380      -1.13852787      11.50219595       1.37251364      -0.16718075      -1.18799821
Si       2.39457476       5.57209962       0.43782704      -0.61191541       0.21199688       0.24108860
Si       4.33738909       4.35649447       4.96582978       1.60203170      -0.15771286       0.66358452
14
Lattice="5.87005415226314 -0.1731300678750775 0.755649335957915 -0.22346680261697643 6.718071381562151 -1.1684541108275055 1.280028372967413 -3.668961383661406 11.921387773542326" Properties=species:S:1:pos:R:3:forces:R:3 unique_starting_index=196 config_type=initial n_minim_iter=15 energy=-2268.7190056046675 stress="0.0014436325644381833 -4.1933087770699054e-05 0.0030684703831670495 0.0005094338127587747 -0.0010992452187020996 0.0020844518068637756" pbc="T T T"
Si       3.89671370      -0.11665386      11.16868131       0.81286666       1.22875051       0.36881983
Si       5.60146549       2.03156878       7.56418023      -0.93135814      -0.13758753       0.78018577
Si       3.09675664       0.92578926       8.75968857       0.19457907       0.91308079      -0.04625245
Si       1.28534308       3.82845388       1.45347315      -0.70052923      -0.10782255       0.18423976
Si       2.02150012       4.13434928       4.62454620      -1.09628251       0.78797120      -0.06870106
Si       6.20974401      -0.90121780       8.20257524      -0.11719112       0.44556010       0.11397792
Si       4.18091088       1.80039862       5.62503212      -1.03160744       0.65364766       0.18275642
Si       2.95815555      -1.25369925       9.28765306      -0.37412027      -1.66523999      -1.79490725
Si       2.06151027      -1.41550924      11.49167022      -0.63548163      -0.16878093       1.09266927
Si       1.60757837       2.16642306       5.53490154       1.36730026      -1.47284292      -0.20208293
Si       0.51398918       4.69666502      -0.92536211       0.15721606      -0.40514986      -0.31332186
Si       5.90005384      -1.15232855      11.47133529       1.35046940      -0.15614355      -1.22260479
Si       2.37457853       5.56734611       0.43554531      -0.58826709       0.28290989       0.24898583
Si       4.32960141       4.34465299       4.95737700       1.59240597      -0.19835281       0.67623554
14
Lattice="5.838177552529768 -0.22710810068462378 0.7819769881133017 -0.28953202724734345 6.723574958888659 -1.1815022311638028 1.3480310793291794 -3.6884115261160444 11.781405100274482" Properties=species:S:1:pos:R:3:forces:R:3 unique_starting_index=196 config_type=initial n_minim_iter=16 energy=-2269.109752033255 stress="1.2643408010542479e-05 -0.0005817294028171108 0.004279632847747851 0.0013364672652329582 -0.0009026004436184904 0.0016531106855533241" pbc="T T T"
Si       3.92361434      -0.14564915      11.04392942       0.84162965       1.08924361       0.24137456
Si       5.56429675       1.97330066       7.49660387      -1.08049513      -0.28490961       0.83386225
Si       3.10069974       0.90454114       8.65099951       0.30337027       0.87715209      -0.29924726
Si       1.23751852       3.81628110       1.42659070      -0.84539391      -0.22695839       0.42927053