16
Lattice="8.713739898449212 0.674080968384728 -0.6955547353206347 -3.730824995665999 7.903454658911782 0.6955529209417229 -3.487019308478965 -3.7104183692826083 7.137291953309477" Properties=species:S:1:pos:R:3:forces:R:3 unique_starting_index=456 config_type=initial n_minim_iter=1 energy=-2600.2958547944995 stress="-0.00020855383782500988 1.6985002137879975e-05 -5.731633983767694e-05 1.6985002137879975e-05 -0.00018918304227927618 3.329654942936928e-05 -5.731633983767694e-05 3.329654942936928e-05 -0.0002268611009111965" free_energy=-2600.2958547944995 pbc="T T T"
Si      -4.23263191       4.44151786       3.81446601      -0.01305394       0.00144027       0.00735740
Si      -1.26288495       2.71631419       4.01837823       0.00771747      -0.01062639      -0.00735740
Si      -2.74139613       3.57521963       2.19616863       0.00434061      -0.00866468      -0.01151926
Si      -2.75412073       3.58261241       5.63667561      -0.00967707      -0.00052144       0.01151926
Si      -3.49824860       5.31706220       7.14950259       0.01473505       0.00165147       0.01194422
Si      -0.86608861       3.78797022       0.68334123      -0.00586447       0.01361826      -0.01194422
Si       0.69139353       2.88318849       2.60287960       0.01408798       0.00202736       0.01264642
Si      -5.05573074       6.22184393       5.22996423      -0.00521740       0.01324236      -0.01264643
Si       5.98751448       0.42500764      -0.33538227       0.01953863      -0.00566808      -0.01102374
Si      -6.08376317       1.70140972       7.47267298      -0.01460236       0.01416531       0.01102373
Si       1.13326465       3.24496951       4.93247670      -0.00812925       0.01040492       0.01900160
Si      -1.22951334      -1.11855215       2.20481401       0.01306552      -0.00190769      -0.01900160
Si      -1.88293210       7.71958713       0.74327059      -0.00195670      -0.00861406      -0.01436981
Si       4.15163392      -1.52216963       6.39401926      -0.00651369      -0.00596677       0.01436982
Si       0.33472234       0.69517320       1.68981879      -0.01678020      -0.00000269       0.00171673
Si       1.93397949       5.50224431       5.44747106       0.00830981      -0.01457814      -0.00171673
16
Lattice="8.715124880285195 0.6740830587696292 -0.6953043663462442 -3.731509237235975 7.904658815214711 0.6953025517121787 -3.4872193618137284 -3.711108815332162 7.1385019642990875" Properties=species:S:1:pos:R:3:forces:R:3 unique_starting_index=456 config_type=initial n_minim_iter=2 energy=-2600.2958868870364 stress="3.2091972856411933e-05 -1.0277700283369304e-05 3.2017020168644343e-06 -1.0277700283369304e-05 2.0370632849356347e-05 -1.8599525195636632e-06 3.2017020168644343e-06 -1.8599525195636632e-06 3.853404166041978e-05" free_energy=-2600.2958868870364 pbc="T T T"
Si      -4.23323231       4.44213586       3.81484991      -0.00956907       0.00294846       0.00743963
Si      -1.26293498       2.71661246       4.01895397       0.00730139      -0.00685203      -0.00743963
Si      -2.74178663       3.57571570       2.19632475       0.00582203      -0.00599264      -0.00926288
Si      -2.75438066       3.58303263       5.63747913      -0.00808972       0.00208907       0.00926288
Si      -3.49854716       5.31771355       7.15049720       0.01561139      -0.00160213       0.00982680
Si      -0.86625919       3.78854722       0.68330627      -0.00912494       0.01276784      -0.00982680
Si       0.69160725       2.88354224       2.60331827       0.01093729       0.00111317       0.01489915
Si      -5.05641360       6.22271853       5.23048520      -0.00445084       0.01005254      -0.01489915
Si       5.98850362       0.42499083      -0.33520111       0.01643154      -0.00497795      -0.00913301
Si      -6.08446780       1.70157020       7.47370183      -0.01246374       0.01180808       0.00913300
Si       1.13361581       3.24532332       4.93335021      -0.00681525       0.00852674       0.01609455
Si      -1.22957999      -1.11876229       2.20515051       0.01078306      -0.00169659      -0.01609455
Si      -1.88331257       7.72072468       0.74309411      -0.00448665      -0.00681763      -0.01772687
Si       4.15261051      -1.52262710       6.39540575      -0.00369992      -0.00727465       0.01772687
Si       0.33481755       0.69522774       1.69011902      -0.01936545       0.00182586      -0.00158031
Si       1.93448039       5.50286984       5.44838084       0.01117888      -0.01591814       0.00158031
16
Lattice="8.713496999423207 0.6793274444925878 -0.6921669148022183 -3.7261471098589714 7.905842520909842 0.692165098808439 -3.4861570025908963 -3.7160246748838004 7.1346675285318115" Properties=species:S:1:pos:R:3:forces:R:3 unique_starting_index=456 config_type=initial n_minim_iter=3 energy=-2600.296294933818 stress="5.932988790022071e-05 7.57977308160648e-05 -0.0001759444537425265 7.57977308160648e-05 0.00014577447779145437 0.00010221069653193838 -0.0001759444537425265 0.00010221069653193838 -1.0612078230677994e-05" free_energy=-2600.296294933818 pbc="T T T"
Si      -4.23022034       4.44138731       3.81192292      -0.00558653      -0.00940224       0.00137137
Si      -1.25865275       2.71512598       4.01490908      -0.00540032      -0.00951041      -0.00137136
Si      -2.73761683       3.57429454       2.19214127      -0.00430411      -0.01014723      -0.00002032
Si      -2.75125625       3.58221876       5.63469072      -0.00668274      -0.00876542       0.00002033
Si      -3.49001896       5.31646335       7.14648897      -0.01382170       0.00085194       0.00601364
Si      -0.86514523       3.79160414       0.68034261       0.00758672      -0.01158477      -0.00601364
Si       0.69574210       2.88484426       2.60407774       0.00275201      -0.00877616      -0.01197224
Si      -5.05090628       6.22322323       5.22275384      -0.00898699      -0.00195666       0.01197224
Si       5.99008507       0.42774624      -0.33459321       0.00963719      -0.00717818      -0.00815712
Si      -6.08179522       1.69939304       7.46925949      -0.01100944       0.00481599       0.00815712
Si       1.13573713       3.24776510       4.93337223      -0.00838111       0.00328913       0.01139644
Si      -1.22744729      -1.12062582       2.20129405       0.00700886      -0.00565131      -0.01139644
Si      -1.87907650       7.72172259       0.73784029       0.02141052       0.00896680       0.00123834
Si       4.15244139      -1.52336880       6.39682514      -0.00281643       0.02304086      -0.00123835
Si       0.33267479       0.69563257       1.68910598       0.00959601       0.01583016       0.01405951
Si       1.94069010       5.50272121       5.44555945       0.00899808       0.01617750      -0.01405952
16
Lattice="8.712194779314919 0.6788966353329265 -0.6891905013848284 -3.7258762893331925 7.904497890023353 0.6891886857666023 -3.4830228747954752 -3.7166580683593655 7.133948872674827" Properties=species:S:1:pos:R:3:forces:R:3 unique_starting_index=456 config_type=initial n_minim_iter=4 energy=-2600.29635392812 stress="1.2716081636323534e-06 3.0662797992270458e-06 3.914971704217567e-05 3.0662797992270458e-06 4.768568214370702e-06 -2.274310257807956e-05 3.914971704217567e-05 -2.274310257807956e-05 5.2553997823031005e-06" free_energy=-2600.29635392812 pbc="T T T"
Si      -4.22885212       4.44006831       3.80954888      -0.00480304      -0.01198308       0.00779632
Si      -1.25707136       2.71368315       4.01358805      -0.00803038      -0.01010823      -0.00779632
Si      -2.73658960       3.57317362       2.19013727       0.00020849      -0.01489441       0.00235778
Si      -2.74933388       3.58057784       5.63299965      -0.01304191      -0.00719691      -0.00235778
Si      -3.48704125       5.31420856       7.14415919      -0.01333841       0.00630394       0.00275227
Si      -0.86517402       3.79109590       0.67897732       0.01208341      -0.00846427      -0.00275227
Si       0.69670490       2.88375998       2.60393455       0.00255515      -0.00292905      -0.01449550
Si      -5.04892017       6.22154448       5.21920196      -0.00381014       0.00076872       0.01449550
Si       5.98966164       0.42728707      -0.33278689       0.00954274      -0.01225314      -0.00533851
Si      -6.07885022       1.69816436       7.46673452      -0.01537123       0.00222003       0.00533851
Si       1.13699703       3.24632804       4.93335178      -0.00831251      -0.00188056       0.01403811
Si      -1.22618562      -1.12087661       2.20059585       0.00248402      -0.00815255      -0.01403811
Si      -1.87901902       7.72017379       0.73516253       0.01881747       0.01199594      -0.00218264
Si       4.15420162      -1.52471947       6.39878424       0.00109944       0.02228881       0.00218263
Si       0.33279450       0.69523493       1.68904320       0.00751211       0.01856353       0.01008600
Si       1.94238810       5.50021939       5.44490357       0.01240480       0.01572123      -0.01008601
16
Lattice="8.71122416774975 0.6771697325689692 -0.689407966418152 -3.7268956366251422 7.902799299210399 0.6894061515245093 -3.4822171024107478 -3.7148354062449536 7.133963179596799" Properties=species:S:1:pos:R:3:forces:R:3 unique_starting_index=456 config_type=initial n_minim_iter=5 energy=-2600.2964639049833 stress="2.3567287020999863e-05 -0.00019895424206589624 -0.00010551284700410681 -0.00019895424206589624 -0.00020333263266255277 6.129526816299409e-05 -0.00010551284700410681 6.129526816299409e-05 0.0001236074879006696" free_energy=-2600.2964639049833 pbc="T T T"
Si      -4.22996938       4.43914079       3.81035190       0.00089416      -0.01333871       0.00185779
Si      -1.25753722       2.71237720       4.01301680      -0.01203014      -0.00583064      -0.00185779
Si      -2.73676751       3.57170040       2.18992091      -0.00437542      -0.01027747       0.00757637
Si      -2.75073909       3.57981759       5.63344779      -0.00676056      -0.00889188      -0.00757637
Si      -3.48771334       5.31353539       7.14490660      -0.00074084       0.00984758      -0.00788587
Si      -0.86563944       3.79030269       0.67846168       0.00892148       0.00423449       0.00788587
Si       0.69668768       2.88270639       2.60397130      -0.00240773       0.01081592      -0.00607696
Si      -5.05004046       6.22113169       5.21939699       0.01058837       0.00326615       0.00607696
Si       5.99017324       0.42537614      -0.33361064      -0.00232965      -0.01453740      -0.01040517
Si      -6.07995788       1.69948486       7.46757258      -0.01147450      -0.00922491       0.01040518
Si       1.13550824       3.24557919       4.93469888      -0.01617160      -0.00649625       0.00461618
Si      -1.22529288      -1.12071819       2.19926306       0.00236745      -0.01726606      -0.00461618
Si      -1.87951968       7.71841007       0.73449013       0.00876535       0.01420079       0.01299253
Si       4.15372327      -1.52420539       6.39947095       0.00799413       0.01464880      -0.01299254
Si       0.33210275       0.69587298       1.68946690       0.01956697       0.00792584       0.00127055
Si       1.94210084       5.49833171       5.44449417      -0.00280749       0.02092375      -0.00127056
16
Lattice="8.70665147319751 0.685792725256432 -0.6833951169017864 -3.717139817540283 7.903098480833872 0.6833933001208644 -3.4791647644463057 -3.7225751844022357 7.12607654757232" Properties=species:S:1:pos:R:3:forces:R:3 unique_starting_index=456 config_type=initial n_minim_iter=6 energy=-2600.2968205148304 stress="-5.472943876869482e-05 -1.0810391456356416e-06 -2.3173670437131962e-05 -1.0810391456356416e-06 -5.596230792625648e-05 1.3462199824195201e-05 -2.3173670437131962e-05 1.3462199824195201e-05 -5.7513932746924914e-05" free_energy=-2600.2968205148304 pbc="T T T"
Si      -4.22300027       4.43475504       3.80404474      -0.01825409      -0.01420546      -0.00095460
Si      -1.25199111       2.70881811       4.00542448      -0.00329790      -0.02289390       0.00095461
Si      -2.73000060       3.56743212       2.18383317      -0.01112462      -0.01834716      -0.00869153
Si      -2.74499078       3.57614103       5.62563604      -0.01042737      -0.01875221       0.00869154
Si      -3.47608343       5.31103241       7.13520975       0.01417979       0.01904970      -0.01768579
Si      -0.86076654       3.79172502       0.67425905       0.00952427       0.02175422       0.01768579
Si       0.70235385       2.88366790       2.60074633      -0.00355758       0.02935380       0.00156290
Si      -5.03920381       6.21908953       5.20872247       0.02726164       0.01145011      -0.00156291
Si       5.99036453       0.42894755      -0.33164179      -0.00222555       0.00353324      -0.01962090
Si      -6.07389785       1.69368036       7.45771710       0.00417173      -0.00018311       0.01962090
Si       1.13889619       3.24729357       4.93319869      -0.01575527       0.01139301      -0.00493838
Si      -1.22242951      -1.12466566       2.19287661       0.01770145      -0.00804288       0.00493838
Si      -1.86889383       7.72107004       0.72749891       0.00017074      -0.00481692       0.01719484
Si       4.15382273      -1.52139696       6.39857553      -0.00426899      -0.00223777      -0.01719484
Si       0.33252723       0.69849259       1.68897205       0.01264789      -0.01206522       0.00365458
Si       1.95240167       5.50118048       5.43710239      -0.01674614       0.00501054      -0.00365458
16
Lattice="8.624870971779947 0.8083138149541021 -0.5763649725097629 -3.5701965355871623 7.892747894249804 0.5763631320017696 -3.4121197690846676 -3.836536036874941 7.000885444286019" Properties=species:S:1:pos:R:3:forces:R:3 unique_starting_index=456 config_type=initial n_minim_iter=7 energy=-2600.3317843396444 stress="0.002313292367516016 0.0002930612681925536 0.0003615685440508504 0.0002930612681925536 0.0026475177080409165 -0.00021004475275649326 0.0003615685440508504 -0.00021004475275649326 0.002196288941209355" free_energy=-2600.3317843396444 pbc="T T T"
Si      -4.13535129       4.34005261       3.70359742      -0.04268048      -0.09869765      -0.04410084
Si      -1.16368728       2.61373526       3.87365054      -0.06459575      -0.08596648       0.04410088
Si      -2.62848695       3.46467534       2.06833984      -0.09239055      -0.06981976       0.00984482
Si      -2.67055162       3.48911253       5.50890811      -0.01488567      -0.11484437      -0.00984478
Si      -3.26945983       5.27471021       6.96904117       0.11519374       0.03022725      -0.24672615
Si      -0.78068298       3.82891327       0.60820633      -0.03080360       0.11504103       0.24672612
Si       0.79849065       2.91153040       2.55447864      -0.17535197       0.19901292       0.06857567
Si      -4.84863346       6.19209308       5.02276886       0.25974211      -0.05374465      -0.06857570
Si       6.00243371       0.46939171      -0.31683220       0.15001037       0.09035123      -0.26588506
Si      -5.97769792       1.61023810       7.31771639       0.00417897       0.17506862       0.26588500
Si       1.17283078       3.27503554       4.92427982      -0.15698000       0.26869004       0.06726260
Si      -1.14809499      -1.19540573       2.07660436       0.31116934      -0.00327019      -0.06726266
Si      -1.70262722       7.74367529       0.60675681      -0.11623450      -0.08362707       0.05774518
Si       4.15814376      -1.47972589       6.39412649      -0.01506876      -0.14239692      -0.05774513
Si       0.33987617       0.73840467       1.68825480      -0.01260737      -0.14382681      -0.05471156
Si       2.11564037       5.52554473       5.31262850      -0.11869589      -0.08219719       0.05471161
