12
Lattice="5.545118740125389 -0.7135773299069756 -0.42918883358979476 1.2666949798603204 5.116978459837179 1.036393978045133 0.6141768481474731 2.708300871820325 11.111148955155095" Properties=species:S:1:pos:R:3:forces:R:3 unique_starting_index=192 config_type=initial n_minim_iter=1 energy=-1952.0561744656623 stress="0.0004470535584574772 5.661198203524943e-05 -8.397664543019635e-05 5.661198203524943e-05 -0.000753739288038268 0.0004981641298396436 -8.397664543019635e-05 0.0004981641298396436 9.651922442829305e-07" free_energy=-1952.0561744656623 pbc="T T T"
Si       6.39960385       2.46538745       9.85273548       0.01575664       0.07726443      -0.02356986
Si       3.85807869       5.65886732       3.41400847      -0.01950567      -0.08483985      -0.01213165
Si       5.46597489       1.46371595       4.38441712      -0.01341797      -0.05198863      -0.02912889
Si       5.98399181       4.32513957       7.92615604      -0.10143219      -0.05212271       0.01181449
Si       6.71917431       4.79488009      10.27630213       0.03042586       0.08029290      -0.05090972
Si       1.73102244       2.97706625       8.04123148      -0.03422155       0.04613535      -0.02244592
Si       5.43460894       6.66893907      11.01633723      -0.02350791       0.02329629       0.04498893
Si       2.00619210       4.54141702       2.40128194      -0.03263048      -0.01768530       0.03938706
Si       3.85988188       3.74375217       8.80295246       0.05731188       0.07189726       0.00101640
Si       5.19690081       4.13832835       2.24936707       0.07099206       0.00335094      -0.05606644
Si       3.41462463       5.80980812       9.92966187       0.01117816      -0.05691302       0.14111863
Si       2.45251675       2.59308542       1.16019593       0.03905118      -0.03868766      -0.04407302
12
Lattice="5.539404569134831 -0.715053304057217 -0.42729040283462466 1.2649182993077255 5.1245408759291 1.0307434212723174 0.615343678078843 2.700142878417255 11.108130974432415" Properties=species:S:1:pos:R:3:forces:R:3 unique_starting_index=192 config_type=initial n_minim_iter=2 energy=-1952.0569909859003 stress="-0.00023409885328260575 -5.757108382832094e-05 1.2007199046649357e-05 -5.757108382832094e-05 0.000468160000021456 -0.0003324894419303939 1.2007199046649357e-05 -0.0003324894419303939 0.0001984588402761618" free_energy=-1952.0569909859003 pbc="T T T"
Si       6.39470345       2.45807653       9.85094485       0.01807304       0.09314192      -0.01635601
Si       3.85387160       5.66366128       3.40814274      -0.00962709      -0.04468318      -0.02667985
Si       5.46089096       1.46011264       4.38356728      -0.02346736      -0.04224256      -0.01363385
Si       5.97802849       4.32237644       7.92241073      -0.07217965      -0.04169715      -0.00175057
Si       6.71383059       4.79112408      10.27168499       0.01276870       0.05540757      -0.04718085
Si       1.73015002       2.97311273       8.03795712      -0.04275126       0.02630680      -0.00896459
Si       5.43008701       6.66733903      11.01002791      -0.01799524       0.02518595       0.03648147
Si       2.00374866       4.54617399       2.39673021      -0.02730226      -0.01456815       0.00945752
Si       3.85754249       3.74017176       8.79938195       0.04793363       0.06161380       0.02390661
Si       5.19196025       4.14229783       2.24518557       0.05732458      -0.01739467      -0.04509062
Si       3.41234884       5.80762511       9.92467118       0.01475481      -0.03843993       0.11467617
Si       2.45016195       2.59565987       1.15735375       0.04246810      -0.06263040      -0.02486542
12
Lattice="5.538682576712839 -0.7134389172162263 -0.42510851518776444 1.2665057372280681 5.122470019281757 1.0323108301435169 0.6196036376078131 2.7055566698475113 11.08852825025786" Properties=species:S:1:pos:R:3:forces:R:3 unique_starting_index=192 config_type=initial n_minim_iter=3 energy=-1952.0588463942238 stress="-0.001313798955531507 -5.512586174344883e-05 0.00047568590448060066 -5.512586174344883e-05 -0.0007115482374971169 -0.00022225998007801708 0.00047568590448060066 -0.00022225998007801708 -0.002306380901004923" free_energy=-1952.0588463942238 pbc="T T T"
Si       6.39891317       2.46862465       9.83457838      -0.00147344       0.07086960       0.00834029
Si       3.85555131       5.66056829       3.40524800      -0.00759822      -0.04441451      -0.00775467
Si       5.46133842       1.46117084       4.37684636      -0.02943827      -0.04588049       0.01526218
Si       5.97731582       4.32407016       7.91184367      -0.01897130       0.00230159      -0.02521039
Si       6.71884728       4.79949651      10.25461468      -0.01820393       0.07073107      -0.03188283
Si       1.73148700       2.97837689       8.02415061       0.00691558       0.00708170      -0.01724141
Si       5.43404992       6.67279079      10.99651747      -0.00965520       0.02151293      -0.00511534
Si       2.00416479       4.54472219       2.39650676       0.01274888      -0.05687552      -0.01326646
Si       3.86357170       3.74755794       8.78669441      -0.04160685       0.02370952       0.01626965
Si       5.19640221       4.14210144       2.24271477       0.02944948      -0.01019210      -0.00072266
Si       3.41749670       5.80901408       9.91616168       0.04145982      -0.00581661       0.05202345
Si       2.45303504       2.59284853       1.15598516       0.03637345      -0.03302717       0.00929820
12
Lattice="5.54913466814552 -0.7121947319540451 -0.428508825777173 1.2703618170429245 5.126271495346912 1.0383402362857264 0.6175722432284569 2.7178837796748567 11.107008758303227" Properties=species:S:1:pos:R:3:forces:R:3 unique_starting_index=192 config_type=initial n_minim_iter=4 energy=-1952.0607985707236 stress="0.0003791159341304651 -0.0003073418760401085 0.0005823019812033381 -0.0003073418760401085 0.001053877941443548 0.0006667140529016389 0.0005823019812033381 0.0006667140529016389 -0.0002961809275268444" free_energy=-1952.0607985707236 pbc="T T T"
Si       6.40914662       2.48649592       9.84791313      -0.01859713       0.04795943       0.00387586
Si       3.86293139       5.66465874       3.41313387       0.00773277      -0.08812052      -0.02013885
Si       5.46945349       1.46553527       4.38166636      -0.01793374      -0.05120378      -0.00908095
Si       5.98298014       4.33364097       7.92531561      -0.00233460       0.00708758      -0.03275906
Si       6.73037033       4.81776279      10.26901918      -0.01117539       0.07482360      -0.03051499
Si       1.73083997       2.98995114       8.03725838       0.05834405       0.01753446       0.03211352
Si       5.44158231       6.68991650      11.01891030       0.02467333       0.01995666      -0.02919204
Si       2.00728408       4.54878536       2.40461907       0.03866502      -0.06017560      -0.04604873
Si       3.87135994       3.76270577       8.80252155      -0.12298156      -0.00183497       0.01991707
Si       5.21023457       4.14748861       2.24557105       0.00506002       0.01948997       0.03890944
Si       3.42323512       5.82029180       9.94147432       0.03603582       0.00552259       0.01565355
Si       2.46047158       2.59312011       1.15771436       0.00251140       0.00896058       0.05726517
12
Lattice="5.551098008007571 -0.7057012494362058 -0.4365973066483059 1.2737159090199175 5.116707880371012 1.033894890116516 0.6040368824265343 2.704185438688952 11.120522195330054" Properties=species:S:1:pos:R:3:forces:R:3 unique_starting_index=192 config_type=initial n_minim_iter=5 energy=-1952.0620022246758 stress="0.0004100057697858534 -4.907570954835145e-05 1.4524285609467578e-05 -4.907570954835145e-05 -0.00027771690999067283 -0.0003418980020727599 1.4524285609467578e-05 -0.0003418980020727599 2.4851302135147016e-05" free_energy=-1952.0620022246758 pbc="T T T"
Si       6.39968854       2.48251587       9.85081362      -0.03644585       0.01592999      -0.00269516
Si       3.86384087       5.65180885       3.40722596       0.01850029      -0.06520312       0.00963633
Si       5.46546303       1.46197595       4.37851177       0.01272348      -0.06578911       0.01075860
Si       5.97469442       4.32269782       7.92480128      -0.01570162       0.05254131      -0.04009047
Si       6.72247706       4.80870924      10.26892027       0.02094534       0.09186658      -0.03483726
Si       1.72155966       2.98036177       8.04408855       0.05787229      -0.01103457       0.04691177
Si       5.43281025       6.67380251      11.02310692       0.03500897       0.04339284      -0.02317678
Si       2.00781141       4.53878675       2.40189361       0.04072992      -0.04647608      -0.06628323
Si       3.86384808       3.75377187       8.80770705      -0.12710392      -0.03727614      -0.00012261
Si       5.21444252       4.14200481       2.23676277      -0.00404283      -0.01188007       0.04251870
Si       3.41582690       5.80263679       9.95078947       0.01425336       0.02521418       0.02878432
Si       2.46329991       2.58761325       1.15321326      -0.01673942       0.00871419       0.02859579
12
Lattice="5.542191253737883 -0.7017066493852072 -0.44329946144178345 1.2746822566417921 5.1183071533088915 1.0385670498031945 0.5939090704538178 2.7154912229371435 11.131922567401965" Properties=species:S:1:pos:R:3:forces:R:3 unique_starting_index=192 config_type=initial n_minim_iter=6 energy=-1952.0627779147553 stress="-0.0010446839576561406 1.4697648888230423e-05 -0.0003833987607807689 1.4697648888230423e-05 -6.518932589242138e-05 0.00039801918614211035 -0.0003833987607807689 0.00039801918614211035 0.00048340022553726734" free_energy=-1952.0627779147553 pbc="T T T"
Si       6.38124716       2.49951224       9.85465656      -0.03110706       0.02052318      -0.01690497
Si       3.85872470       5.65514873       3.41138007       0.03203524      -0.06772520       0.02522368
Si       5.45313848       1.46831561       4.37784363       0.03027893      -0.08028430      -0.01631113
Si       5.95862956       4.33476959       7.92898253      -0.01772915       0.06042620      -0.04323052
Si       6.70579664       4.82690409      10.27380203       0.00905181       0.07586574      -0.03633619
Si       1.71329378       2.99008197       8.05255364       0.02569802      -0.01336006       0.05046605
Si       5.41845090       6.68973161      11.03381648       0.03574576       0.04359318      -0.01341987
Si       2.00595115       4.54101072       2.40561558       0.06289769      -0.04369502      -0.06247527
Si       3.85033393       3.76609009       8.81535817      -0.11581813      -0.01605993       0.01515729
Si       5.20846481       4.14767664       2.23724907      -0.02776574      -0.00644168       0.04416365
Si       3.40558977       5.81418737       9.96456631       0.01887366       0.01457677       0.01078526
Si       2.46094916       2.58947053       1.15429437      -0.02216103       0.01258112       0.04288203
12
Lattice="5.5565134630411155 -0.6795795976686779 -0.4502387116250004 1.2983838415978124 5.1267138031685615 1.0414925397408084 0.5937452869804457 2.7308116108705422 11.123859634605331" Properties=species:S:1:pos:R:3:forces:R:3 unique_starting_index=192 config_type=initial n_minim_iter=7 energy=-1952.0671889415094 stress="0.0003240667115753602 0.001068138154017408 -0.00012750905469240454 0.001068138154017408 0.00044066159366615206 -2.1613663734031703e-05 -0.00012750905469240454 -2.1613663734031703e-05 -0.000308299471905559" free_energy=-1952.0671889415094 pbc="T T T"
Si       6.39665482       2.55080849       9.83794223      -0.06258754       0.04664069       0.00734948
Si       3.89079901       5.66031310       3.40830889      -0.03648289       0.01745850       0.04895723
Si       5.46950891       1.48120401       4.36694487       0.05868721      -0.06852859      -0.00833496
Si       5.97389597       4.37093838       7.91375820      -0.10768715       0.04254073       0.02201671
Si       6.73754501       4.88698813      10.25099949       0.01723229      -0.00951777      -0.06103538
Si       1.72386346       3.00971089       8.05089176       0.00866865      -0.01603639       0.01548439
Si       5.45173712       6.73487981      11.02555261       0.04082896       0.06784197      -0.04590773
Si       2.03119390       4.54465757       2.39920511       0.05461366       0.04294268       0.00480647
Si       3.85502225       3.79659362       8.80966483       0.02053947       0.00677311      -0.02556736
Si       5.24451981       4.17131571       2.23384917       0.06555505      -0.07549493       0.04455206
Si       3.43257196       5.83880935       9.97470237       0.01473900       0.00807816      -0.04037530
Si       2.48048592       2.59693700       1.15484624      -0.07410672      -0.06269816       0.03805439
12
Lattice="5.561551463082073 -0.6922763694216286 -0.45143916529390293 1.2863097088772115 5.11486472243654 1.0446016069595532 0.5864359569324167 2.7291608166473407 11.13615664805156" Properties=species:S:1:pos:R:3:forces:R:3 unique_starting_index=192 config_type=initial n_minim_iter=8 energy=-1952.069102924228 stress="6.573941498351342e-05 -0.0005469469039075612 9.244918695377137e-06 -0.0005469469039075612 -0.0002461576200807945 5.3928960241399866e-05 9.244918695377137e-06 5.3928960241399866e-05 5.635158626819219e-06" free_energy=-1952.069102924228 pbc="T T T"
Si       6.39111791       2.54261883       9.84703652      -0.03336809       0.02180406       0.00703650
Si       3.87889245       5.63334579       3.41380112       0.01296013       0.03823245       0.05094974
Si       5.46907839       1.45791072       4.37031167       0.06970792      -0.03765685      -0.01558947
Si       5.95835031       4.35312935       7.92046936      -0.04727449       0.01466621       0.05197476
Si       6.73085507       4.87643985      10.25627184      -0.01004575      -0.01412982      -0.05318349
Si       1.71826233       3.00481257       8.06282723      -0.07759501      -0.02177947       0.00489507
Si       5.43924856       6.71962165      11.03908840       0.03740291       0.04330302      -0.00410397
Si       2.02351109       4.52833831       2.39987998      -0.00111019       0.06591771       0.01880227
Si       3.84098853       3.78623593       8.82110188       0.06104713       0.03276649      -0.01596601
Si       5.24122039       4.14984337       2.23830186       0.05256404      -0.08955465       0.00523431
Si       3.42199563       5.82300934       9.99568266       0.02200893       0.01832736      -0.09823010
Si       2.47588565       2.58311187       1.15843782      -0.08629753      -0.07189651       0.04818039
12
Lattice="5.555506895822505 -0.6718628242963592 -0.450730871611467 1.3048731001288911 5.122417630506644 1.0446330750134298 0.5980584706344774 2.7307516542853536 11.145172463838128" Properties=species:S:1:pos:R:3:forces:R:3 unique_starting_index=192 config_type=initial n_minim_iter=9 energy=-1952.0716788532259 stress="-0.0005363723593746111 0.0008206958445830255 0.0008879262464045471 0.0008206958445830255 -3.014715608201215e-05 -0.00012298212590319325 0.0008879262464045471 -0.00012298212590319325 0.0005588643177729535" free_energy=-1952.0716788532259 pbc="T T T"
Si       6.39563956       2.57071504       9.85578023      -0.04042089       0.03305531       0.02197129
Si       3.89846298       5.64871265       3.41866631      -0.02161383       0.01750307       0.04298352
Si       5.47538588       1.47258077       4.37336026       0.04640864      -0.04578692       0.03141445
Si       5.96621234       4.37757350       7.92877042      -0.02539983       0.03548582      -0.00461783
Si       6.74726808       4.90579211      10.25966902       0.02114900      -0.03921465      -0.03838798
Si       1.72679981       3.01089164       8.07069061      -0.00512238      -0.00139417       0.00849761
Si       5.46549031       6.74623408      11.04762734       0.00738407       0.04740190       0.00113859
Si       2.04094401       4.53954910       2.40090405       0.06661381       0.04809161      -0.01755805
Si       3.85496334       3.80362053       8.82818062       0.00072359      -0.01793551      -0.02906916
Si       5.25848337       4.16608214       2.24091644       0.02221830      -0.05157502       0.01991468
Si       3.44552028       5.83742188      10.00274935       0.00207241       0.01622897      -0.00862122
Si       2.48022329       2.58834703       1.16220492      -0.07401290      -0.04186041      -0.02766590
12
Lattice="5.564923644633517 -0.6628829939411374 -0.47271128283152103 1.3120737977949783 5.132792208817307 1.0386410238669954 0.5587591414663139 2.7380845749110074 11.124137291947822" Properties=species:S:1:pos:R:3:forces:R:3 unique_starting_index=192 config_type=initial n_minim_iter=10 energy=-1952.0742583434408 stress="0.00011016620398051338 0.0005922990098533894 -0.0005317089593785964 0.0005922990098533894 0.0010316191199619595 -6.559825921778751e-05 -0.0005317089593785964 -6.559825921778751e-05 -0.00042332516963708585" free_energy=-1952.0742583434408 pbc="T T T"
Si       6.36617087       2.59711178       9.81280619      -0.02352064       0.02750710      -0.01363455
Si       3.90140683       5.65922665       3.40134510       0.06681571      -0.01306326       0.02118973
Si       5.47348347       1.47476327       4.34234168       0.00809958      -0.03422607       0.04349045
Si       5.94152210       4.39896746       7.89207944      -0.04255266       0.02127396      -0.03882818
Si       6.72730458       4.93569928      10.20626999       0.03779517      -0.03007919      -0.00059440
Si       1.69960805       3.02019999       8.05328087      -0.02346243       0.01843828       0.00772349
Si       5.44547611       6.77654804      11.00762128       0.01850638       0.01851570      -0.05719686
Si       2.04610886       4.55083409       2.38701955       0.06265561       0.02348527      -0.04202922
Si       3.82984800       3.82156344       8.79804438      -0.00336316      -0.00933461      -0.03769546
Si       5.27220283       4.17522558       2.21784760       0.01986043      -0.02374604       0.09956540
Si       3.42471251       5.85448950       9.97575574      -0.01635046      -0.00935076       0.06491916
Si       2.47903202       2.58929445       1.15415040      -0.10448353       0.01057962      -0.04690957
12
Lattice="5.571032991185905 -0.6571313119913726 -0.4792918751821948 1.3168795847011936 5.126286208972844 1.040834389560094 0.5502110090680299 2.739588602161393 11.136520625465936" Properties=species:S:1:pos:R:3:forces:R:3 unique_starting_index=192 config_type=initial n_minim_iter=11 energy=-1952.076887973813 stress="8.420965092647779e-05 8.208294900205893e-05 -0.00014497985275673328 8.208294900205893e-05 0.00020952115494062552 5.5234865095161834e-05 -0.00014497985275673328 5.5234865095161834e-05 -0.00016305567382109517" free_energy=-1952.076887973813 pbc="T T T"
Si       6.36049886       2.61544260       9.81624611       0.00120734       0.00683813      -0.01462528
Si       3.90873182       5.64485107       3.40623214       0.08681844      -0.01591346       0.01737291
Si       5.47998057       1.46497248       4.34058491      -0.00028347      -0.00488064       0.05867721
Si       5.93121490       4.40393553       7.89430429      -0.00356269       0.00109197      -0.04150552
Si       6.73194213       4.95172933      10.20110678       0.02994856      -0.03238083       0.01810524
Si       1.69412541       3.02192499       8.06548739      -0.04826416       0.02171865      -0.00245949
Si       5.45039395       6.78564583      11.01606772      -0.00067100      -0.00624715      -0.02277278
Si       2.05466784       4.54410221       2.38473438       0.04486027       0.03521876      -0.03685151
Si       3.82210371       3.82699247       8.80547771       0.00513801      -0.00663277      -0.04740286
Si       5.28721882       4.16736751       2.21945462       0.01644567      -0.00685209       0.07004844
Si       3.42752520       5.85230427       9.99416844      -0.02174869      -0.01422810       0.08135000
Si       2.47781833       2.58010819       1.15710117      -0.10988827       0.02226753      -0.07993636
12
Lattice="5.580090638178446 -0.6427183639277624 -0.4946026064062228 1.3285621533741523 5.1200564506648885 1.0405328292021634 0.5288037437796977 2.7388840500198786 11.153574058111378" Properties=species:S:1:pos:R:3:forces:R:3 unique_starting_index=192 config_type=initial n_minim_iter=12 energy=-1952.079007916966 stress="5.0077903860611155e-05 -0.0005048830666588012 0.00034272662053103607 -0.0005048830666588012 -0.000562827711622874 9.716258638721685e-05 0.00034272662053103607 9.716258638721685e-05 0.00025830769785791175" free_energy=-1952.079007916966 pbc="T T T"
Si       6.34397712       2.64829815       9.81349731       0.03450548      -0.02119153      -0.02745859
Si       3.92565611       5.62781600       3.40868945       0.09601685      -0.01036721       0.00160705
Si       5.48812918       1.45297474       4.33374135      -0.01821511       0.04276184       0.05954556
Si       5.91065994       4.41687533       7.88871140       0.03504317      -0.02799472      -0.04433207
Si       6.73518700       4.98077173      10.18323070      -0.01478773      -0.02215157       0.04719408
Si       1.67789960       3.02475654       8.08140296      -0.05900437       0.01115633      -0.01241932
Si       5.45461486       6.80493089      11.01977088      -0.02049047      -0.04100875       0.02553689
Si       2.07235434       4.53952655       2.37549621       0.02086691       0.05316033      -0.02280705
Si       3.80579791       3.83762323       8.80924314       0.00586184      -0.00001012      -0.04801933
Si       5.31405112       4.16032787       2.21718918       0.03658880       0.02533622       0.01178778
Si       3.42758864       5.85093857      10.01862858      -0.01368659      -0.02968553       0.08761582
Si       2.47184379       2.56862784       1.15573133      -0.10269877       0.01999469      -0.07825082
12
Lattice="5.584247596451637 -0.6163789312973464 -0.521277651073547 1.349001892819127 5.127218853935346 1.030821024121178 0.48799624658557733 2.734423428817826 11.152182501721802" Properties=species:S:1:pos:R:3:forces:R:3 unique_starting_index=192 config_type=initial n_minim_iter=13 energy=-1952.083517564009 stress="-0.00022871826188416725 8.293615997237503e-05 -0.00013867530632041963 8.293615997237503e-05 0.00028552484263691413 -8.796458430026774e-05 -0.00013867530632041963 -8.796458430026774e-05 4.019034745008518e-05" free_energy=-1952.083517564009 pbc="T T T"
Si       6.31035702       2.68422989       9.77978263       0.01956734      -0.02846160      -0.05830068
Si       3.95313527       5.63668918       3.39257261       0.02689070       0.00886677      -0.01633674
Si       5.48349565       1.46325932       4.31423411      -0.03042115       0.05215973      -0.03050686
Si       5.88556141       4.44239551       7.85315837      -0.03602616      -0.01783624      -0.03434002
Si       6.71962315       5.01339114      10.14148122      -0.11571488       0.02087736       0.03451881
Si       1.64277049       3.03028338       8.07655284       0.02689219      -0.03389263      -0.01692038
Si       5.44226815       6.83334471      10.99011602       0.00418770      -0.02078401       0.01850867
Si       2.09510509       4.55624467       2.35471943       0.03959884       0.02932654       0.01199759
Si       3.78282712       3.85476852       8.78321110      -0.04222678      -0.00320191      -0.00634801
Si       5.34110397       4.17591868       2.19856124       0.11619521       0.06503927      -0.03254572
Si       3.41137430       5.85872318      10.01761391       0.03931423      -0.05134533       0.01961085
Si       2.45690813       2.57178805       1.13584878      -0.04825725      -0.02074795       0.11066250
12
Lattice="5.628807027829385 -0.571037159974889 -0.5648431132005668 1.391954851634076 5.117650166245788 1.0347870239971295 0.4312245631510244 2.7551511578591557 11.162199644457976" Properties=species:S:1:pos:R:3:forces:R:3 unique_starting_index=192 config_type=initial n_minim_iter=14 energy=-1952.0955652174591 stress="0.0027471706129847356 0.00021087745381457868 0.0013455128315306248 0.00021087745381457868 -0.0009492990904205169 0.0006243910910137191 0.0013455128315306248 0.0006243910910137191 0.0015389940216242672" free_energy=-1952.0955652174591 pbc="T T T"
Si       6.30775345       2.77892397       9.72347179      -0.01619905      -0.06767978      -0.01982460
Si       4.03708879       5.61965429       3.38473590      -0.05546099      -0.01317336       0.14121414
Si       5.50810609       1.48404824       4.28641270       0.03046477       0.05779098      -0.11682774
Si       5.86687464       4.48646569       7.80276784      -0.15247774       0.07426317      -0.01649368
Si       6.72960295       5.10413461      10.09268278      -0.04021525      -0.02931207      -0.12791852
Si       1.60343253       3.05373532       8.08158769       0.11196557      -0.15605126      -0.04860546
Si       5.46708416       6.89257458      10.97788187      -0.00563769       0.05946213       0.01386910
Si       2.16030040       4.57068304       2.33443959       0.10983263      -0.01342010       0.07360682
Si       3.76060318       3.90273298       8.75697358      -0.09750857       0.00968039       0.04429829
Si       5.45830217       4.20126176       2.17922253       0.17396782       0.12173300      -0.02079001
Si       3.42397175       5.86551960      10.07204481       0.00501914      -0.03920622      -0.17502674
Si       2.43572627       2.55723187       1.13118916      -0.06375064      -0.00408689       0.25249842
12
Lattice="5.653465385756202 -0.5380814715045382 -0.5996126119838752 1.4212955456343754 5.116935938493016 1.0333285093773894 0.38201835170248855 2.76702332151661 11.163608291622113" Properties=species:S:1:pos:R:3:forces:R:3 unique_starting_index=192 config_type=initial n_minim_iter=15 energy=-1952.1004925696222 stress="0.004195817426898206 0.0006840542954219774 0.001089256047280965 0.0006840542954219774 -0.0005401630981136734 0.001221208475640125 0.001089256047280965 0.001221208475640125 0.0026277517258970337" free_energy=-1952.1004925696222 pbc="T T T"
Si       6.28827498       2.84652050       9.67615815      -0.01051462      -0.08896609       0.01940281
Si       4.08750800       5.61391762       3.37372592      -0.06700310      -0.02865873       0.14995210
Si       5.51820204       1.49574505       4.25857687       0.03105801       0.11865934      -0.18323791
Si       5.83954588       4.52244042       7.75994193      -0.20092575       0.09289327      -0.03313866
Si       6.72464833       5.17113839      10.04261535      -0.02657017      -0.05944786      -0.20819429
Si       1.56797964       3.06885713       8.08121797       0.14153836      -0.19747602      -0.07684532
Si       5.47291157       6.94133927      10.95579729      -0.03965094       0.06302881       0.02645345
Si       2.20362691       4.58460135       2.31441568       0.10667198      -0.04273007       0.12760812
Si       3.73334659       3.93721488       8.73178930      -0.10044706       0.00051863       0.11526756
Si       5.53145479       4.22102444       2.15904525       0.21563963       0.15228885      -0.02088739
Si       3.42187035       5.87577702      10.09545054      -0.00901516      -0.04046427      -0.25238363
Si       2.41779943       2.54835011       1.12647669      -0.04078116       0.03035414       0.33600317
12
Lattice="5.654232378574083 -0.5389657507542648 -0.6182604834168011 1.417079282687487 5.1225684019518125 1.022799243505904 0.3394981196670687 2.7711197125077387 11.094688220303448" Properties=species:S:1:pos:R:3:forces:R:3 unique_starting_index=192 config_type=initial n_minim_iter=16 energy=-1952.1186869453516 stress="0.0011562187411010773 0.0006160283409092698 0.0011844842310594942 0.0006160283409092698 -0.002084003793006287 0.0007116231668809035 0.0011844842310594942 0.0007116231668809035 -0.0013019647570095584" free_energy=-1952.1186869453516 pbc="T T T"
Si       6.25158135       2.84852721       9.57349237      -0.06642248      -0.03522524       0.09335633
Si       4.10179983       5.61656688       3.34531707       0.00622095      -0.00482732       0.11228325
Si       5.49999448       1.50394475       4.21235901      -0.02931168       0.06707089      -0.08156326
Si       5.78685454       4.52805156       7.67255711      -0.16563169       0.11691259       0.03445868
Si       6.65595553       5.18192937       9.95825390       0.19792477      -0.17451010      -0.35183520
Si       1.53154714       3.06113605       8.02269527       0.01888719      -0.18770291      -0.22022499
Si       5.43425505       6.95160674      10.87161531      -0.08667335       0.16842079       0.04004373
Si       2.22325039       4.60941873       2.28678173       0.17293780      -0.16712401       0.12257400
Si       3.68255893       3.94162147       8.65428150       0.00135985      -0.00085240       0.15199101
Si       5.57333555       4.23850784       2.12878784       0.03279919       0.14604715       0.09672631
Si       3.39260192       5.86690985      10.03734284      -0.17325684      -0.06609707      -0.13091365
Si       2.36138829       2.53968861       1.13840881       0.09116630       0.13788763       0.13310381
12
Lattice="5.633672619656239 -0.5606953995356374 -0.6095603512790722 1.3947301058594126 5.131788084839585 1.0174601662341956 0.3428871889063609 2.7602402275605273 11.09786965379091" Properties=species:S:1:pos:R:3:forces:R:3 unique_starting_index=192 config_type=initial n_minim_iter=17 energy=-1952.1287822164345 stress="0.00019395024650678251 -0.0005829273254166423 0.0002766857579428593 -0.0005829273254166423 -0.00018536213863768969 -0.0006386607990215631 0.0002766857579428593 -0.0006386607990215631 0.00024235426536636348" free_energy=-1952.1287822164345 pbc="T T T"
Si       6.22946631       2.80725294       9.59177056      -0.03461451      -0.01956781       0.01348720