8
Lattice="5.505379999999998 5.13550162402291e-16 1.276484273400477e-16 -0.81373747268602 5.444909574083536 5.279065147615454e-16 -0.8137374726860208 -0.9443871586600395 5.362385025760885" Properties=species:S:1:pos:R:3:forces:R:3 unique_starting_index=426 config_type=initial n_minim_iter=1 energy=-1282.3082617081866 stress="-0.30193986252936017 -0.27191045536194314 -0.22297698513570421 0.13892613087693567 0.11970662411494457 0.10046692704057389" pbc="T T T"
Si       3.39454189       2.80879172       0.14731222       0.36476599      -1.15805319       1.13955646
Si       2.27620091      -0.50922387       3.74079228      -1.19924849       1.08940173       0.38436609
Si      -0.84007061       3.30669332       2.79177132       1.25469401       0.55633007      -0.94285213
Si      -1.01929251       5.19554542       0.95275854     -15.61045858     -22.15407073      30.72406802
Si       5.28913744       0.97997176      -0.07126503     -19.60338736      33.50415722     -13.10100285
Si       0.18743270      -1.00260096       5.28205060      36.03368292     -10.39862051     -16.48939080
Si       2.46633520       2.86231786       3.41045972      -1.31754513      -1.52908369      -1.82190749
Si       1.26628956       1.46959879       1.75103106       0.07749664       0.08993911       0.10716271
8
Lattice="5.532182833722503 -0.008920152290375245 -0.010628386363655857 -0.8265213119091659 5.470099541672965 -0.010628386363655908 -0.8265213119091672 -0.9592235082272563 5.385349776910657" Properties=species:S:1:pos:R:3:forces:R:3 unique_starting_index=426 config_type=initial n_minim_iter=2 energy=-1283.5393903109696 stress="-0.27057301064968947 -0.2430775737283855 -0.19827325458258394 0.12720313272226458 0.10960542484186898 0.09198923035501709" pbc="T T T"
Si       3.40626940       2.81515926       0.13510994       0.42178419      -1.12870102       1.08641900
Si       2.28076510      -0.52341618       3.75102568      -1.17864645       1.02653631       0.43495966
Si      -0.85478165       3.31635252       2.79592594       1.18947396       0.60423442      -0.92316120
Si      -1.03608339       5.21561105       0.94960231     -14.23595575     -20.46821363      28.16796018
Si       5.31146449       0.97922924      -0.08524631     -18.13920960      30.70779043     -11.96013665
Si       0.18339823      -1.02018126       5.30126467      33.05161436      -9.45452045     -15.27242671
Si       2.46698896       2.86307658       3.41136374      -1.24121792      -1.44050177      -1.71636188
Si       1.26670064       1.47007587       1.75159950       0.13215721       0.15337572       0.18274760
8
Lattice="5.829780373214227 -0.1102766630136259 -0.13139495193015288 -0.9707517383822342 5.749447034693606 -0.131394951930153 -0.9707517383822356 -1.126610862529155 5.639517160411087" Properties=species:S:1:pos:R:3:forces:R:3 unique_starting_index=426 config_type=initial n_minim_iter=3 energy=-1291.8946883591543 stress="-0.050327009984021204 -0.038413480588381295 -0.019000165827815427 0.05511599110373531 0.047491060111949805 0.03985811903679232" pbc="T T T"
Si       3.53534810       2.88382244      -0.00365254       0.52382125      -0.35785958       0.48795191
Si       2.32959526      -0.68397783       3.86267934      -0.43135371       0.39987484       0.54275533
Si      -1.02079719       3.42205386       2.83948092       0.45924006       0.59827181      -0.26780341
Si      -1.22604823       5.43605692       0.91356730      -7.50346569     -10.99328321      14.04736648
Si       5.55756728       0.97067534      -0.24443738      -9.76346443      15.40342523      -6.47240541
Si       0.13856240      -1.21895651       5.51211936      16.67735095      -5.09438112      -8.39023388
Si       2.47133131       2.86811611       3.41736835      -0.52772433      -0.61245315      -0.72973964
Si       1.26984048       1.47371983       1.75594129       0.56559589       0.65640518       0.78210861
8
Lattice="5.93202604711207 -0.18619223194996273 -0.22184856431328961 -1.060946156277852 5.839348750017746 -0.22184856431328848 -1.0609461562778522 -1.2312864525106235 5.712367659883727" Properties=species:S:1:pos:R:3:forces:R:3 unique_starting_index=426 config_type=initial n_minim_iter=4 energy=-1294.6207488906932 stress="-0.0006147743456873811 0.006931935787240653 0.019229438477190934 0.03491361762238295 0.03008355070237746 0.025248409734381833" pbc="T T T"
Si       3.55828125       2.87390783      -0.11088021       0.30257593       0.02560005       0.14415629
Si       2.31639986      -0.79326009       3.86497558      -0.01940418       0.08941156       0.32344650
Si      -1.12692872       3.42938043       2.81111858       0.09129756       0.31958064       0.05021510
Si      -1.34855821       5.48316587       0.86934102      -5.14857235      -7.34423017       9.33587390
Si       5.62226671       0.94692689      -0.36457858      -6.50256348      10.26583692      -4.46467423
Si       0.10551173      -1.34776646       5.55084352      11.11420707      -3.54474215      -5.61366723
Si       2.42074679       2.80941000       3.34741985      -0.29754044      -0.34531207      -0.41144030
Si       1.24530410       1.44524400       1.72201226       0.45999989       0.53385521       0.63608998
8
Lattice="5.943469683724308 -0.2755246184277752 -0.3282883522637795 -1.1509887840971762 5.837462677875739 -0.32828835226377834 -1.1509887840971762 -1.335785881747779 5.692048825857661" Properties=species:S:1:pos:R:3:forces:R:3 unique_starting_index=426 config_type=initial n_minim_iter=5 energy=-1296.7981705290365 stress="0.005518929746264782 0.008314722091196939 0.012870517072938925 0.01293427514641501 0.011144904163547277 0.00935365340353277" pbc="T T T"
Si       3.51802541       2.80761867      -0.24069794       0.02113368       0.16625870      -0.25142966
Si       2.25678894      -0.91250540       3.79359967       0.16130881      -0.25550644       0.00117764
Si      -1.23605331       3.37236893       2.72331800      -0.27654267      -0.01996070       0.12012986
Si      -1.47503477       5.43300710       0.80220935      -3.33528546      -4.51136936       5.79827574
Si       5.59135308       0.90379423      -0.50671515      -3.96883620       6.39818198      -2.89968803
Si       0.06742211      -1.48134012       5.48980138       6.91452962      -2.33895565      -3.43731738
Si       2.31268714       2.68400081       3.19799446       0.23071389       0.26775618       0.31903224
Si       1.19159857       1.38291579       1.64774802       0.25297833       0.29359529       0.34981961
8
Lattice="5.908990940433604 -0.33999778566263295 -0.4051083110665041 -1.2096575626595623 5.793833015326074 -0.4051083110665043 -1.209657562659564 -1.4038742308140946 5.635756461845536" Properties=species:S:1:pos:R:3:forces:R:3 unique_starting_index=426 config_type=initial n_minim_iter=6 energy=-1298.2005864360958 stress="0.010583466294656639 0.008888020592468598 0.006125260689495113 -0.007843701729424328 -0.006758577718213841 -0.005672313795935926" pbc="T T T"
Si       3.46206847       2.73959162      -0.33798302      -0.21639166       0.09317113      -0.50520109
Si       2.19777995      -0.99697324       3.71232009       0.12413210      -0.46281309      -0.28483260
Si      -1.31087138       3.30460903       2.63944847      -0.47607728      -0.28994425       0.00413489
Si      -1.57228059       5.33880480       0.77014188      -1.86713788      -2.23929948       3.21377679
Si       5.51255917       0.89130924      -0.62070984      -1.93872596       3.54276229      -1.58720014
Si       0.06672059      -1.57977078       5.39146493       3.79040761      -1.32140060      -1.64794958
Si       2.21764247       2.57369625       3.06656626       0.56956572       0.66101239       0.78759811
Si       1.14342535       1.32700810       1.58113385       0.01422734       0.01651161       0.01967362
8
Lattice="5.799972522359402 -0.2855892230467957 -0.34028035677291846 -1.1397328570989984 5.694054046010937 -0.3402803567729171 -1.1397328570989989 -1.3227227584768229 5.548733792885226" Properties=species:S:1:pos:R:3:forces:R:3 unique_starting_index=426 config_type=initial n_minim_iter=7 energy=-1298.9498873224893 stress="0.0063899540161776285 0.005085817181531718 0.002960702260690958 -0.006033375371454926 -0.005198698000952951 -0.004363143785305071" pbc="T T T"
Si       3.42260349       2.72974237      -0.26600259      -0.11962950      -0.10453665      -0.41711988
Si       2.19387211      -0.91906148       3.68493101      -0.08570628      -0.38759684      -0.20408638
Si      -1.23323779       3.27630804       2.64223308      -0.37067148      -0.17635465      -0.17529923
Si      -1.50806961       5.23245131       0.84919583      -1.55750257      -1.92858657       2.79550114
Si       5.39788297       0.96087686      -0.55993683      -1.67719236       3.06974608      -1.31292494
Si       0.15247412      -1.50203088       5.30043479       3.28393028      -1.08401918      -1.41449335
Si       2.24140623       2.60127540       3.09942690       0.38291401       0.44439280       0.52949526
Si       1.15363160       1.33885303       1.59524711       0.14385790       0.16695502       0.19892737
8
Lattice="5.554322897365432 -0.1301985522973237 -0.15513193864388616 -0.9497400762381081 5.474070542001215 -0.15513193864388547 -0.9497400762381089 -1.102225671264069 5.364197310576799" Properties=species:S:1:pos:R:3:forces:R:3 unique_starting_index=426 config_type=initial n_minim_iter=8 energy=-1300.0287440922914 stress="-0.016988751275127077 -0.015601944340794297 -0.013342116990565709 0.006415834982446908 0.005528246850253875 0.004639726307614401" pbc="T T T"
Si       3.35222687       2.72746426      -0.05984442      -0.48927738      -0.06050222       0.34822784
Si       2.20202123      -0.70389717       3.65180762       0.01248129       0.42843119      -0.42497816
Si      -1.02164132       3.23677276       2.67574640       0.42188052      -0.43166151       0.00081282
Si      -1.34145925       4.98250880       1.09840837      -0.81105961      -0.73541466       1.06676203
Si       5.12605951       1.18413971      -0.39081302      -0.60745611       1.20857557      -0.71202233
Si       0.41346227      -1.29456570       5.09750491       1.28508740      -0.62801182      -0.53924498
Si       2.33882499       2.71433523       3.23413801       0.03002431       0.03484486       0.04151775
Si       1.20211935       1.39512572       1.66229619       0.15831957       0.18373859       0.21892504
8
Lattice="5.9499427134570375 -0.24183567175795995 -0.2881478782297496 -1.1186266362694264 5.84884409385168 -0.28814787822974886 -1.1186266362694268 -1.2982278266488754 5.710219868273597" Properties=species:S:1:pos:R:3:forces:R:3 unique_starting_index=426 config_type=initial n_minim_iter=9 energy=-1299.488139224278 stress="0.04764720607942914 0.04612982621563526 0.04365722788042981 -0.007019909273472918 -0.006048751503208371 -0.005076573497603492" pbc="T T T"
Si       3.52214946       2.83816401      -0.20323930      -0.19647909       0.02115806      -0.40436254
Si       2.28638920      -0.87710501       3.80855999       0.04996678      -0.36507250      -0.25843016
Si      -1.20541689       3.38111737       2.75989737      -0.36844807      -0.25372544      -0.04929689
Si      -1.57999519       5.27910027       1.08714967       0.21969460       0.36116274       0.17496142
Si       5.45465070       1.20636633      -0.58193198       0.32472323       0.12536457       0.29690789
Si       0.38687645      -1.53972401       5.38764841       0.07599100       0.23349129       0.38603488
Si       2.37651198       2.75807306       3.28625175       0.18875008       0.21905487       0.26100449
Si       1.22467580       1.42130373       1.69348735      -0.29419852      -0.34143359      -0.40681908
8
Lattice="5.621208519253967 -0.19736748477440083 -0.23516390926068664 -1.0260574422400954 5.530293415923181 -0.23516390926068553 -1.0260574422400957 -1.1907961781587961 5.40568698617525" Properties=species:S:1:pos:R:3:forces:R:3 unique_starting_index=426 config_type=initial n_minim_iter=10 energy=-1300.2108968127166 stress="-0.0020876579917408 -0.0029694062310269493 -0.004406231202756954 -0.004079263796931798 -0.003514924793837451 -0.002949992896296265" pbc="T T T"
Si       3.34322127       2.70677890      -0.14921620      -0.40926336      -0.00427274      -0.08454879
Si       2.18289417      -0.78983930       3.62452381       0.05626646      -0.01295320      -0.41391974
Si      -1.10381234       3.21538674       2.63987355      -0.02112754      -0.41696608      -0.01887247
Si      -1.45488819       5.00112244       1.06420086      -0.26462073       0.05871698       0.47056955
Si       5.16123437       1.16943096      -0.50451934       0.09718502       0.50732494      -0.16758279
Si       0.39371596      -1.41220543       5.10990335       0.48738786      -0.19471984       0.13944454
Si       2.28561583       2.65258307       3.16056013       0.25640567       0.29757290       0.35455894
Si       1.17571870       1.36448632       1.62578925      -0.20223337      -0.23470297      -0.27964924
