24
Lattice="4.23881 4.988889019206709e-15 4.771202010088559e-15 0.5982702727696991 9.838697011170746 -3.4677677580183916e-15 0.9686417704170922 -0.006808054844381985 10.997692869138163" Properties=species:S:1:pos:R:3:forces:R:3 unique_starting_index=298 config_type=initial n_minim_iter=1 energy=-3798.18397054495 stress="-0.5551731308089608 -0.48199554196173966 -0.5050205648865267 0.09483918752112887 -0.03484138273547327 0.09416080250231088" pbc="T T T"
Si       4.73088718       6.69569858       6.19222348      17.65030762      -5.03891709       6.81854786
Si       2.82692489       1.47897381       0.07276074       5.25808359     -22.29243136      -7.08124612
Si       0.38069741       1.89286259      -0.09631449      -3.51194221       2.23805359     -26.03203654
Si       2.94704433       5.86651849       0.22314209      -4.95958948     -23.28076055       0.68530478
Si       3.39112410       1.92487717       7.16941358       0.32914253      -0.49488403      -1.85495896
Si       2.23875841       7.34118277       8.71015296     -15.24654874      16.88235281     -14.86934186
Si       3.11875213       6.34968345       9.60606021      12.36362858     -14.45642740       7.48753235
Si       2.80945744       2.61953986       1.54393311      17.07719939      -1.72282504      14.34695350
Si       3.86897547       1.99585907       4.62706262      -1.15167644       1.14749635      -0.79222881
Si       2.26469716       3.53070047       2.99204882      -1.93728153       4.30098776       9.41036989
Si       0.49546564       0.03135204       5.34803617       0.82611734       1.59254551       4.09450691
Si       4.17040357       8.06215775       7.69744251       0.10478345       2.47481889       1.29288211
Si       3.59318417       5.84282365       6.92586527     -10.98067575      22.72433949       4.08490573
Si       4.45799524       4.49780768       7.00242901      13.33704893     -19.50380835       0.83906323
Si       4.53796009       8.81298538       3.81746526      -0.84147172      14.12883284     -18.08328746
Si       4.70702682       9.13742765       1.63463108       8.46642820       0.26269237      -8.25961129
Si       4.51792371       7.68960715       4.95659639      -3.06715413      -1.48420630      -1.53758758
Si       3.51367602       7.29839785       0.65755756      13.20064655      14.11788875     -15.50510806
Si       2.49488203       4.77013167       7.37645064     -17.08982054     -15.52339634       5.94933712
Si       1.86379608       8.25530423       1.40198039      -7.32894120      -1.12296781     -12.95659523
Si       3.14485877       7.67675751       2.16779923      14.96196261      -8.63274825      32.38955159
Si       1.86039564       2.74007481       0.26119850     -18.07549546      23.84302768     -13.21954450
Si       0.54951869       1.48353598       1.44123665       2.80525445      -5.84592215      24.69079117
Si       3.29601978       9.62490135       2.21042959     -22.19000603      15.68625861       8.10180016
24
Lattice="4.348175306297031 -0.01876200732787001 0.00698116346753166 0.5701577379331616 10.056162316388859 -0.0428259925212737 1.0117765720179561 -0.06022009433778079 11.257150605989242" Properties=species:S:1:pos:R:3:forces:R:3 unique_starting_index=298 config_type=initial n_minim_iter=2 energy=-3815.4255053629086 stress="-0.44758077672642427 -0.3795008430932696 -0.39869532617155573 0.07094435578929925 -0.025708741694522943 0.072319390719062" pbc="T T T"
Si       4.83532403       6.79645636       6.31607411      14.12565132      -3.83239656       5.12111375
Si       2.89398384       1.49694677       0.07182265       4.24510237     -18.27197950      -5.87470158
Si       0.38161733       1.93419589      -0.10904016      -3.46648805       1.79763279     -21.59068567
Si       2.99698339       5.98134922       0.20718347      -4.35705281     -20.36003268       0.10007961
Si       3.48193977       1.92095596       7.33431883       0.27698998      -1.05336204      -1.59123180
Si       2.27679801       7.45846538       8.88382086     -12.03641681      13.55888642     -12.27464697
Si       3.18821036       6.43367335       9.80890297       9.81972283     -10.90273342       5.98971848
Si       2.87464708       2.65864426       1.57456366      13.97736096      -1.69034930      11.65541289
Si       3.96746636       2.00289987       4.73294320      -0.58652157       0.81151248      -0.61949812
Si       2.31222946       3.58677886       3.05116368      -1.54316000       3.85692085       7.84827297
Si       0.51700308       0.00620644       5.47451148       0.26677532       1.11413896       3.47949827
Si       4.25500612       8.19004281       7.84900216       0.35927867       1.91240383       1.45924041
Si       3.67030082       5.92912193       7.06854276      -8.32713129      17.66824734       3.57598234
Si       4.56601697       4.54551958       7.15400570       9.86668185     -14.86581262       0.91766431
Si       4.62222700       8.97451912       3.87333551      -1.02303719      11.69340373     -15.34536815
Si       4.79158727       9.31376549       1.63917335       6.89269811       0.26113553      -6.58669043
Si       4.60830344       7.81942200       5.04584196      -2.23684971      -0.77816771      -1.55542530
Si       3.57445599       7.44464311       0.64466992      11.08663669      12.57668211     -13.21170983
Si       2.54854210       4.83137791       7.53286637     -13.94729976     -12.79893776       4.75665586
Si       1.87689936       8.42539526       1.39983102      -4.49166251      -1.27210041     -10.50983830
Si       3.19713414       7.82402687       2.19293792      12.14696187      -6.57320658      27.38349358
Si       1.89483063       2.79443020       0.25681811     -13.90712262      19.19755178     -10.25382876
Si       0.55979838       1.50726598       1.47185423       1.69309292      -4.98350812      20.16971168
Si       3.33981668       9.81740966       2.22563900     -18.83421054      12.93407087       6.95678075
24
Lattice="5.034311775996553 -0.13945436723357052 0.051730299077818835 0.3868608909900405 11.374190786961309 -0.30870128127778645 1.284867221177594 -0.39297950070358056 12.837272464570532" Properties=species:S:1:pos:R:3:forces:R:3 unique_starting_index=298 config_type=initial n_minim_iter=3 energy=-3865.55791737197 stress="-0.0652413096593254 -0.0639776112204219 -0.07585599092070626 0.019279043377652315 0.009373113597794294 0.00941563973015423" pbc="T T T"
Si       5.48770492       7.39537565       7.06901554       7.01387179       0.24244159       0.21493028
Si       3.31422129       1.60052480       0.06695421       3.21030894      -6.16431269      -3.26441265
Si       0.38518155       2.18503164      -0.18868394      -2.55909741       0.79412695      -7.89797734
Si       3.30633228       6.67114083       0.10846538      -4.14791687      -9.59956757      -0.72119245
Si       4.05198181       1.88645519       8.33890644       0.18750511      -0.59028851      -0.69368087
Si       2.51160833       8.16149508       9.93711547      -2.08076079       3.23352149      -3.76745823
Si       3.62218092       6.93152031      11.04251117       2.62921361      -1.69784034       1.02219716
Si       3.28287247       2.88930126       1.76174956       4.57901219      -0.81604405       5.52322002
Si       4.58523361       2.03624584       5.37846315      -0.22252074      -0.32966477      -0.20078901
Si       2.60856889       3.92152652       3.41067077      -0.98066521       0.36371702       1.78159460
Si       0.65300428      -0.15081409       6.24498660       1.03008661       0.96427776       1.52410224
Si       4.78202739       8.95382628       8.76976915       0.31227172       1.03171800       0.34685250
Si       4.15129494       6.44237536       7.93565269      -3.79228605       4.49155888       1.39027526
Si       5.24212745       4.82293599       8.07737342       3.29845946      -5.58419637       1.11628252
Si       5.14480435       9.94541665       4.20954858      -0.38581645       4.06527967      -5.80944452
Si       5.31622521      10.37461891       1.66412413       3.00770434       1.78170306      -3.04659531
Si       5.17115017       8.59657723       5.58700579      -1.63739693      -0.02946050       1.41755197
Si       3.95100998       8.32688304       0.56279084       6.00273474       6.29342480      -5.85235513
Si       2.88332325       5.19356319       8.48414575      -6.36945555      -5.26297102       1.84861052
Si       1.95451129       9.45316910       1.38270736      -0.45649577      -0.76853347      -2.90215701
Si       3.52104603       8.70979240       2.34562815       2.31838098      -1.63282007      10.98713956
Si       2.10850650       3.12215162       0.22892545      -3.21588901       6.95751179      -4.68000755
Si       0.62350305       1.64843379       1.65879928      -0.52382320      -3.14832638       9.04751166
Si       3.60674900      10.97918171       2.31470087      -7.21742550       5.40474471       2.61580179
24
Lattice="5.253347548357688 -0.17691631793036303 0.023862087900449955 0.33082294848345223 11.860471412381859 -0.4765795032523428 1.2626761378307318 -0.585137890586644 13.484887617419934" Properties=species:S:1:pos:R:3:forces:R:3 unique_starting_index=298 config_type=initial n_minim_iter=4 energy=-3872.108394685693 stress="-0.029453649383230515 -0.024411114717716436 -0.02921239896330478 0.016303242903006346 0.0028831653489802384 0.005426738652031727" pbc="T T T"
Si       5.64200954       7.58431339       7.29512256       4.78953492       0.87512024       0.22771738
Si       3.45169926       1.63990638       0.02444793       1.66651940      -3.55661162      -1.23733688
Si       0.38515292       2.28009512      -0.23961910      -1.77359787       0.12307966      -4.45121021
Si       3.40059971       6.92217695       0.00472096      -3.97879240      -5.67675811      -1.53135371
Si       4.16337078       1.83248344       8.70990659       0.73630379      -0.39394238      -1.68937230
Si       2.50156357       8.36865509      10.31213423      -1.08431760       1.26567061      -1.84590303
Si       3.66811010       7.05813642      11.48920927       1.61841580      -0.87246806       0.41944726
Si       3.40143069       2.96745047       1.79909392       2.16871163      -1.40008360       3.82090240
Si       4.73680095       2.02434078       5.59460318       0.31104669       0.51391930      -1.16537431
Si       2.67331494       4.02849349       3.51737791      -0.62291712      -1.33439784       0.85051078
Si       0.64445564      -0.24176007       6.56119402       0.06251850      -0.12836351       1.27889397
Si       4.87599417       9.19279448       9.06605903       0.40840161       0.10969082       0.12980926
Si       4.23402406       6.59362287       8.22772133      -2.44276746       2.61680157       0.61212391
Si       5.39198950       4.88359732       8.39159773       2.16408953      -3.62074196       1.04956796
Si       5.27532361      10.28827472       4.25123166       0.14556925       2.28226206      -2.56373893
Si       5.47199426      10.76459332       1.57380017       1.37148511       1.77128201      -1.66294019
Si       5.30187564       8.85822520       5.72558069      -0.80102485       0.76718701       0.44615436
Si       4.07140360       8.65795080       0.44849016       4.71539251       4.83052948      -4.05053374
Si       2.91321891       5.28026577       8.82995706      -4.32217834      -3.34599430       2.18215435
Si       1.96791771       9.82524982       1.31216527      -0.42252567      -0.47312182      -1.69891220
Si       3.60524492       9.02555678       2.34135742       1.09784546      -1.28686491       7.00551226
Si       2.17319651       3.24856579       0.17929539      -1.14246842       5.02630633      -3.12802650
Si       0.62906718       1.68856053       1.72889861      -0.42404026      -1.81120931       5.90928559
Si       3.66677190      11.40172879       2.26702891      -4.24120423       3.71870833       1.09262252
24
Lattice="5.478956695866796 -0.22491603725424197 0.006038959612426692 0.2512535766953117 12.290799805028803 -0.7845623127925184 1.268066315240957 -0.9378603134567137 14.067667193592687" Properties=species:S:1:pos:R:3:forces:R:3 unique_starting_index=298 config_type=initial n_minim_iter=5 energy=-3875.018892428891 stress="-0.0009616425044048725 0.0020396923874760726 -0.0003515276188215773 0.007986097070344264 0.0022827381907099854 0.004187756356636702" pbc="T T T"
Si       5.80577949       7.63669375       7.39837821       3.46175051       1.35658252      -0.05423465
Si       3.59095223       1.66144428      -0.03156734       0.89205946      -1.69251046      -0.36906981
Si       0.37924876       2.36570777      -0.31843315      -1.54687673      -0.35451126      -2.22971674
Si       3.48029782       7.12809246      -0.17971769      -3.00413534      -3.03535367      -2.77063137
Si       4.29400732       1.65629847       9.01388799       0.35481059      -0.60933387      -0.96117166
Si       2.49698945       8.40419303      10.53301233      -0.45314851       0.23235682      -0.79221735
Si       3.72705010       7.00321134      11.79335106       0.34801275      -0.99467895       0.80903920
Si       3.52186465       2.99825816       1.79969275       0.77641402      -1.31226500       1.88231018
Si       4.90134652       1.92715605       5.75991519       1.01477839       0.96067251      -1.65246232
Si       2.73969215       4.06320635       3.56077750      -0.35876384      -2.07233860       1.03732415
Si       0.64823698      -0.41277585       6.84701374      -0.57419077      -1.48072838       0.27181006
Si       4.97538368       9.26498798       9.20913049       0.49660903      -0.69964941       0.00715626
Si       4.32204072       6.60536325       8.40119402      -1.31365934       1.71502953      -0.03652192
Si       5.55631676       4.80452678       8.61115566       0.92756275      -1.44020235       0.61194785
Si       5.40074139      10.51761466       4.15334284       0.16700652       0.79129384      -0.86815851
Si       5.61598204      11.07146315       1.35209550       0.05965272       1.37394656      -0.82313564
Si       5.43192615       8.99681221       5.73324741      -0.24377132       1.12241120       0.66109980
Si       4.18542178       8.93561638       0.22877715       3.93328091       3.58686044      -2.69050850
Si       2.94917969       5.22593665       9.07231098      -2.76228465      -1.42432087       2.11833834
Si       1.96649469      10.12703215       1.11787305       0.42740131       0.12605129      -1.37977855
Si       3.68055911       9.25678009       2.22635133       0.31616771      -0.84914916       4.53882391
Si       2.23492841       3.35669604       0.08929194      -0.07864239       3.05354440      -1.47148868
Si       0.63481991       1.69620481       1.77516976      -0.37913621      -0.68761632       3.24293730
Si       3.71027072      11.73420718       2.07408570      -2.46089757       2.33390920       0.91830865
24
Lattice="5.490184136884607 -0.2640652200312448 -0.012963625249984161 0.16196910690836042 12.257188016297764 -0.9615945671135988 1.2213922029527642 -1.1416757638940815 14.086172899898246" Properties=species:S:1:pos:R:3:forces:R:3 unique_starting_index=298 config_type=initial n_minim_iter=6 energy=-3875.9029504688374 stress="0.0024993039416659445 0.005357989472648667 0.0015282122612287196 0.007300528672010387 0.004411018049336785 0.0034747082173311374" pbc="T T T"
Si       5.73934317       7.46689875       7.27050263       3.31066433       1.25734782      -0.30694992
Si       3.58807190       1.62486766      -0.07029194       0.69651567      -1.39053300      -0.43560473
Si       0.35850432       2.35950557      -0.36074503      -1.59590757      -0.45294771      -1.74170114
Si       3.42456561       7.07346721      -0.30303560      -2.96463258      -2.88643748      -2.62562042
Si       4.25440370       1.49101829       8.97668672       0.02803898      -0.79002082      -0.90178778
Si       2.39445126       8.20975854      10.40804905      -0.35906062      -0.00778415      -0.65762283
Si       3.63510394       6.78244275      11.68980523       0.21586566      -1.10214202       0.63692028
Si       3.50102179       2.93197870       1.75032200       0.69220503      -1.28570475       1.56975202
Si       4.87535026       1.80705300       5.71120839       1.02646889       0.93042374      -1.50517898
Si       2.69905262       3.97255107       3.49835612      -0.45047094      -2.26041156       0.94520163
Si       0.62383960      -0.51670718       6.85673629      -0.29799157      -1.10004440       0.44204879
Si       4.87919392       9.06478158       9.06374238       0.38570887      -0.70918913       0.10613654
Si       4.24163032       6.43822653       8.29466399      -1.31026374       1.61491900      -0.10198010
Si       5.49878240       4.62147148       8.52883586       0.94673871      -1.13081129       0.58275129
Si       5.31448816      10.38594800       3.98131608       0.09236879       0.32893153      -0.71938975
Si       5.53656560      10.97744135       1.16913988      -0.06422912       1.29421144      -0.87455268
Si       5.34954858       8.84844558       5.58855456      -0.14831436       1.27784171       0.47234540
Si       4.13573334       8.88152696       0.07458756       4.01862604       3.70619143      -2.57638487
Si       2.87042657       5.05431983       8.99952759      -2.57865025      -1.11525464       2.19958458
Si       1.89028482      10.06256597       0.96182968       0.48843825       0.15370942      -1.11853089
Si       3.60945139       9.16192029       2.09535218       0.08249962      -0.85278864       4.05670557
Si       2.21201420       3.33720178       0.02652682       0.30774787       2.59815142      -1.26587391
Si       0.61506054       1.65740236       1.76002262      -0.25673547      -0.43871926       2.86501671
Si       3.61143314      11.64439289       1.89490430      -2.26563050       2.36106135       0.95471520
24
Lattice="5.475543444020678 -0.2832827277164509 -0.03875827464827911 0.11529696856343964 12.18933511358961 -1.0646890524156103 1.1511525874571167 -1.2571916545728838 14.065311170321328" Properties=species:S:1:pos:R:3:forces:R:3 unique_starting_index=298 config_type=initial n_minim_iter=7 energy=-3876.490641062723 stress="0.0031340063673821806 0.0059372092055253916 0.0008550707717983078 0.007679452471676362 0.005817049951463141 0.0035031893385849156" pbc="T T T"
Si       5.66138401       7.34015921       7.16426122       3.27480228       1.15668766      -0.47229957
Si       3.57304646       1.59910319      -0.10273234       0.63221748      -1.35587426      -0.56062390
Si       0.34628723       2.34666719      -0.38533241      -1.67759298      -0.49343679      -1.54582430
Si       3.38125582       7.01535984      -0.38436298      -3.01658630      -2.94542335      -2.50865809
Si       4.19061396       1.38927286       8.92523952      -0.29195086      -1.01855368      -0.93116283
Si       2.29979254       8.06337604      10.30692157      -0.38974052      -0.09347262      -0.61659346
Si       3.53770850       6.62672939      11.59519700       0.18994094      -1.14883805       0.64870408
Si       3.47150790       2.88284850       1.70813860       0.70802836      -1.29302476       1.59137411
Si       4.82674773       1.73163020       5.65775879       0.96484129       0.95183763      -1.43197917
Si       2.65648572       3.90401238       3.44748836      -0.52924927      -2.42029397       0.86508160
Si       0.58900296      -0.57549038       6.84735112       0.11851240      -0.70895935       0.73073408
Si       4.78230788       8.91317017       8.94675154       0.32712732      -0.59855048       0.22620921
Si       4.15746736       6.31650393       8.20338478      -1.35883188       1.61542866      -0.14929837
Si       5.42258221       4.49818412       8.44837028       1.09908751      -1.07624743       0.52125816
Si       5.23582960      10.26941285       3.85766454       0.01938792       0.16340641      -0.75090997
Si       5.46855812      10.88189945       1.04356935      -0.13511731       1.28705210      -0.98623877
Si       5.26834082       8.72926956       5.47710600      -0.12997728       1.24785364       0.41482108
Si       4.09400623       8.81773247      -0.02843161       4.10319577       3.89245356      -2.53896427
Si       2.79030777       4.93468860       8.93132629      -2.57220881      -1.03790215       2.27713159
Si       1.83901208       9.98605743       0.86286882       0.46813500       0.07134983      -1.06648998
Si       3.55053680       9.07139172       2.00411240       0.05051309      -0.93523387       3.79803050
Si       2.19173002       3.31339451      -0.01651690       0.50865269       2.47467827      -1.24940722
Si       0.59697679       1.62844225       1.74574625      -0.17689539      -0.32613718       2.78282793
Si       3.53773014      11.54794480       1.77566121      -2.18629145       2.59120016       0.95227756
24
Lattice="5.338733108751661 -0.4173863933019469 -0.3062047976601247 -0.21528045537916582 11.639378333618074 -1.9066039575170481 0.42620810085371574 -2.1863671101642175 14.0345809906316" Properties=species:S:1:pos:R:3:forces:R:3 unique_starting_index=298 config_type=initial n_minim_iter=8 energy=-3881.0060212851445 stress="-0.007240057023043418 -0.008995155932784276 -0.009015192033793504 -0.0013425083133185153 0.005680005866993483 -0.007423367250130063" pbc="T T T"
Si       4.95611831       6.33360199       6.31726115       2.12253154       0.43055826      -0.74446747
Si       3.44530884       1.40658617      -0.40480789       0.29258850      -1.78938028      -2.06001546
Si       0.25831405       2.24589445      -0.58600390      -3.08076115      -1.06951215      -0.58584060
Si       3.04855166       6.56285012      -1.07171794      -4.29291301      -5.98544668      -1.44611534
Si       3.56664764       0.58169345       8.56209488      -0.47420818      -1.07295535       0.28416236
Si       1.44137141       6.88729958       9.57920419       0.27579441      -0.30876769      -0.28609866
Si       2.63424383       5.37970793      10.92075268      -0.11064784      -0.92653912       0.87473851
Si       3.21085878       2.49696137       1.35102665       1.18659701      -0.72366529       2.44965015
Si       4.36232214       1.14133335       5.23415585       0.64017318       1.54876374      -0.50764848
Si       2.27774885       3.35810018       3.04890409      -1.33981034      -1.29762484       1.39740714
Si       0.23682585      -1.04409496       6.84302218       2.03088011       1.02103241       2.26920568
Si       3.91306134       7.70614988       8.05100193       0.07642217       0.22498268       0.92620657
Si       3.39382245       5.34767727       7.50955187      -1.10817719       1.21334661      -0.83028458
Si       4.71405282       3.52208835       7.83133351       1.65021377      -0.69473932      -0.31431146
Si       4.57145561       9.34446237       2.84651605      -0.82982604      -0.78883259      -1.82186708
Si       4.92085328      10.12981968      -0.01850300       0.17152683       2.52738333      -0.66552453
Si       4.56135491       7.78333931       4.57936189      -0.16470172       0.49305474      -0.20784809
Si       3.76967074       8.31803686      -0.91112755       3.81281910       5.55050909      -1.80780289
Si       2.05218929       3.97767550       8.45271135      -2.81623428      -1.25307562       1.87987261
Si       1.43915224       9.37281809       0.05619625      -0.30755637      -1.68763092      -1.67721804
Si       3.06436641       8.34713191       1.25105805      -0.11174086      -1.19020925       1.74080105
Si       2.03391239       3.12642809      -0.39012527       2.77681156       2.31971852      -1.08212015
Si       0.43383929       1.39505441       1.64273782       0.20842306      -0.39225930       1.31564340
Si       2.94509794      10.78194446       0.79526871      -0.60820428       3.85128903       0.89947536
24
Lattice="5.477797076044484 -0.2800252035735876 -0.4401380647738933 0.12317608418641586 12.011129452615572 -1.9292094536147246 0.11027298422643472 -2.159359618770668 14.480464557878081" Properties=species:S:1:pos:R:3:forces:R:3 unique_starting_index=298 config_type=initial n_minim_iter=9 energy=-3882.149970342942 stress="0.014471885630537144 0.014650469720777926 0.013806088753819171 0.0032350728273112025 0.0078077579627939386 0.0024521286887896343" pbc="T T T"
Si       5.15109789       6.73015967       6.42252480       0.30127573       0.33091261       0.27506055
Si       3.58863791       1.54258906      -0.50491347       0.54726031      -0.69319746      -0.97349208
Si       0.31588308       2.32172828      -0.60393644      -1.58282147      -0.89531455       0.34268216
Si       3.30115548       6.83185504      -1.15221747      -2.33054025      -0.78328140      -1.71641753
Si       3.51114757       0.75027134       8.76862564      -2.24502414      -2.05853753       0.49287365
Si       1.48070668       7.21784347       9.88075963       0.74228974      -0.36200673      -0.04930657
Si       2.63692890       5.69649011      11.24466636      -0.16973339      -1.64199973       0.89237776
Si       3.34422501       2.67082898       1.34782557       1.19393331      -0.85894054       2.05407259
Si       4.41344359       1.34793865       5.30249384       0.59663655       1.52144759      -1.86011879
Si       2.35990116       3.54516080       3.12125544      -0.90194371      -2.63655662      -0.02767560
Si       0.09539419      -1.02903529       7.07276802       2.26430524      -0.07645265       1.46913184
Si       4.06726557       8.12662793       8.25601296       0.32143113      -1.01912993       0.31138098
Si       3.47465061       5.68157059       7.68763798      -0.64933068       1.11250771      -0.76689478
Si       4.79630725       3.81939978       7.98932293       1.08994808       0.33811481      -0.20057655
Si       4.88373716       9.80585482       2.85246182      -0.51194461      -1.10336981      -0.52704405
Si       5.32167622      10.62750817      -0.11146899      -0.80330771       1.63274401      -0.30170556
Si       4.80095622       8.20739611       4.64668295       0.40999687       1.39208511      -0.64670947
Si       4.13261052       8.73490937      -1.03015001       1.87862636       2.33657184      -1.42334154
Si       2.03006709       4.21341117       8.71488743      -0.95563772       1.02993732       1.70839071
Si       1.72539036       9.72133270       0.04461925       0.54619348      -0.61144249      -1.63709092
Si       3.34231100       8.71162891       1.26248009       0.45988614      -1.37642433       1.45328083
Si       2.19742653       3.30173090      -0.45521278       0.71446439       1.47242771      -1.01981357
Si       0.45143266       1.45926555       1.70141070      -0.19668709       0.11410251       1.43740333
Si       3.28627441      11.25576870       0.78606755      -0.71927654       2.83580254       0.71353262
24
Lattice="5.3531122784356535 -0.2882200863309143 -0.4986073482283941 0.0865568027449069 11.72833383234477 -1.9536721032842113 -0.06990643726210921 -2.1791571990277023 14.15896700137311" Properties=species:S:1:pos:R:3:forces:R:3 unique_starting_index=298 config_type=initial n_minim_iter=10 energy=-3883.038255349442 stress="-0.002556050892218622 -0.001351449884877206 -0.002940834333516082 0.0011462730093240172 0.0013774985850020815 -0.0020651057808928415" pbc="T T T"
Si       4.91154332       6.51905920       6.17208446       0.64369021       0.16813210       0.06408309
Si       3.50362782       1.49513484      -0.55069466       0.45679391      -1.46140836      -1.37491745
Si       0.30011778       2.26498166      -0.60445497      -2.08065709      -0.82632309      -0.19613912
Si       3.19741352       6.66109309      -1.20990950      -2.74959817      -2.73240242      -0.97258816
Si       3.30271590       0.67200838       8.52279930      -0.72879065      -1.42527636       1.04704055
Si       1.28380171       6.98749384       9.59459398       0.23337366       0.10192163      -0.61047132
Si       2.39907631       5.48866477      10.92548154       0.17639277      -1.29046182       1.12421297
Si       3.23598541       2.58428733       1.26588728       1.40957306      -0.84297832       2.71144659
Si       4.23412189       1.28056083       5.10926826       0.57724666       1.81141294      -1.23868311
Si       2.24327226       3.42913748       3.00224713      -1.02067740      -1.74050660       0.72820865
Si       0.01231444      -1.04153107       6.91870950       1.75101970       0.33021510       1.99330625
Si       3.82353713       7.87215213       7.97084840       0.32705975      -0.19421186       0.44610904
Si       3.26159213       5.49821487       7.43196742      -0.91353773       1.15658065      -0.79904132
Si       4.56175421       3.67260717       7.72183433       1.44211861      -0.41551245      -0.35546677
Si       4.68029490       9.53555332       2.66920585      -0.61597661      -0.90549423      -1.53707252
Si       5.14048312      10.35792975      -0.23841411      -0.31300164       2.36118831      -0.28428824
Si       4.58617389       7.97396114       4.42928737       0.07246134       0.66493235      -0.54113382
Si       4.00958481       8.52180384      -1.11574679       2.36910948       2.99531906      -1.46163157
Si       1.84347099       4.06290913       8.47050621      -1.52401726       0.14214941       1.46100303
Si       1.63838832       9.47895955      -0.03782427      -0.09842470      -1.32590026      -2.04137666
Si       3.20393870       8.47796313       1.14764099       0.14756402      -1.59516463       1.47613983
Si       2.13659373       3.22153092      -0.49624186       1.16221264       2.16535777      -1.46226706
Si       0.41001013       1.41305081       1.65305118      -0.15750032      -0.34863478       1.28288352
Si       3.13874699      10.97523220       0.66326134      -0.56643423       3.20706586       0.54064359
24