10
Lattice="6.358107604488398 3.831923339887988e-15 -7.371019604028898e-25 -3.179053802244199 6.735992833275391 -9.948251687051664e-26 -1.801328988463763e-24 -1.4281811718055189e-24 11.584419284355736" Properties=species:S:1:pos:R:3:forces:R:3 unique_starting_index=448 config_type=initial n_minim_iter=17 energy=-1623.8319357890282 stress="-8.797731425931361e-06 -5.682329134440609e-13 -6.406056635732181e-13 -5.682329134440609e-13 -2.667070133498594e-06 3.2551712631578936e-13 -6.406056635732181e-13 3.2551712631578936e-13 -4.71952160172827e-06" free_energy=-1623.8319357890282 pbc="T T T"
Si       2.00389550       2.30396992       1.18620605      -0.00024029       0.00077667       0.00027391
Si       1.17515894       4.43202426       1.18620605       0.00024028      -0.00077667       0.00027391
Si      -2.00389486       2.30396992       1.18620605       0.00024028       0.00077667       0.00027391
Si       5.18294930       4.43202426       1.18620605      -0.00024028      -0.00077667       0.00027391
Si      -1.24414079       2.24615718       3.43771473      -0.00401215       0.00410795      -0.00110057
Si       4.42319522       4.48983700       3.43771473       0.00401215      -0.00410795      -0.00110057
Si       1.24414142       2.24615718       3.43771473       0.00401215       0.00410795      -0.00110057
Si       1.93491302       4.48983700       3.43771473      -0.00401215      -0.00410795      -0.00110057
Si       3.17905412       2.76327366       4.89189442      -0.00000000      -0.00134095       0.00165331
Si       0.00000032       3.97272052       4.89189442       0.00000000       0.00134095       0.00165331
