20
Lattice="6.266488540340089 -3.556371143804963e-16 -7.03058933840736e-14 3.087331713670168e-16 5.440019621583721 1.351585938457276e-14 2.526208867104515e-13 -5.594289956552719e-14 22.516546130401693" Properties=species:S:1:pos:R:3:forces:R:3 unique_starting_index=4 config_type=initial n_minim_iter=1 energy=-3248.8125248906695 stress="0.0042531206349915 -1.8222258615309487e-12 2.2128444643584602e-12 -1.8222258615309487e-12 -0.0016583804882591517 -3.4630224089602673e-12 2.2128444643584602e-12 -3.4630224089602673e-12 0.0004425857908197318" free_energy=-3248.8125248906695 pbc="T T T"
Si       3.95275821       2.67088090      14.34079296       0.34642540      -0.07664756       0.05965260
Si       3.95275821       2.76913872       8.17575317       0.34642540       0.07664756      -0.05965260
Si       2.88855071       2.62881907      12.28358390       0.13994596       0.44779319       0.45155551
Si       2.88855071       2.81120055      10.23296223       0.13994596      -0.44779319      -0.45155551
Si       2.31373033      -0.04912891      19.43402624      -0.34642540      -0.07664756      -0.05965260
Si       2.31373033       5.48914853       3.08251989      -0.34642540       0.07664756       0.05965260
Si       3.37793783       5.34882888      21.49123530      -0.13994596       0.44779319      -0.45155551
Si       3.37793783       0.09119074       1.02531083      -0.13994596      -0.44779319       0.45155551
Si       3.22628939       3.91519079       4.52173415       0.16960109       0.00094200       0.13655145
Si       3.22628939       1.52482883      17.99481198       0.16960109      -0.00094200      -0.13655145
Si       3.29603412       3.78025774      17.99142307      -0.28582765       0.07515508       0.45726941
Si       3.29603412       1.65976189       4.52512306      -0.28582765      -0.07515508      -0.45726941
Si       3.04019916       1.19518098       6.73653892      -0.16960109       0.00094200      -0.13655145
Si       3.04019916       4.24483864      15.78000721      -0.16960109      -0.00094200       0.13655145
Si       2.97045442       1.06024792      15.78339613       0.28582765       0.07515508      -0.45726941
Si       2.97045442       4.37977170       6.73315000       0.28582765      -0.07515508       0.45726941
Si       5.83454815       2.76634520      20.71562672       0.15790323       0.06122532       0.75060733
Si       5.83454815       2.67367443       1.80091941       0.15790323      -0.06122533      -0.75060733
Si       0.43194039       5.39368424       9.45735365      -0.15790323      -0.06122532       0.75060733
Si       0.43194039       0.04633538      13.05919248      -0.15790323       0.06122532      -0.75060733
20
Lattice="6.1844515103720425 -3.5098133109415125e-16 -6.93854916877568e-14 3.1032362161390585e-16 5.4680440820325655 1.3631664118804262e-14 2.522747040212637e-13 -5.567516475732026e-14 22.48569025544955" Properties=species:S:1:pos:R:3:forces:R:3 unique_starting_index=4 config_type=initial n_minim_iter=2 energy=-3248.8504016475877 stress="-0.0027583167117836674 -2.5196225961100188e-12 -5.711292659810145e-12 -2.5196225961100188e-12 -0.001169942811012103 -1.5161300280916308e-13 -5.711292659810145e-12 -1.5161300280916308e-13 -0.0019661082570120916" free_energy=-3248.8504016475877 pbc="T T T"
Si       3.90239117       2.68432906      14.32138131       0.42520116      -0.09585440       0.15929801
Si       3.90239117       2.78371502       8.16430895       0.42520116       0.09585440      -0.15929801
Si       2.85129307       2.64417838      12.26857114       0.09301446       0.48019493       0.43826534
Si       2.85129307       2.82386571      10.21711912       0.09301446      -0.48019493      -0.43826534
Si       2.28206034      -0.04969298      19.40715408      -0.42520116      -0.09585440      -0.15929801
Si       2.28206034       5.51773706       3.07853618      -0.42520116       0.09585440       0.15929801
Si       3.33315844       5.37820042      21.45996425      -0.09301446       0.48019493      -0.43826534
Si       3.33315844       0.08984366       1.02572601      -0.09301446      -0.48019493       0.43826534
Si       3.18472842       3.93536386       4.51608816       0.21230793      -0.05959469       0.13723211
Si       3.18472842       1.53268022      17.96960209       0.21230793       0.05959469      -0.13723211
Si       3.25174581       3.80003680      17.96861152      -0.18251310      -0.00975836       0.41621259
Si       3.25174581       1.66800728       4.51707873      -0.18251310       0.00975836      -0.41621259
Si       2.99972309       1.20134182       6.72675697      -0.21230793      -0.05959469      -0.13723211
Si       2.99972309       4.26670226      15.75893329      -0.21230793       0.05959470       0.13723211
Si       2.93270570       1.06601476      15.75992386       0.18251310      -0.00975836      -0.41621259
Si       2.93270570       4.40202932       6.72576639       0.18251310       0.00975836       0.41621259
Si       5.75879486       2.78084454      20.69026447       0.07152229       0.09282719       0.95225389
Si       5.75879486       2.68719955       1.79542579       0.07152229      -0.09282719      -0.95225389
Si       0.42565665       5.42122159       9.44741934      -0.07152229      -0.09282719       0.95225389
Si       0.42565665       0.04682250      13.03827092      -0.07152229       0.09282719      -0.95225389
20
Lattice="6.175779455951826 -3.504891727841284e-16 -6.92881969221852e-14 3.1189602046040035e-16 5.495750468553952 1.3520012345502772e-14 2.530893902996746e-13 -5.659681179954572e-14 22.55830468337157" Properties=species:S:1:pos:R:3:forces:R:3 unique_starting_index=4 config_type=initial n_minim_iter=3 energy=-3248.8703664437503 stress="-0.0008042501812912326 -1.7896172183561073e-12 1.6841399034833338e-12 -1.7896172183561073e-12 0.004668404800642974 -2.157581971393397e-12 1.6841399034833338e-12 -2.157581971393397e-12 0.0040890067636370556" free_energy=-3248.8703664437503 pbc="T T T"
Si       3.89873649       2.69750893      14.36817796       0.33329068      -0.06755378       0.15408151
Si       3.89873649       2.79824154       8.19012673       0.33329068       0.06755378      -0.15408151
Si       2.84782687       2.65982508      12.31030986       0.11181536       0.47574022       0.18803324
Si       2.84782687       2.83592539      10.24799482       0.11181536      -0.47574022      -0.18803324
Si       2.27704297      -0.05036630      19.46927907      -0.33329068      -0.06755378      -0.15408151
Si       2.27704297       5.54611677       3.08902561      -0.33329068       0.06755378       0.15408151
Si       3.32795259       5.40770031      21.52714717      -0.11181536       0.47574022      -0.18803324
Si       3.32795259       0.08805015       1.03115752      -0.11181536      -0.47574022       0.18803324
Si       3.18116306       3.95514650       4.53132547       0.15282448      -0.14802093       0.12966061
Si       3.18116306       1.54060397      18.02697922       0.15282448       0.14802094      -0.12966061
Si       3.24611873       3.81942669      18.02871167      -0.21199409      -0.11998026       0.37506001
Si       3.24611873       1.67632378       4.52959302      -0.21199409       0.11998026      -0.37506001
Si       2.99461640       1.20727126       6.74782687      -0.15282448      -0.14802094      -0.12966061
Si       2.99461640       4.28847921      15.81047781      -0.15282448       0.14802094       0.12966061
Si       2.92966073       1.07155146      15.80874536       0.21199409      -0.11998026      -0.37506001
Si       2.92966073       4.42419901       6.74955932       0.21199409       0.11998026       0.37506001
Si       5.75123409       2.79531527      20.76119415       0.08406334       0.11422019       0.91977789
Si       5.75123409       2.70043520       1.79711053       0.08406334      -0.11422019      -0.91977789
Si       0.42454536       5.44831043       9.48204181      -0.08406334      -0.11422019       0.91977789
Si       0.42454536       0.04744004      13.07626287      -0.08406335       0.11422019      -0.91977789
20
Lattice="6.150960500370951 -3.490806420435318e-16 -6.900974451080037e-14 3.1248039786709497e-16 5.506047465617086 1.3745694606989614e-14 2.512835067349951e-13 -5.5373158435959455e-14 22.39734308942052" Properties=species:S:1:pos:R:3:forces:R:3 unique_starting_index=4 config_type=initial n_minim_iter=4 energy=-3249.069001817183 stress="0.002045783086765014 2.0774212466923072e-12 -4.7254587878068215e-12 2.0774212466923072e-12 0.007092600914643353 -2.003902109731827e-12 -4.7254587878068215e-12 -2.003902109731827e-12 -0.004238705245550365" free_energy=-3249.069001817183 pbc="T T T"
Si       3.89966265       2.69875231      14.27120780       0.11520896       0.09507922       0.11603399
Si       3.89966265       2.80729515       8.12613529       0.11520896      -0.09507922      -0.11603399
Si       2.84137348       2.68630625      12.23989460       0.20900806       0.36892615      -0.40037834
Si       2.84137348       2.81974121      10.15744848       0.20900806      -0.36892615       0.40037834
Si       2.25129785      -0.05427142      19.32480684      -0.11520896       0.09507922      -0.11603399
Si       2.25129785       5.56031888       3.07253625      -0.11520896      -0.09507922       0.11603399
Si       3.30958702       5.43932998      21.35612003      -0.20900806       0.36892615       0.40037834
Si       3.30958702       0.06671748       1.04122306      -0.20900806      -0.36892615      -0.40037834
Si       3.17648195       3.95988235       4.50507349      -0.04623943      -0.12609843       0.04443817
Si       3.17648195       1.54616512      17.89226960      -0.04623943       0.12609843      -0.04443817
Si       3.22317778       3.82636294      17.91900496      -0.10589139      -0.17508243       0.06423806
Si       3.22317778       1.67968452       4.47833813      -0.10589138       0.17508243      -0.06423806
Si       2.97447855       1.20685861       6.69359805       0.04623943      -0.12609843      -0.04443817
Si       2.97447855       4.29918885      15.70374504       0.04623943       0.12609843       0.04443817
Si       2.92778272       1.07333921      15.67700968       0.10589139      -0.17508243      -0.06423806
Si       2.92778272       4.43270825       6.72033341       0.10589138       0.17508243       0.06423806
Si       5.73271494       2.80453227      20.65237653       0.04599409       0.05515283       0.64931606
Si       5.73271494       2.70151520       1.74496656       0.04599409      -0.05515283      -0.64931606
Si       0.41824556       5.45453893       9.45370499      -0.04599409      -0.05515283       0.64931606
Si       0.41824556       0.05150853      12.94363810      -0.04599409       0.05515283      -0.64931606
20
Lattice="6.113687564320325 -3.4696532030693735e-16 -6.859156660283522e-14 3.101364429020776e-16 5.464745907558682 1.3498511334284307e-14 2.527885610231857e-13 -5.631297393701421e-14 22.53149123825369" Properties=species:S:1:pos:R:3:forces:R:3 unique_starting_index=4 config_type=initial n_minim_iter=5 energy=-3249.1389375231256 stress="-0.002089335162500482 -2.7023647185521103e-13 2.286066152656002e-12 -2.7023647185521103e-13 -0.002124679949184164 -1.8153558966774634e-12 2.286066152656002e-12 -1.8153558966774634e-12 0.0046399857269673285" free_energy=-3249.1389375231256 pbc="T T T"
Si       3.88458400       2.67680762      14.35970852       0.19093174       0.16139455      -0.12984193
Si       3.88458400       2.78793829       8.17178271       0.19093174      -0.16139455       0.12984193
Si       2.82708103       2.67766333      12.32131058       0.14130380       0.34478149      -0.83151360
Si       2.82708103       2.78708258      10.21018066       0.14130380      -0.34478149       0.83151360
Si       2.22910356      -0.05556534      19.43752833      -0.19093174       0.16139455       0.12984193
Si       2.22910356       5.52031124       3.09396291      -0.19093174      -0.16139455      -0.12984193
Si       3.28660654       5.41003628      21.47592627      -0.14130380       0.34478149       0.83151360
Si       3.28660654       0.05470963       1.05556496      -0.14130380      -0.34478149      -0.83151360
Si       3.16120517       3.92865058       4.53522596      -0.14952322       0.11110534       0.16836119
Si       3.16120517       1.53609533      17.99626528      -0.14952322      -0.11110534      -0.16836119
Si       3.19847850       3.79726980      18.03606571      -0.05176562       0.01627060      -0.27945540
Si       3.19847850       1.66747611       4.49542553      -0.05176562      -0.01627060       0.27945540
Si       2.95248239       1.19627763       6.73051966       0.14952322       0.11110534      -0.16836119
Si       2.95248239       4.26846828      15.80097158       0.14952322      -0.11110534       0.16836119
Si       2.91520906       1.06489685      15.76117115       0.05176562       0.01627060       0.27945540
Si       2.91520906       4.39984906       6.77032009       0.05176562      -0.01627060      -0.27945540
Si       5.70038152       2.78557264      20.79727522       0.04124963       0.03453655       0.68491190
Si       5.70038152       2.67917327       1.73421601       0.04124964      -0.03453655      -0.68491190
Si       0.41330605       5.41154622       9.53152960      -0.04124963      -0.03453655       0.68491190
Si       0.41330605       0.05319968      12.99996163      -0.04124963       0.03453655      -0.68491190
20
Lattice="6.058723519777032 -3.438459889509233e-16 -6.797490605510722e-14 3.110665827420392e-16 5.481135396766631 1.3677310232369022e-14 2.5177953068411657e-13 -5.5520087245782947e-14 22.441554580709397" Properties=species:S:1:pos:R:3:forces:R:3 unique_starting_index=4 config_type=initial n_minim_iter=6 energy=-3249.277792314578 stress="0.0014559651538522524 -2.586092231923056e-12 3.3948837774444717e-12 -2.586092231923056e-12 0.002283752245523934 9.255332157703735e-13 3.3948837774444717e-12 9.255332157703735e-13 -0.004403221007913689" free_energy=-3249.277792314578 pbc="T T T"
Si       3.87637923       2.68525882      14.30756257      -0.13596216       0.26639082      -0.19838117
Si       3.87637923       2.79587658       8.13399201      -0.13596216      -0.26639082       0.19838117
Si       2.81407373       2.72613740      12.27095653       0.14250450       0.08162313      -0.76086315
Si       2.81407373       2.75499800      10.17059805       0.14250450      -0.08162313       0.76086315
Si       2.18234429      -0.05530888      19.35476930       0.13596216       0.26639082       0.19838117
Si       2.18234429       5.53644427       3.08678528       0.13596215      -0.26639082      -0.19838117
Si       3.24464979       5.46670510      21.39137534      -0.14250450       0.08162313       0.76086315
Si       3.24464979       0.01443030       1.05017924      -0.14250450      -0.08162313      -0.76086315
Si       3.13910204       3.93900221       4.52937090      -0.42253780       0.05420639      -0.02022202
Si       3.13910204       1.54213318      17.91218368      -0.42253780      -0.05420639       0.02022202
Si       3.15457007       3.80761944      17.98283837       0.04522492      -0.08134181      -0.54392621
Si       3.15457007       1.67351595       4.45871621       0.04522492       0.08134181       0.54392621
Si       2.91962147       1.19843451       6.69140639       0.42253780       0.05420639       0.02022202
Si       2.91962147       4.28270088      15.75014819       0.42253780      -0.05420639      -0.02022202
Si       2.90415345       1.06705174      15.67949350      -0.04522492      -0.08134181       0.54392621
Si       2.90415345       4.41408365       6.76206108      -0.04522492       0.08134181      -0.54392621
Si       5.65672605       2.80013463      20.78836858      -0.09376555       0.03382893       0.15852738
Si       5.65672605       2.68100077       1.65318600      -0.09376555      -0.03382893      -0.15852738
Si       0.40199747       5.42156847       9.56759129       0.09376555      -0.03382893       0.15852738
Si       0.40199747       0.05956693      12.87396329       0.09376554       0.03382893      -0.15852738
20
Lattice="6.041986462895579 -3.428961238751258e-16 -6.778712724898731e-14 3.098572721117952e-16 5.459826790607369 1.3370199365681316e-14 2.541619917674791e-13 -5.71036600509083e-14 22.653907547979763" Properties=species:S:1:pos:R:3:forces:R:3 unique_starting_index=4 config_type=initial n_minim_iter=7 energy=-3249.4045207816284 stress="0.0008385330685444058 -1.2956472062005847e-12 4.940877836504244e-12 -1.2956472062005847e-12 -0.00037923902529430557 3.871751027934235e-12 4.940877836504244e-12 3.871751027934235e-12 -0.00046696634515267426" free_energy=-3249.4045207816284 pbc="T T T"
Si       3.86888861       2.68609602      14.43387198      -0.15563458       0.00325560      -0.10200192
Si       3.86888861       2.77373077       8.22003557      -0.15563458      -0.00325560       0.10200192
Si       2.81398759       2.72975101      12.35087014       0.07543616      -0.01911049       0.55850057
Si       2.81398759       2.73007578      10.30303741       0.07543616       0.01911049      -0.55850057
Si       2.17309785      -0.04381737      19.54698934       0.15563458       0.00325560       0.10200192
Si       2.17309785       5.50364416       3.10691820       0.15563458      -0.00325560      -0.10200192
Si       3.22799887       5.45966440      21.62999118      -0.07543616      -0.01911049      -0.55850057
Si       3.22799887       0.00016239       1.02391637      -0.07543616       0.01911049       0.55850057
Si       3.11575798       3.92771767       4.57650657      -0.40250321      -0.02294448      -0.11051037
Si       3.11575798       1.53210912      18.07740098      -0.40250321       0.02294448       0.11051037
Si       3.14382671       3.79100982      18.13298484      -0.12197562       0.04456071      -0.14814846
Si       3.14382671       1.66881698       4.52092270      -0.12197562      -0.04456071       0.14814846
Si       2.92622848       1.19780428       6.75044721       0.40250321      -0.02294448       0.11051037
Si       2.92622848       4.26202251      15.90346034       0.40250321       0.02294448      -0.11051037
Si       2.89815976       1.06109642      15.84787648       0.12197562       0.04456071       0.14814846
Si       2.89815976       4.39873037       6.80603107       0.12197562      -0.04456071      -0.14814846
Si       5.63976567       2.79225904      21.01296043       0.00748839       0.11367396       0.16317311
Si       5.63976567       2.66756775       1.64094712       0.00748839      -0.11367396      -0.16317311
Si       0.40222080       5.39748114       9.68600665      -0.00748839      -0.11367396       0.16317311
Si       0.40222080       0.06234565      12.96790089      -0.00748839       0.11367396      -0.16317311
20
Lattice="5.985633543317376 -3.3969797078246625e-16 -6.715488443385368e-14 3.10184644269731e-16 5.465595237694265 1.2690922683879219e-14 2.5474275675405613e-13 -6.010117368204583e-14 22.70567215771356" Properties=species:S:1:pos:R:3:forces:R:3 unique_starting_index=4 config_type=initial n_minim_iter=8 energy=-3249.4525432167025 stress="-0.0020824544936132797 -8.43417701566374e-13 1.4240105200227775e-11 -8.43417701566374e-13 0.0006444123288200432 -2.989305913186889e-12 1.4240105200227775e-11 -2.989305913186889e-12 0.0016442732642096948" free_energy=-3249.4525432167025 pbc="T T T"
Si       3.83633786       2.69127723      14.46292967      -0.08225997      -0.01661253      -0.06481410
Si       3.83633786       2.77431801       8.24274249      -0.08225997       0.01661253       0.06481410
Si       2.79518545       2.74707630      12.39332612      -0.08652114      -0.09641804      -0.15595667
Si       2.79518545       2.71851893      10.31234604      -0.08652114       0.09641804       0.15595667
Si       2.14929568      -0.04152039      19.59557857       0.08225997      -0.01661253       0.06481410
Si       2.14929568       5.50711563       3.11009359       0.08225997       0.01661253      -0.06481410
Si       3.19044809       5.47987392      21.66518211       0.08652114      -0.09641804       0.15595667
Si       3.19044809      -0.01427868       1.04049004       0.08652114       0.09641804      -0.15595667
Si       3.07195546       3.93092959       4.58741527      -0.37671345      -0.05131102      -0.03349938
Si       3.07195546       1.53466565      18.11825688      -0.37671345       0.05131102       0.03349938
Si       3.10556330       3.79548237      18.17055241      -0.13689840       0.04413710      -0.13001172
Si       3.10556330       1.67011287       4.53511975      -0.13689840      -0.04413710       0.13001172
Si       2.91367808       1.19813197       6.76542081       0.37671345      -0.05131102       0.03349938
Si       2.91367808       4.26746326      15.94025135       0.37671345       0.05131102      -0.03349938
Si       2.88007024       1.06268475      15.88795583       0.13689840       0.04413710       0.13001172
Si       2.88007024       4.40291049       6.81771633       0.13689840      -0.04413710      -0.13001172
Si       5.58899199       2.80228572      21.09612932      -0.06253530       0.12833616       0.01944047
Si       5.58899199       2.66330952       1.60954284      -0.06253530      -0.12833616      -0.01944047
Si       0.39664155       5.39610714       9.74329324       0.06253530      -0.12833616       0.01944047
Si       0.39664155       0.06948810      12.96237891       0.06253530       0.12833616      -0.01944047
20
Lattice="6.025469200722357 -3.41958732636249e-16 -6.76018143954057e-14 3.089751213148743e-16 5.444282890278398 1.2048445249705063e-14 2.550377762996777e-13 -6.258443896485261e-14 22.7319677712508" Properties=species:S:1:pos:R:3:forces:R:3 unique_starting_index=4 config_type=initial n_minim_iter=9 energy=-3249.4942489219616 stress="0.0008258710805244021 -1.0478541889753508e-12 2.2369008459973667e-12 -1.0478541889753508e-12 -0.0009483536317541451 3.620167791110032e-13 2.2369008459973667e-12 3.620167791110032e-13 0.0009108672957642169" free_energy=-3249.4942489219616 pbc="T T T"
Si       3.85121096       2.68481649      14.46961758       0.05182780      -0.10381796       0.02932947
Si       3.85121096       2.75946640       8.26235019       0.05182780       0.10381796      -0.02932947
Si       2.81533410       2.73194140      12.40879388      -0.12106696      -0.04150501      -0.21215202
Si       2.81533410       2.71234149      10.32317389      -0.12106696       0.04150501       0.21215202
Si       2.17425824      -0.03732495      19.62833407      -0.05182780      -0.10381796      -0.02932947
Si       2.17425824       5.48160784       3.10363370      -0.05182780       0.10381796       0.02932947
Si       3.21013510       5.45408284      21.68915777       0.12106696      -0.04150501       0.21215202
Si       3.21013510      -0.00979995       1.04281000       0.12106696       0.04150501      -0.21215202
Si       3.06141525       3.91513742       4.58723709      -0.17795331      -0.11204413       0.02402320
Si       3.06141525       1.52914547      18.14473068      -0.17795331       0.11204413      -0.02402320
Si       3.11950579       3.78346688      18.17161956      -0.27975051       0.05851362       0.25451478
Si       3.11950579       1.66081601       4.56034821      -0.27975051      -0.05851361      -0.25451478
Si       2.96405395       1.19299598       6.77874680       0.17795331      -0.11204413      -0.02402320
Si       2.96405395       4.25128691      15.95322097       0.17795331       0.11204413       0.02402320
Si       2.90596341       1.06132544      15.92633210       0.27975051       0.05851361      -0.25451478
Si       2.90596341       4.38295745       6.80563568       0.27975051      -0.05851361       0.25451478
Si       5.62333448       2.79946166      21.12585380       0.03441729       0.11504308      -0.04234689
Si       5.62333448       2.64482123       1.60611398       0.03441729      -0.11504308       0.04234689
Si       0.40213472       5.36696268       9.75986991      -0.03441729      -0.11504308      -0.04234689
Si       0.40213472       0.07732021      12.97209786      -0.03441729       0.11504308       0.04234689
20
Lattice="5.988719423729962 -3.398731013358223e-16 -6.718950598911346e-14 3.1044324802421023e-16 5.470151954074085 1.158053970139937e-14 2.551595472484831e-13 -6.48447626940789e-14 22.742821431143366" Properties=species:S:1:pos:R:3:forces:R:3 unique_starting_index=4 config_type=initial n_minim_iter=10 energy=-3249.534703276977 stress="-0.0007779162510653017 -7.481916916954474e-13 8.926048627985813e-12 -7.481916916954474e-13 0.0036803693573357597 5.19498602381928e-13 8.926048627985813e-12 5.19498602381928e-13 -0.004881643998301218" free_energy=-3249.534703276977 pbc="T T T"
Si       3.83035436       2.69544865      14.47123767       0.05145887       0.01773130       0.15351800
Si       3.83035436       2.77470331       8.27158376       0.05145887      -0.01773130      -0.15351800
Si       2.79746261       2.75420741      12.40213284      -0.11799488      -0.03481910       0.27987254
Si       2.79746261       2.71594455      10.34068859      -0.11799488       0.03481910      -0.27987254
Si       2.15836506      -0.03962733      19.64299447      -0.05145887       0.01773130      -0.15351800
Si       2.15836506       5.50977929       3.09982696      -0.05145887      -0.01773130       0.15351800
Si       3.19125681       5.48928338      21.71209930       0.11799489      -0.03481910      -0.27987255
Si       3.19125681      -0.01913143       1.03072213       0.11799489       0.03481910       0.27987254
Si       3.00260820       3.92405208       4.58968460      -0.05258340      -0.04759672       0.09239418
Si       3.00260820       1.54609988      18.15313683      -0.05258340       0.04759672      -0.09239418
Si       3.07186232       3.80588511      18.18348683      -0.22230210       0.00410961       0.14853557
Si       3.07186232       1.66426684       4.55933461      -0.22230210      -0.00410961      -0.14853557
Si       2.98611123       1.18897610       6.78172611       0.05258340      -0.04759672      -0.09239418
Si       2.98611123       4.28117586      15.96109532       0.05258340       0.04759672       0.09239418
Si       2.91685711       1.07080914      15.93074532       0.22230210       0.00410961      -0.14853557
Si       2.91685711       4.39934282       6.81207611       0.22230210      -0.00410961       0.14853557
Si       5.58997306       2.83164871      21.17026008      -0.02941871       0.13225568      -0.17631665
Si       5.58997306       2.63850325       1.57256135      -0.02941871      -0.13225568       0.17631665
Si       0.39874637       5.37357922       9.79884937       0.02941871      -0.13225568      -0.17631665
Si       0.39874637       0.09657273      12.94397207       0.02941871       0.13225568       0.17631665
20
Lattice="6.0189523684975486 -3.415888879629507e-16 -6.752869980999747e-14 3.088073214863256e-16 5.441326180588354 1.0757726674662948e-14 2.563264314006041e-13 -6.812014826381886e-14 22.846827878046067" Properties=species:S:1:pos:R:3:forces:R:3 unique_starting_index=4 config_type=initial n_minim_iter=11 energy=-3249.57665842675 stress="0.0013773724279818181 -6.653063058041876e-14 4.903180236433481e-12 -6.653063058041876e-14 6.91261361162477e-05 -2.0548145717492307e-14 4.903180236433481e-12 -2.0548145717492307e-14 0.0009041082841483233" free_energy=-3249.57665842675 pbc="T T T"
Si       3.84789328       2.67758397      14.53572487       0.14488647       0.19923464      -0.02652217
Si       3.84789328       2.76374221       8.31110301       0.14488647      -0.19923464       0.02652217
Si       2.80347528       2.73514579      12.46250757      -0.04428724       0.05791033      -0.02515035
Si       2.80347528       2.70618039      10.38432031      -0.04428725      -0.05791033       0.02515035
Si       2.17105909      -0.04307912      19.73451695      -0.14488647       0.19923464       0.02652217
Si       2.17105909       5.48440530       3.11231093      -0.14488647      -0.19923464      -0.02652217
Si       3.21547709       5.45580888      21.80773424       0.04428724       0.05791033       0.02515035
Si       3.21547709      -0.01448270       1.03909363       0.04428724      -0.05791033      -0.02515035
Si       2.98467062       3.89590942       4.61147088       0.03220552       0.15905252       0.22010106
Si       2.98467062       1.54541676      18.23535700       0.03220552      -0.15905252      -0.22010106
Si       3.06071505       3.79269160      18.27261876      -0.15416769       0.04761874      -0.13891975
Si       3.06071505       1.64863458       4.57420912      -0.15416769      -0.04761874       0.13891975
Si       3.03428175       1.17524633       6.81194306      -0.03220552       0.15905252      -0.22010105
Si       3.03428175       4.26607985      16.03488481      -0.03220552      -0.15905252       0.22010106
Si       2.95823732       1.07202851      15.99762306       0.15416769       0.04761874       0.13891975
Si       2.95823732       4.36929767       6.84920482       0.15416769      -0.04761874      -0.13891975
Si       5.61790088       2.83374110      21.26911386       0.04199744       0.07638031      -0.09494979
Si       5.61790088       2.60758508       1.57771402       0.04199744      -0.07638031       0.09494979
Si       0.40105149       5.32824817       9.84569992      -0.04199744      -0.07638031      -0.09494979
Si       0.40105149       0.11307801      13.00112796      -0.04199744       0.07638031       0.09494979
20