20
Lattice="5.20573 -3.1875902908626754e-16 -3.187590290862684e-16 3.1875902908626754e-16 5.20573 1.0940467840667653e-30 9.058265377211258e-16 3.053517774000341e-30 14.793269999999993" Properties=species:S:1:pos:R:3:forces:R:3 unique_starting_index=4 config_type=initial n_minim_iter=1 energy=-3168.4764262459034 stress="-0.16209689474441621 -0.4570710142912727 -0.9058731856118848 -8.309361273702659e-13 -1.0255740029607122e-12 -7.295951539309795e-12" pbc="T T T"
Si       3.06272669       2.84766237       9.11884382      19.73309308       6.20806462     -10.96697357
Si       3.06272669       2.35806763       5.67442618      19.73309308      -6.20806462      10.96697357
Si       2.14300331       1.99682224       8.09228260     -10.62296091     -14.90123022      -7.45687214
Si       2.14300331       3.20890776       6.70098740     -10.62296091      14.90123022       7.45687214
Si       2.14300331       0.24479737      13.07106118     -19.73309308       6.20806462      10.96697357
Si       2.14300331       4.96093263       1.72220882     -19.73309308      -6.20806462     -10.96697357
Si       3.06272669       4.59968724      14.09762240      10.62296091     -14.90123022       7.45687214
Si       3.06272669       0.60604276       0.69564760      10.62296091      14.90123022      -7.45687214
Si       2.66531606       4.20148065       3.03153452       5.74881949      -4.04511986      -2.30218801
Si       2.66531606       1.00424935      11.76173548       5.74881949       4.04511986       2.30218801
Si       2.54041394       4.13893745      11.93946626       2.72749726       0.19167112      15.24613600
Si       2.54041394       1.06679255       2.85380374       2.72749726      -0.19167112     -15.24613600
Si       2.54041394       1.59861565       4.36510048      -5.74881949      -4.04511986       2.30218801
Si       2.54041394       3.60711435      10.42816952      -5.74881949       4.04511986      -2.30218801
Si       2.66531606       1.53607245      10.25043874      -2.72749726       0.19167112     -15.24613600
Si       2.66531606       3.66965755       4.54283126      -2.72749726      -0.19167112      15.24613600
Si       4.98364263       2.94215054      13.82911271       0.39284715       0.11038903      -2.24878390
Si       4.98364263       2.26357946       0.96415729       0.39284715      -0.11038903       2.24878390
Si       0.22208737       4.86644446       6.43247771      -0.39284715      -0.11038903      -2.24878390
Si       0.22208737       0.33928554       8.36079229      -0.39284715       0.11038903       2.24878390
20
Lattice="5.239668735467646 -3.208371772741456e-16 -2.374269547290928e-16 3.2465368740634553e-16 5.301997075930498 1.1372423006390921e-30 1.1763560957422187e-15 3.1022152913027e-30 15.340372598812595" Properties=species:S:1:pos:R:3:forces:R:3 unique_starting_index=4 config_type=initial n_minim_iter=2 energy=-3184.2743786162396 stress="-0.11451911085109578 -0.35314609031815 -0.6914992012861754 -9.299287689636498e-12 2.957753003588019e-12 -1.1216683744936165e-11" pbc="T T T"
Si       3.08468030       2.90095512       9.45495067      16.26937749       5.14139274      -7.99828552
Si       3.08468030       2.40104196       5.88542193      16.26937749      -5.14139273       7.99828552
Si       2.15590539       2.03223084       8.39078791      -8.92219321     -12.30804211      -7.04180193
Si       2.15590539       3.26976624       6.94958468      -8.92219321      12.30804211       7.04180193
Si       2.15498844       0.24995658      13.55560823     -16.26937749       5.14139274       7.99828552
Si       2.15498844       5.05204050       1.78476437     -16.26937749      -5.14139274      -7.99828552
Si       3.08376335       4.68322938      14.61977098       8.92219321     -12.30804211       7.04180193
Si       3.08376335       0.61876770       0.72060162       8.92219321      12.30804211      -7.04180193
Si       2.68327121       4.27876463       3.14341166       4.52152200      -4.13548472      -0.99840640
Si       2.68327121       1.02323245      12.19696094       4.52152200       4.13548472       0.99840640
Si       2.55725069       4.21549636      12.38260704       2.41303335      -0.55045960      10.74682226
Si       2.55725069       1.08650071       2.95776556       2.41303335       0.55045960     -10.74682226
Si       2.55639753       1.62776609       4.52677464      -4.52152200      -4.13548472       0.99840640
Si       2.55639753       3.67423098      10.81359796      -4.52152200       4.13548472      -0.99840640
Si       2.68241805       1.56449782      10.62795186      -2.41303335      -0.55045960     -10.74682226
Si       2.68241805       3.73749925       4.71242074      -2.41303335       0.55045960      10.74682226
Si       5.01617301       2.99656957      14.34032448       0.28518621       0.20823371      -1.50605094
Si       5.01617301       2.30542751       1.00004812       0.28518621      -0.20823371       1.50605094
Si       0.22349573       4.95642605       6.67013818      -0.28518621      -0.20823371      -1.50605094
Si       0.22349573       0.34557103       8.67023442      -0.28518621       0.20823371       1.50605094
20
Lattice="5.376497740104852 -3.293791487148684e-16 5.869481391430478e-17 3.5136008180380795e-16 5.740686258313235 -1.0479274873084e-16 2.2126335930683707e-15 -2.759533318253198e-16 17.924141813286944" Properties=species:S:1:pos:R:3:forces:R:3 unique_starting_index=4 config_type=initial n_minim_iter=3 energy=-3223.579407142962 stress="-0.02099093188589907 -0.042102714404016785 -0.20718630962669898 4.772301272216531e-12 -1.275660845421501e-12 1.0967892388465478e-12" pbc="T T T"
Si       3.17416724       3.14403140      11.04213377       7.97820065       3.18296685      -1.45315269
Si       3.17416724       2.59665485       6.88200804       7.97820065      -3.18296685       1.45315269
Si       2.20730569       2.19307646       9.79936955      -4.89634576      -6.86254935      -4.39495526
Si       2.20730569       3.54760980       8.12477226      -4.89634576       6.86254935       4.39495526
Si       2.20233050       0.27368827      15.84407895      -7.97820065       3.18296685       1.45315269
Si       2.20233050       5.46699798       2.08006287      -7.97820065      -3.18296685      -1.45315269
Si       3.16919205       5.06341959      17.08684317       4.89634576      -6.86254935       4.39495526
Si       3.16919205       0.67726667       0.83729864       4.89634576       6.86254935      -4.39495526
Si       2.75582505       4.63033775       3.67219188       1.90439132      -2.21264359       2.22356099
Si       2.75582505       1.11034850      14.25194994       1.90439132       2.21264358      -2.22356099
Si       2.62535586       4.56396151      14.47533404       0.71055973      -1.52464068       1.02992167
Si       2.62535586       1.17672475       3.44880778       0.71055973       1.52464068      -1.02992168
Si       2.62067269       1.75999463       5.28987903      -1.90439132      -2.21264358      -2.22356099
Si       2.62067269       3.98069163      12.63426278      -1.90439132       2.21264358       2.22356099
Si       2.75114188       1.69361838      12.41087868      -0.71055973      -1.52464068      -1.02992168
Si       2.75114188       4.04706788       5.51326313      -0.71055973       1.52464068       1.02992168
Si       5.14732223       3.24463037      16.75465671       0.19891771       0.49491143      -0.44995819
Si       5.14732223       2.49605589       1.16948511       0.19891771      -0.49491143       0.44995819
Si       0.22917551       5.36639902       7.79258580      -0.19891771      -0.49491143      -0.44995819
Si       0.22917551       0.37428724      10.13155601      -0.19891771       0.49491143       0.44995819
20
Lattice="5.4256283538733285 -3.3758615439316015e-16 -3.511109356856546e-15 3.5267931122773546e-16 5.84638896230913 6.872779535440459e-16 -7.557170411213009e-15 1.8340513709256246e-15 19.607924897553414" Properties=species:S:1:pos:R:3:forces:R:3 unique_starting_index=4 config_type=initial n_minim_iter=4 energy=-3231.90566912849 stress="-0.004179250843145807 0.0073658908555369875 -0.09566028038910561 -5.226482382294522e-13 3.7535406480645055e-13 1.5986940072396398e-12" pbc="T T T"
Si       3.20990008       3.20501005      12.07759709       4.97806609       2.71782525       0.00027945
Si       3.20990008       2.64137891       7.53032781       4.97806609      -2.71782525      -0.00027945
Si       2.22334755       2.22679979      10.71438752      -3.34679554      -3.61628481      -4.03643881
Si       2.22334755       3.61958918       8.89353737      -3.34679554       3.61628481       4.03643881
Si       2.21572827       0.28181557      17.33429026      -4.97806609       2.71782525      -0.00027945
Si       2.21572827       5.56457339       2.27363464      -4.97806609      -2.71782525       0.00027945
Si       3.20228081       5.14999427      18.69749982       3.34679554      -3.61628481       4.03643881
Si       3.20228081       0.69639470       0.91042508       3.34679554       3.61628481      -4.03643881
Si       2.78261364       4.71344916       4.01995263       0.75427343      -0.93159253       1.30685373
Si       2.78261364       1.13293980      15.58797226       0.75427343       0.93159253      -1.30685373
Si       2.64994559       4.64651819      15.83643385       0.50446984      -1.22594922       0.07226499
Si       2.64994559       1.19987077       3.77149105       0.50446984       1.22594922      -0.07226499
Si       2.64301471       1.79025468       5.78400981      -0.75427343      -0.93159253      -1.30685373
Si       2.64301471       4.05613428      13.82391508      -0.75427343       0.93159253       1.30685373
Si       2.77568277       1.72332371      13.57545350      -0.50446984      -1.22594922      -0.07226499
Si       2.77568277       4.12306525       6.03247140      -0.50446984       1.22594922       0.07226499
Si       5.19452635       3.30485356      18.32801301       0.19086410       0.02768104      -0.39171807
Si       5.19452635       2.54153540       1.27991189       0.19086410      -0.02768104       0.39171807
Si       0.23110200       5.46472988       8.52405056      -0.19086410      -0.02768104      -0.39171807
Si       0.23110200       0.38165908      11.08387434      -0.19086410       0.02768104       0.39171807
20
Lattice="5.445873152950027 -3.4562063578753066e-16 2.6479070495103453e-14 3.4342461742869543e-16 5.808137823621116 -2.7685795754668887e-15 7.640014071855134e-14 -7.589175498747807e-15 21.35279177135146" Properties=species:S:1:pos:R:3:forces:R:3 unique_starting_index=4 config_type=initial n_minim_iter=5 energy=-3236.384685384074 stress="-0.0017942086509052176 0.011995216783132732 -0.04859078619965109 -9.681823296143767e-13 -1.1414169093678964e-12 4.127130826277323e-12" pbc="T T T"
Si       3.22965408       3.18892008      13.15235712       3.21045487       2.26975016       0.57103246
Si       3.22965408       2.61921774       8.20043465       3.21045487      -2.26975016      -0.57103246
Si       2.22641517       2.20573803      11.65677294      -2.07691019      -1.92136616      -3.02266672
Si       2.22641517       3.60239979       9.69601883      -2.07691019       1.92136616       3.02266672
Si       2.21621907       0.28485117      18.87683053      -3.21045487       2.26975016      -0.57103246
Si       2.21621907       5.52328665       2.47596124      -3.21045487      -2.26975016       0.57103246
Si       3.21945798       5.10980695      20.37241472       2.07691019      -1.92136616       3.02266672
Si       3.21945798       0.69833088       0.98037705       2.07691019       1.92136616      -3.02266672
Si       2.79417482       4.68093797       4.38126191       0.00995499      -0.59169323       1.17993893
Si       2.79417482       1.12719985      16.97152986       0.00995499       0.59169323      -1.17993893
Si       2.66062150       4.61391644      17.24588198       0.71866890      -1.00653628      -0.61856267
Si       2.66062150       1.19422138       4.10690980       0.71866890       1.00653628       0.61856267
Si       2.65169833       1.77686906       6.29513397      -0.00995499      -0.59169323      -1.17993893
Si       2.65169833       4.03126876      15.05765780      -0.00995499       0.59169323       1.17993893
Si       2.78525166       1.70984753      14.78330568      -0.71866890      -1.00653628       0.61856267
Si       2.78525166       4.09829030       6.56948609      -0.71866890       1.00653628      -0.61856267
Si       5.21420701       3.28328061      19.95790950       0.28853713      -0.16778116      -0.43149538
Si       5.21420701       2.52485721       1.39488227       0.28853713       0.16778116       0.43149538
Si       0.23166615       5.42892612       9.28151362      -0.28853713       0.16778116      -0.43149538
Si       0.23166615       0.37921170      12.07127815      -0.28853713      -0.16778116       0.43149538
20
Lattice="5.466553918505957 -3.4634871819456962e-16 2.542063917653129e-14 3.346565428765989e-16 5.662807281135598 -3.656792093597069e-15 6.170036976600911e-14 -7.726927373322747e-15 23.661091091422232" Properties=species:S:1:pos:R:3:forces:R:3 unique_starting_index=4 config_type=initial n_minim_iter=6 energy=-3239.0633672276135 stress="-0.000294415365932641 0.019530485189693775 0.006391790398277696 3.425875850951611e-13 -5.96905414151124e-12 2.1008144885300006e-12" pbc="T T T"
Si       3.25295007       3.11774372      14.57828894       1.02631648       0.95267444       0.80653659
Si       3.25295007       2.54506356       9.08280215       1.02631648      -0.95267443      -0.80653659
Si       2.22773360       2.14325243      12.89507718      -0.43238174       0.04016208      -2.49940325
Si       2.22773360       3.51955486      10.76601391      -0.43238174      -0.04016208       2.49940325
Si       2.21360385       0.28634008      20.91334770      -1.02631648       0.95267444      -0.80653659
Si       2.21360385       5.37646720       2.74774340      -1.02631648      -0.95267443       0.80653659
Si       3.23882031       4.97465607      22.59655946       0.43238174       0.04016208       2.49940325
Si       3.23882031       0.68815122       1.06453163       0.43238174      -0.04016208      -2.49940325
Si       2.80481994       4.56156591       4.86340964      -0.48608268      -0.19324756      -0.26909058
Si       2.80481994       1.10124137      18.79768145      -0.48608268       0.19324756       0.26909058
Si       2.67319463       4.49464655      19.10574560       0.45153975      -0.29040092      -0.30010660
Si       2.67319463       1.16816073       4.55534549       0.45153975       0.29040092       0.30010661
Si       2.66173398       1.73016227       6.96713591       0.48608268      -0.19324756       0.26909058
Si       2.66173398       3.93264502      16.69395519       0.48608268       0.19324756      -0.26909058
Si       2.79335929       1.66324291      16.38589103      -0.45153975      -0.29040092       0.30010660
Si       2.79335929       3.99956437       7.27520006      -0.45153975       0.29040092      -0.30010660
Si       5.23499945       3.20048982      22.11230208       0.47570413      -0.43265643      -0.05337050
Si       5.23499945       2.46231746       1.54878901       0.47570413       0.43265644       0.05337050
Si       0.23155447       5.29372110      10.28175654      -0.47570413       0.43265644      -0.05337050
Si       0.23155447       0.36908618      13.37933455      -0.47570413      -0.43265643       0.05337050
20
Lattice="5.469653643275581 -3.4563945719153934e-16 2.426266723312715e-14 3.222619186041858e-16 5.45381481549244 -5.991398547114774e-15 5.992208207682868e-14 -1.3817400424540001e-14 23.371681080681302" Properties=species:S:1:pos:R:3:forces:R:3 unique_starting_index=4 config_type=initial n_minim_iter=7 energy=-3239.5400472059464 stress="-0.005893988577189069 0.004194407115184778 -0.015080721127914537 -1.287030432329504e-12 -4.663353355314077e-12 1.4817111349741965e-12" pbc="T T T"
Si       3.25777132       3.00553381      14.40533253       1.17385828       0.81950493       0.03297929
Si       3.25777132       2.44828100       8.96634855       1.17385828      -0.81950493      -0.03297929
Si       2.22774273       2.06427353      12.72074869      -0.53997613      -0.27559478      -2.02100084
Si       2.22774273       3.38954129      10.65093239      -0.53997613       0.27559478       2.02100084
Si       2.21188233       0.27862641      20.65218909      -1.17385828       0.81950493      -0.03297929
Si       2.21188233       5.17518841       2.71949199      -1.17385828      -0.81950493       0.03297929
Si       3.24191091       4.79118094      22.33677293       0.53997613      -0.27559478       2.02100084
Si       3.24191091       0.66263388       1.03490815       0.53997613       0.27559478      -2.02100084
Si       2.80500054       4.39263710       4.80213550      -0.53816320      -1.64691667       0.38923391
Si       2.80500054       1.06117772      18.56954558      -0.53816320       1.64691667      -0.38923391
Si       2.67602006       4.32789642      18.87006067       0.48598757      -1.90639522      -0.39962937
Si       2.67602006       1.12591839       4.50162041       0.48598757       1.90639521       0.39962937
Si       2.66465310       1.66572969       6.88370504       0.53816320      -1.64691667      -0.38923391
Si       2.66465310       3.78808513      16.48797604       0.53816320       1.64691667       0.38923391
Si       2.79363358       1.60098902      16.18746095      -0.48598757      -1.90639521       0.39962937
Si       2.79363358       3.85282580       7.18422013      -0.48598757       1.90639521      -0.39962937
Si       5.23934760       3.08107588      21.84148152       0.41638418      -0.23764278       0.44709875
Si       5.23934760       2.37273894       1.53019956       0.41638418       0.23764278      -0.44709875
Si       0.23030604       5.09964635      10.15564098      -0.41638418       0.23764278       0.44709875
Si       0.23030604       0.35416847      13.21604010      -0.41638418      -0.23764278      -0.44709875
20
Lattice="5.505707012939325 -3.4734492923871697e-16 2.294868511824143e-14 3.2106690607333497e-16 5.428375498869916 -9.128106477656998e-15 5.4968542848348144e-14 -2.1742293363809167e-14 23.767883186628055" Properties=species:S:1:pos:R:3:forces:R:3 unique_starting_index=4 config_type=initial n_minim_iter=8 energy=-3239.8042127758367 stress="-0.004914943712956132 0.008933463413687347 0.0006596671122179288 -3.4803417487581635e-12 2.3067589600241922e-12 -3.359933706911102e-12" pbc="T T T"
Si       3.28133057       2.99294589      14.64966888       0.83835871       0.53016755       0.27174701
Si       3.28133057       2.43542961       9.11821430       0.83835871      -0.53016755      -0.27174700
Si       2.24146759       2.05416336      12.92819179      -0.25860264       0.09808173      -1.78953242
Si       2.24146759       3.37421214      10.83969140      -0.25860263      -0.09808173       1.78953242
Si       2.22437644       0.27875814      21.00215590      -0.83835871       0.53016754      -0.27174700
Si       2.22437644       5.14961736       2.76572729      -0.83835871      -0.53016755       0.27174701
Si       3.26423942       4.76835111      22.72363299       0.25860263       0.09808173       1.78953242
Si       3.26423942       0.66002439       1.04425019       0.25860264      -0.09808173      -1.78953242
Si       2.82253364       4.36927105       4.88512205      -0.57382058      -1.57351665      -0.00163788
Si       2.82253364       1.05910444      18.88276113      -0.57382058       1.57351666       0.00163788
Si       2.69452257       4.30437915      19.18832843       0.38647225      -1.71676538      -0.21177380
Si       2.69452257       1.12399635       4.57955475       0.38647225       1.71676538       0.21177380
Si       2.68317338       1.65508330       6.99881954       0.57382058      -1.57351666       0.00163788
Si       2.68317338       3.77329219      16.76906365       0.57382058       1.57351666      -0.00163788
Si       2.81118445       1.59019140      16.46349635      -0.38647225      -1.71676538       0.21177380
Si       2.81118445       3.83818410       7.30438684      -0.38647225       1.71676538      -0.21177380
Si       5.27462268       3.06628912      22.21355783       0.51265088      -0.32920487       0.44550774
Si       5.27462268       2.36208638       1.55432536       0.51265088       0.32920487      -0.44550774
Si       0.23108433       5.07627413      10.32961623      -0.51265088       0.32920487       0.44550774
Si       0.23108433       0.35210137      13.43826695      -0.51265088      -0.32920487      -0.44550774
20
Lattice="5.532590434113156 -3.4889223831353655e-16 2.159841421505496e-14 3.180756033939355e-16 5.380527541680573 -1.1085823816690149e-14 5.16790359174035e-14 -2.691622158465371e-14 23.75234972920369" Properties=species:S:1:pos:R:3:forces:R:3 unique_starting_index=4 config_type=initial n_minim_iter=9 energy=-3239.968956209476 stress="-0.005868123982937706 0.007060367838753744 -0.001357634451783015 -1.2121205944039742e-12 5.422862813316834e-12 2.096475314545348e-12" pbc="T T T"
Si       3.29866745       2.96736202      14.64107265       0.83185386       0.48797384       0.13892375
Si       3.29866745       2.41316552       9.11127708       0.83185386      -0.48797384      -0.13892375
Si       2.25200676       2.03620459      12.91330194      -0.24515851       0.07522165      -1.62600606
Si       2.25200676       3.34432295      10.83904779      -0.24515851      -0.07522165       1.62600606
Si       2.23392298       0.27709825      20.98745194      -0.83185386       0.48797384      -0.13892375
Si       2.23392298       5.10342929       2.76489779      -0.83185386      -0.48797384       0.13892375
Si       3.28058368       4.72646836      22.71522265       0.24515851       0.07522165       1.62600606
Si       3.28058368       0.65405918       1.03712708       0.24515851      -0.07522165      -1.62600606
Si       2.83541572       4.32839243       4.88192350      -0.57855242      -1.85247998       0.06656328
Si       2.83541572       1.05213511      18.87042623      -0.57855242       1.85247998      -0.06656329
Si       2.70828552       4.26385711      19.17502575       0.38006883      -2.00447106      -0.17579444
Si       2.70828552       1.11667043       4.57732398       0.38006883       2.00447106       0.17579444
Si       2.69717471       1.63812866       6.99425137       0.57855242      -1.85247998      -0.06656328
Si       2.69717471       3.74239888      16.75809836       0.57855242       1.85247998       0.06656329
Si       2.82430491       1.57359334      16.45349885      -0.38006883      -2.00447106       0.17579444
Si       2.82430491       3.80693420       7.29885088      -0.38006883       2.00447106      -0.17579444
Si       5.30118170       3.03876656      22.20064361       0.50815606      -0.34751304       0.51767040
Si       5.30118170       2.34176098       1.55170612       0.50815606       0.34751304      -0.51767040
Si       0.23140874       5.03202475      10.32446874      -0.50815606       0.34751304       0.51767040
Si       0.23140874       0.34850279      13.42788099      -0.50815606      -0.34751304      -0.51767040
20
Lattice="5.570037233854428 -3.6657286237968884e-16 2.026635428972524e-14 2.9985027282063486e-16 5.3370352513206445 -1.314804817571186e-14 4.835803234896667e-14 -3.229253245968275e-14 23.7894476574606" Properties=species:S:1:pos:R:3:forces:R:3 unique_starting_index=4 config_type=initial n_minim_iter=10 energy=-3240.1525989769634 stress="-0.006784729790073471 0.005986330205648264 -0.0006608305225555164 -3.6668521119956175e-13 -1.8983160949657248e-12 -1.0710868826248399e-12" pbc="T T T"
Si       3.32253208       2.94421667      14.66452319       0.79021485       0.41729476       0.07369830
Si       3.32253208       2.39281858       9.12492447       0.79021486      -0.41729476      -0.07369829
Si       2.26679600       2.01987498      12.92664507      -0.19611065       0.10979970      -1.44223784
Si       2.26679600       3.31716028      10.86280258      -0.19611065      -0.10979970       1.44223784
Si       2.24750516       0.27569905      21.01964830      -0.79021486       0.41729476      -0.07369830
Si       2.24750516       5.06133621       2.76979936      -0.79021486      -0.41729476       0.07369829
Si       3.30324123       4.68839260      22.75752641       0.19611065       0.10979970       1.44223784
Si       3.30324123       0.64864265       1.03192124       0.19611065      -0.10979970      -1.44223784
Si       2.85353734       4.29021348       4.88982782      -0.58363519      -2.04977693       0.06019232
Si       2.85353734       1.04682178      18.89961984      -0.58363519       2.04977693      -0.06019232
Si       2.72731895       4.22593797      19.20423657       0.35816996      -2.18322890      -0.10706036
Si       2.72731895       1.11109728       4.58521109       0.35816996       2.18322890       0.10706036
Si       2.71649989       1.62169585       7.00489601       0.58363519      -2.04977693      -0.06019232
Si       2.71649989       3.71533940      16.78455164       0.58363519       2.04977693       0.06019232
Si       2.84271828       1.55742034      16.47993492      -0.35816996      -2.18322890       0.10706036
Si       2.84271828       3.77961491       7.30951274      -0.35816996       2.18322890      -0.10706036
Si       5.33800170       3.01360469      22.23749107       0.52628260      -0.38646284       0.56536395
Si       5.33800170       2.32343056       1.55195659       0.52628260       0.38646284      -0.56536395
Si       0.23203554       4.99194819      10.34276724      -0.52628260       0.38646284       0.56536395
Si       0.23203554       0.34508706      13.44668042      -0.52628260      -0.38646284      -0.56536395
20
Lattice="5.613691434649217 -3.693742549140607e-16 1.872426083907833e-14 2.9705515763563553e-16 5.300399514471566 -1.1532545188630493e-14 4.458280548796482e-14 -2.7295494517775934e-14 23.807543493062983" Properties=species:S:1:pos:R:3:forces:R:3 unique_starting_index=4 config_type=initial n_minim_iter=11 energy=-3240.3346729309956 stress="-0.008002859736724665 0.004763714818488611 -0.00033113402788086967 1.88935568727687e-13 -5.896178187553217e-13 3.325585064831931e-13" pbc="T T T"
Si       3.35005534       2.92471502      14.67598833       0.76934707       0.36221056       0.02062481
Si       3.35005534       2.37568449       9.13155516       0.76934707      -0.36221056      -0.02062481
Si       2.28419346       2.00619616      12.93040493      -0.15455913       0.14072163      -1.27579982
Si       2.28419346       3.29420336      10.87713856      -0.15455913      -0.14072163       1.27579982
Si       2.26363610       0.27451526      21.03532691      -0.76934707       0.36221056      -0.02062481
Si       2.26363610       5.02588425       2.77221658      -0.76934707      -0.36221056       0.02062481
Si       3.32949798       4.65639591      22.78091031       0.15455913       0.14072163       1.27579982
Si       3.32949798       0.64400360       1.02663318       0.15455913      -0.14072163      -1.27579982
Si       2.87480577       4.25728222       4.89380080      -0.58684175      -2.19333158       0.05489211
Si       2.87480577       1.04311729      18.91374269      -0.58684175       2.19333158      -0.05489211
Si       2.74936624       4.19322127      19.21839377       0.33973409      -2.30190344      -0.04361538
Si       2.74936624       1.10717824       4.58914972       0.33973409       2.30190344       0.04361538
Si       2.73888566       1.60708247       7.00997094       0.58684175      -2.19333158      -0.05489211
Si       2.73888566       3.69331705      16.79757255       0.58684175       2.19333158       0.05489211
Si       2.86432519       1.54302152      16.49292146      -0.33973409      -2.30190344       0.04361538
Si       2.86432519       3.75737800       7.31462203      -0.33973409       2.30190344      -0.04361538
Si       5.38082536       2.99226162      22.25678703       0.55366874      -0.42950311       0.59159098
Si       5.38082536       2.30813789       1.55075646       0.55366874       0.42950311      -0.59159098
Si       0.23286607       4.95833765      10.35301529      -0.55366874       0.42950311       0.59159098
Si       0.23286607       0.34206187      13.45452821      -0.55366874      -0.42950311      -0.59159098
20
Lattice="5.941133146332458 -3.8977203532999836e-16 1.584698305575109e-14 2.832431885341956e-16 5.124518514510241 -1.3757905645785026e-14 4.0892531124070297e-14 -3.193197717924222e-14 23.863454793412263" Properties=species:S:1:pos:R:3:forces:R:3 unique_starting_index=4 config_type=initial n_minim_iter=12 energy=-3241.4388679568306 stress="-0.013256024706414606 -0.009621524344424816 0.002889569571222815 1.6623026214097482e-12 -6.501336961947086e-14 2.8482222811141704e-12" pbc="T T T"
Si       3.55492954       2.83129583      14.71098989       0.78818280       0.01413065      -0.24434028
Si       3.55492954       2.29322268       9.15246491       0.78818280      -0.01413065       0.24434028
Si       2.41552629       1.94103582      12.92765070      -0.17123073       0.49312539      -0.32207430
Si       2.41552629       3.18348269      10.93580409      -0.17123073      -0.49312539       0.32207430
Si       2.38620361       0.26903658      21.08419230      -0.78818280       0.01413065       0.24434028
Si       2.38620361       4.85548194       2.77926249      -0.78818280      -0.01413065      -0.24434028
Si       3.52560685       4.50329508      22.86753149       0.17123073       0.49312539       0.32207430
Si       3.52560685       0.62122344       0.99592330       0.17123073      -0.49312539      -0.32207430
Si       3.03526838       4.09403076       4.90671880      -0.54128097      -2.55951352       0.02715877
Si       3.03526838       1.03048775      18.95673600      -0.54128097       2.55951352      -0.02715877