18
Lattice="7.900159498168533 -1.4160532490390318 -1.0887152372509121 1.4037202195062046 7.902360181994102 -1.0887152372509301 1.4037202195061784 0.9786197229544393 7.9167481172279865" Properties=species:S:1:pos:R:3:forces:R:3 unique_starting_index=39 config_type=initial n_minim_iter=1 energy=-2926.2802830850956 stress="-5.0628779298673665e-05 0.00010237505382984284 7.870980977861053e-05 0.00010237505382984284 -0.00012610236262802898 5.4873451168040354e-05 7.870980977861053e-05 5.4873451168040354e-05 -0.00015528553072475623" free_energy=-2926.2802830850956 pbc="T T T"
Si       6.42157633       5.91518804      -1.12799591      -0.00013403       0.00004940       0.00018579
Si       2.62355843       5.87723281       6.00717097       0.00013403      -0.00019225       0.00000000
Si       7.77078702      -0.06793464       4.13687451       0.00000000       0.00014284      -0.00018579
Si       6.42157633       0.42940217       6.00717097      -0.00013403       0.00019225       0.00000000
Si       2.62355843       7.31518740       4.13687451       0.00013403      -0.00004940      -0.00018579
Si       7.77078702       3.97989665      -1.12799591      -0.00000000      -0.00014284       0.00018579
Si       0.68689659       3.35514458       1.09224398      -0.00013403       0.00019225      -0.00000000
Si       2.03610728      -0.01810140       2.96254044       0.00000000      -0.00014284       0.00018579
Si       3.38531797       0.92251638      -0.77805249       0.00013403      -0.00004940      -0.00018579
Si       0.68689659       1.91718999       2.96254044      -0.00013403       0.00004940       0.00018579
Si       2.03610728       2.85780777      -0.77805249      -0.00000000       0.00014284      -0.00018579
Si       3.38531797      -0.51543821       1.09224398       0.00013403      -0.00019225       0.00000000
Si       4.25609657       4.40549888       4.87564632      -0.00013403       0.00004940       0.00018579
Si       6.95451795       1.97287068       3.00534986       0.00013403      -0.00019225       0.00000000
Si       5.60530726       5.34611665       1.13505339       0.00000000       0.00014284      -0.00018579
Si       4.25609657       5.84345346       3.00534986      -0.00013403       0.00019225       0.00000000
Si       6.95451795       3.41082526       1.13505339       0.00013403      -0.00004940      -0.00018579
Si       5.60530726       2.47020749       4.87564632       0.00000000      -0.00014284       0.00018579
