8
Lattice="7.720930751946857 -1.3534683801554734e-15 8.265375095880544e-44 -3.8604653759734253 6.686522172046464 -3.9962859685621786e-44 5.914338941574692e-44 -6.042001939733225e-44 4.732147553693031" Properties=species:S:1:pos:R:3:forces:R:3 unique_starting_index=80 config_type=initial n_minim_iter=10 energy=-1300.3223134558882 stress="-2.7590818876077378e-05 -2.338025441087589e-13 9.479536513964474e-13 -2.338025441087589e-13 -2.7590818520566178e-05 -7.014591425781456e-13 9.479536513964474e-13 -7.014591425781456e-13 1.6886143581389244e-05" free_energy=-1300.3223134558882 pbc="T T T"
Si       3.85959634       4.44615760       3.31441342      -0.00000000      -0.00016577      -0.00004409
Si       1.94064677       1.12243945       3.31441342       0.00014356       0.00008289      -0.00004409
Si       5.77854590       1.12243945       3.31441342      -0.00014356       0.00008289      -0.00004409
Si       1.91808053       5.56709228       3.31441342      -0.00014356      -0.00008289      -0.00004409
Si      -0.00086904       2.24337413       3.31441342      -0.00000000       0.00016577      -0.00004409
Si      -1.91981860       5.56709228       3.31441342       0.00014356      -0.00008289      -0.00004409
Si       3.85959634       2.23034550       2.91174646      -0.00000000      -0.00000000       0.00013227
Si      -0.00086904       4.45918623       2.91174646      -0.00000000      -0.00000000       0.00013227
