12
Lattice="2.4896827758869673 -2.0194590108173532e-13 1.2657587928007803e-13 8.590973785254754e-13 10.591351122590176 -2.4578420527172556e-15 -8.958739436441526e-13 -5.295675561295085 9.172379132563925" Properties=species:S:1:pos:R:3:forces:R:3 unique_starting_index=66 config_type=initial n_minim_iter=1 energy=-1952.3063263645718 stress="0.003150346386939506 -6.890708114132383e-12 1.2246319184682663e-12 -6.890708114132383e-12 -0.003728257562428264 1.4407467217603185e-12 1.2246319184682663e-12 1.4407467217603185e-12 -0.0037282575688562143" free_energy=-1952.3063263645718 pbc="T T T"
Si       1.24319527      -2.60687089       9.01470328      -0.02545765      -0.51949016       0.37225648
Si       1.24319527       3.81472194       6.92264391      -0.02545765       0.58212865       0.26376344
Si       1.24319527      -1.20785103       2.40741107      -0.02545765      -0.06263849      -0.63601992
Si       1.24648751       7.90254646       0.15767585       0.02545765       0.51949016      -0.37225648
Si       1.24648751       1.48095364       2.24973522       0.02545765      -0.58212865      -0.26376344
Si       1.24648751       6.50352661       6.76496806       0.02545765       0.06263849       0.63601992
Si       0.58749838      -0.04738775       4.64789355       0.16504965       0.27136109      -0.08436816
Si       0.58749838      -1.24678779       6.88947136       0.16504965      -0.20874551      -0.19282152
Si       0.58749838       1.29417556       6.80739336       0.16504965      -0.06261558       0.27718968
Si       1.90218439       5.34306332       4.52448558      -0.16504965      -0.27136109       0.08436816
Si       1.90218439       6.54246337       2.28290778      -0.16504965       0.20874551       0.19282152
Si       1.90218439       4.00150002       2.36498577      -0.16504965       0.06261558      -0.27718968
12
Lattice="2.481001834710295 -2.0124176298625597e-13 1.2613453881170262e-13 8.626558947119366e-13 10.635222161366844 -4.465825435126315e-15 -8.995847941358148e-13 -5.317611080683417 9.210372566634936" Properties=species:S:1:pos:R:3:forces:R:3 unique_starting_index=66 config_type=initial n_minim_iter=2 energy=-1952.3187150595559 stress="-5.2352804911135034e-05 -3.213674486705101e-12 -2.1038374544541626e-12 -3.213674486705101e-12 0.00688539725159768 1.1672185691938548e-11 -2.1038374544541626e-12 1.1672185691938548e-11 0.00688539725795088" free_energy=-1952.3187150595559 pbc="T T T"
Si       1.23874425      -2.62006017       9.05375709      -0.02303552      -0.51078008       0.36983646
Si       1.23874425       3.83320265       6.95253269      -0.02303552       0.57567781       0.25743029
Si       1.23874425      -1.21314246       2.41445535      -0.02303552      -0.06489773      -0.62726676
Si       1.24225759       7.93767126       0.15661548       0.02303552       0.51078008      -0.36983646
Si       1.24225759       1.48440844       2.25783987       0.02303552      -0.57567781      -0.25743030
Si       1.24225759       6.53075356       6.79591721       0.02303552       0.06489773       0.62726676
Si       0.58620386      -0.04633496       4.66675751       0.18072367       0.27204131      -0.05385120
Si       0.58620386      -1.25291304       6.91712107       0.18072367      -0.18265716      -0.20866908
Si       0.58620386       1.29924802       6.83686655       0.18072367      -0.08938415       0.26252029
Si       1.89479797       5.36394605       4.54361506      -0.18072367      -0.27204131       0.05385120
Si       1.89479797       6.57052413       2.29325149      -0.18072367       0.18265716       0.20866908
Si       1.89479797       4.01836308       2.37350601      -0.18072367       0.08938415      -0.26252028
12
Lattice="2.4516920739025463 -1.9886435727250897e-13 1.2464442578137568e-13 8.610679977372262e-13 10.615645830643402 -5.41443469584007e-15 -8.979289218675557e-13 -5.307822915321694 9.193418966915546" Properties=species:S:1:pos:R:3:forces:R:3 unique_starting_index=66 config_type=initial n_minim_iter=3 energy=-1952.3647799137539 stress="-0.023260253182347375 -9.883225876585625e-13 3.3933607221469365e-12 -9.883225876585625e-13 -0.0009187568690557927 3.6024417136605477e-12 3.3933607221469365e-12 3.6024417136605477e-12 -0.0009187568858340209" free_energy=-1952.3647799137539 pbc="T T T"
Si       1.22349828      -2.62837272       9.04654117      -0.05280107      -0.48241177       0.32560917
Si       1.22349828       3.84089793       6.94638593      -0.05280107       0.52319170       0.25497627
Si       1.22349828      -1.21252519       2.39391083      -0.05280107      -0.04077992      -0.58058544
Si       1.22819379       7.93619565       0.14687779       0.05280107       0.48241177      -0.32560917
Si       1.22819379       1.46692500       2.24703304       0.05280107      -0.52319170      -0.25497627
Si       1.22819379       6.52034812       6.79950814       0.05280107       0.04077992       0.58058544
Si       0.58354073      -0.03933781       4.65631508       0.17808054       0.23328098      -0.04919172
Si       0.58354073      -1.25566685       6.89932898       0.17808054      -0.15924177      -0.17743139
Si       0.58354073       1.29500469       6.83119388       0.17808054      -0.07403921       0.22662311
Si       1.86815134       5.34716074       4.53710389      -0.17808054      -0.23328098       0.04919172
Si       1.86815134       6.56348978       2.29408999      -0.17808054       0.15924177       0.17743140
Si       1.86815134       4.01281824       2.36222509      -0.17808054       0.07403921      -0.22662311
12
Lattice="2.464839684657093 -1.999308008076508e-13 1.2531285246119478e-13 8.609180603148981e-13 10.61379733252667 -9.504560310786093e-15 -8.97772565867411e-13 -5.306898666263325 9.191818120587609" Properties=species:S:1:pos:R:3:forces:R:3 unique_starting_index=66 config_type=initial n_minim_iter=4 energy=-1952.6228792210486 stress="-0.010033393884806896 -3.3118663121447114e-12 6.228047531826542e-12 -3.3118663121447114e-12 -0.0003800938232216936 -3.284961980594605e-12 6.228047531826542e-12 -3.284961980594605e-12 -0.00038009386493021775" free_energy=-1952.6228792210486 pbc="T T T"
Si       1.22668730      -2.69305135       9.09157884       0.00037635      -0.08963693       0.17625287
Si       1.22668730       3.91316525       6.97827959       0.00037635       0.19745793      -0.01049858
Si       1.22668730      -1.22011388       2.31377781       0.00037635      -0.10782100      -0.16575429
Si       1.23815238       7.99995003       0.10023928      -0.00037635       0.08963693      -0.17625287
Si       1.23815238       1.39373343       2.21353853      -0.00037635      -0.19745793       0.01049858
Si       1.23815238       6.52701256       6.87804031      -0.00037635       0.10782100       0.16575429
Si       0.60805453      -0.00529501       4.64646079       0.13208610       0.08048013       0.01821446
Si       0.60805453      -1.28029807       6.87317334       0.13208610      -0.02446588      -0.07880507
Si       0.60805453       1.28559310       6.86400211       0.13208610      -0.05601425       0.06059060
Si       1.85678516       5.31219369       4.54535733      -0.13208610      -0.08048013      -0.01821446
Si       1.85678516       6.58719675       2.31864478      -0.13208610       0.02446587       0.07880507
Si       1.85678516       4.02130558       2.32781601      -0.13208610       0.05601425      -0.06059060
12
Lattice="2.4762431854332427 -2.0085577416651802e-13 1.258926083046267e-13 8.607799094121465e-13 10.612094144092477 -1.0412911373654041e-14 -8.976285009486252e-13 -5.306047072046228 9.190343116136168" Properties=species:S:1:pos:R:3:forces:R:3 unique_starting_index=66 config_type=initial n_minim_iter=5 energy=-1952.659831229995 stress="-0.0014179546875201774 -7.797451218798969e-13 9.001911943020717e-13 -7.797451218798969e-13 -0.0003844766943506484 -1.0175973425455596e-11 9.001911943020717e-13 -1.0175973425455596e-11 -0.000384476685423531" free_energy=-1952.659831229995 pbc="T T T"
Si       1.23111458      -2.72330182       9.11468368       0.02348402       0.11893791       0.10852090
Si       1.23111458       3.94915146       6.99144984       0.02348402       0.03451290      -0.15726370
Si       1.23111458      -1.22584962       2.27455271       0.02348402      -0.15345081       0.04874280
Si       1.24512860       8.02934891       0.07565944      -0.02348402      -0.11893791      -0.10852090
Si       1.24512860       1.35689562       2.19889327      -0.02348402      -0.03451290       0.15726370
Si       1.24512860       6.53189670       6.91579040      -0.02348402       0.15345081      -0.04874280
Si       0.62302367       0.01163778       4.64195914       0.11817744       0.00229866       0.04393980
Si       0.62302367      -1.29181141       6.85928494       0.11817744       0.03690366      -0.02396060
Si       0.62302367       1.28017365       6.87944215       0.11817744      -0.03920231      -0.01997921
Si       1.85321952       5.29440931       4.54838397      -0.11817744      -0.00229866      -0.04393980
Si       1.85321952       6.59785849       2.33105817      -0.11817744      -0.03690366       0.02396060
Si       1.85321952       4.02587343       2.31090097      -0.11817744       0.03920231       0.01997921
12
Lattice="2.490183515353769 -2.0198651761481716e-13 1.2660133695641902e-13 8.613227945262242e-13 10.618787083689494 -8.706957303156764e-15 -8.98194626093751e-13 -5.309393541844738 9.196139371853175" Properties=species:S:1:pos:R:3:forces:R:3 unique_starting_index=66 config_type=initial n_minim_iter=6 energy=-1952.6728885952557 stress="0.007898867818286193 -1.3750008062811574e-12 -1.4240903287554247e-13 -1.3750008062811574e-12 0.001161443110603165 -1.6964385229323326e-12 -1.4240903287554247e-13 -1.6964385229323326e-12 0.0011614431251246817" free_energy=-1952.6728885952557 pbc="T T T"
Si       1.23965379      -2.72281577       9.13423872       0.02577100       0.10992902       0.08472417
Si       1.23965379       3.96249712       6.98704764       0.02577100       0.01840878      -0.13756341
Si       1.23965379      -1.23968134       2.27099238       0.02577100      -0.12833780       0.05283924
Si       1.25052972       8.03220932       0.06190065      -0.02577100      -0.10992902      -0.08472417
Si       1.25052972       1.34689643       2.20909173      -0.02577100      -0.01840878       0.13756341
Si       1.25052972       6.54907489       6.92514699      -0.02577100       0.12833780      -0.05283924
Si       0.63811697       0.01568160       4.64738367       0.11019016      -0.01517293      -0.00083863
Si       0.63811697      -1.29248201       6.85886687       0.11019016       0.00686019       0.01355946
Si       0.63811697       1.27680043       6.88602820       0.11019016       0.00831274      -0.01272083
Si       1.85206654       5.29371195       4.54875570      -0.11019016       0.01517293       0.00083863
Si       1.85206654       6.60187557       2.33727250      -0.11019016      -0.00686019      -0.01355946
Si       1.85206654       4.03259312       2.31011117      -0.11019016      -0.00831274       0.01272083
12
Lattice="2.492420917343577 -2.0216800023794084e-13 1.26715086839298e-13 8.630426525856159e-13 10.639990291897746 2.1181105398771435e-15 -8.999881084866561e-13 -5.319995145948873 9.214501888803248" Properties=species:S:1:pos:R:3:forces:R:3 unique_starting_index=66 config_type=initial n_minim_iter=7 energy=-1952.7089939368263 stress="0.00980572404044402 -2.2791117195755884e-12 2.7943294514127303e-12 -2.2791117195755884e-12 0.003042131628678284 -4.862996928210665e-13 2.7943294514127303e-12 -4.862996928210665e-13 0.0030421316318714284" free_energy=-1952.7089939368263 pbc="T T T"
Si       1.24744336      -2.71369530       9.20571641       0.00695978       0.02666382      -0.00604959
Si       1.24744336       4.00923678       6.96177275       0.00695978      -0.01857100      -0.02006675
Si       1.24744336      -1.29554147       2.26151461       0.00695978      -0.00809282       0.02611634
Si       1.24497756       8.03369045       0.00878548      -0.00695978      -0.02666382       0.00604958
Si       1.24497756       1.31075838       2.25272913      -0.00695978       0.01857100       0.02006675
Si       1.24497756       6.61553663       6.95298727      -0.00695978       0.00809282      -0.02611634
Si       0.68635278       0.02844038       4.66537273       0.08676905      -0.08582026      -0.11326987
Si       0.68635278      -1.29388402       6.85718544       0.08676906      -0.05518446       0.13095746
Si       0.68635278       1.26544366       6.90644561       0.08676905       0.14100472      -0.01768759
Si       1.80606814       5.29155478       4.54912916      -0.08676905       0.08582026       0.11326987
Si       1.80606814       6.61387918       2.35731645      -0.08676905       0.05518446      -0.13095746
Si       1.80606814       4.05455150       2.30805628      -0.08676905      -0.14100472       0.01768759
12
Lattice="2.4722547525378054 -2.005322599892203e-13 1.256898357242887e-13 8.624485331886596e-13 10.632665712287567 7.400410033541363e-16 -8.993685558021164e-13 -5.3163328561437835 9.20815861678879" Properties=species:S:1:pos:R:3:forces:R:3 unique_starting_index=66 config_type=initial n_minim_iter=8 energy=-1952.72479334365 stress="-0.0023145173733493604 -7.254052069153834e-12 -5.144249890866272e-13 -7.254052069153834e-12 0.0001458655157071093 -1.2747449390318525e-11 -5.144249890866272e-13 -1.2747449390318525e-11 0.00014586554674669264" free_energy=-1952.72479334365 pbc="T T T"
Si       1.24015466      -2.70063288       9.21739296       0.00610577      -0.03301820      -0.03020336
Si       1.24015466       4.01648006       6.93827882       0.00610577      -0.00964778       0.04369628
Si       1.24015466      -1.31584716       2.26064545       0.00610577       0.04266598      -0.01349292
Si       1.23210009       8.01696575      -0.00923435      -0.00610577       0.03301820       0.03020336
Si       1.23210009       1.29985281       2.26987979      -0.00610577       0.00964778      -0.04369628
Si       1.23210009       6.63218003       6.94751317      -0.00610577      -0.04266598       0.01349292
Si       0.70111025       0.02848212       4.66307986       0.08271515      -0.09486272      -0.13054555
Si       0.70111025      -1.29222828       6.85195245       0.08271516      -0.06562440       0.14742631
Si       0.70111025       1.26374618       6.90128492       0.08271515       0.16048713      -0.01688075
Si       1.77114451       5.28785075       4.54507875      -0.08271515       0.09486272       0.13054555
Si       1.77114451       6.60856115       2.35620617      -0.08271515       0.06562440      -0.14742630
Si       1.77114451       4.05258669       2.30687370      -0.08271515      -0.16048713       0.01688075
12
Lattice="2.4804105239004977 -2.0119379993029524e-13 1.2610447647347905e-13 8.599292064109889e-13 10.601606282749259 -2.634703868303213e-15 -8.967413807320277e-13 -5.300803141374627 9.181260361781566" Properties=species:S:1:pos:R:3:forces:R:3 unique_starting_index=66 config_type=initial n_minim_iter=9 energy=-1952.7424471623497 stress="0.00366774223547405 -2.615842019962696e-12 -5.160496213833178e-13 -2.615842019962696e-12 -0.006799382033399366 -9.11162252990427e-12 -5.160496213833178e-13 -9.11162252990427e-12 -0.006799382045830726" free_energy=-1952.7424471623497 pbc="T T T"
Si       1.24725855      -2.69160821       9.20023536       0.00127953      -0.01730951      -0.03619661
Si       1.24725855       4.01263852       6.91214378       0.00127953      -0.02269243       0.03308878
Si       1.24725855      -1.32103029       2.25014158       0.00127953       0.04000194       0.00310783
Si       1.23315197       7.99241137      -0.01897500      -0.00127953       0.01730951       0.03619661
Si       1.23315197       1.28816463       2.26911658      -0.00127953       0.02269243      -0.03308878
Si       1.23315197       6.62183344       6.93111878      -0.00127953      -0.04000194      -0.00310783
Si       0.73034979       0.01550663       4.63002250       0.07491957      -0.05695485       0.01534094
Si       0.73034979      -1.29883934       6.85281999       0.07491957       0.04176307       0.04165388
Si       0.73034979       1.28333273       6.87967824       0.07491957       0.01519178      -0.05699482
Si       1.75006074       5.28529653       4.55123786      -0.07491957       0.05695485      -0.01534094
Si       1.75006074       6.59964249       2.32844037      -0.07491957      -0.04176307      -0.04165388
Si       1.75006074       4.01747042       2.30158212      -0.07491957      -0.01519178       0.05699482
12
Lattice="2.470624340684696 -2.0040001222095068e-13 1.2560694531917574e-13 8.629420236127155e-13 10.63874969122576 -1.019558662409532e-14 -8.998831717506684e-13 -5.319374845612871 9.21342749710536" Properties=species:S:1:pos:R:3:forces:R:3 unique_starting_index=66 config_type=initial n_minim_iter=10 energy=-1952.758495890824 stress="-0.0008868662656558928 -5.079899488851482e-13 1.5849889279013543e-12 -5.079899488851482e-13 0.0014880615628324197 -6.696260388784092e-12 1.5849889279013543e-12 -6.696260388784092e-12 0.0014880615771451727" free_energy=-1952.758495890824 pbc="T T T"
Si       1.24834522      -2.69053336       9.26259727       0.00260200      -0.04859306      -0.07737398
Si       1.24834522       4.04753639       6.91219911       0.00260200      -0.04271130       0.08076981
Si       1.24834522      -1.35700301       2.25205861       0.00260200       0.09130436      -0.00339583
Si       1.22227912       8.00990822      -0.04916978      -0.00260200       0.04859306       0.07737398
Si       1.22227912       1.27183847       2.30122839      -0.00260200       0.04271130      -0.08076981
Si       1.22227912       6.67637787       6.96136888      -0.00260200      -0.09130436       0.00339583
Si       0.77687677       0.00480892       4.63198420       0.09031575      -0.03999084       0.10614916
Si       0.77687677      -1.31036331       6.89327075       0.09031575       0.11192329      -0.01844150
Si       0.77687677       1.30555441       6.90160004       0.09031575      -0.07193245      -0.08770766
Si       1.69374757       5.31456594       4.58144329      -0.09031575       0.03999084      -0.10614916
Si       1.69374757       6.62973817       2.32015674      -0.09031575      -0.11192329       0.01844150
Si       1.69374757       4.01382045       2.31182746      -0.09031575       0.07193245       0.08770766
12
Lattice="2.4723163580294543 -2.0053725700194944e-13 1.256929677575539e-13 8.619873200397757e-13 10.626979662575048 -7.602941887552645e-15 -8.988875988665229e-13 -5.313489831287516 9.203234353290576" Properties=species:S:1:pos:R:3:forces:R:3 unique_starting_index=66 config_type=initial n_minim_iter=11 energy=-1952.7695881359214 stress="0.0021186788382580655 -2.2004045706817695e-13 -1.0879500405741514e-12 -2.2004045706817695e-13 -0.0016438363963200448 -1.6907972633426063e-12 -1.0879500405741514e-12 -1.6907972633426063e-12 -0.0016438363635356262" free_energy=-1952.7695881359214 pbc="T T T"
Si       1.25355037      -2.67915660       9.25714735      -0.00763668      -0.05947250      -0.07721067
Si       1.25355037       4.04301325       6.89487836      -0.00763668      -0.03713016       0.09011003
Si       1.25355037      -1.36385663       2.25444299      -0.00763668       0.09660265      -0.01289936
Si       1.21876598       7.99264645      -0.05391300       0.00763668       0.05947250       0.07721067
Si       1.21876598       1.27047660       2.30835599       0.00763668       0.03713016      -0.09011003
Si       1.21876598       6.67734647       6.94879136       0.00763668      -0.09660265       0.01289936
Si       0.81423154      -0.01339673       4.62011538       0.08320384       0.01154703       0.10930888
Si       0.81423154      -1.30565417       6.90477858       0.08320384       0.08889075      -0.06465446
Si       0.81423154       1.31905092       6.88157475       0.08320384      -0.10043778      -0.04465442
Si       1.65808482       5.32688657       4.58311897      -0.08320384      -0.01154703      -0.10930888
Si       1.65808482       6.61914402       2.29845577      -0.08320384      -0.08889075       0.06465446
Si       1.65808482       3.99443892       2.32165960      -0.08320384       0.10043778       0.04465442
12
Lattice="2.4661145006931458 -2.0003420509497918e-13 1.2537766431684419e-13 8.621206716530933e-13 10.628623683142127 -3.0190280277726075e-15 -8.990266590460797e-13 -5.314311841571058 9.204658116866" Properties=species:S:1:pos:R:3:forces:R:3 unique_starting_index=66 config_type=initial n_minim_iter=12 energy=-1952.788138729582 stress="0.001418401357987776 -9.034784674375127e-13 9.170475699118727e-14 -9.034784674375127e-13 -0.0023954928418835025 -2.0466290516707054e-11 9.170475699118727e-14 -2.0466290516707054e-11 -0.0023954928173817477" free_energy=-1952.788138729582 pbc="T T T"
Si       1.25763988      -2.67230797       9.26380905      -0.02492012      -0.04659548      -0.06633266
Si       1.25763988       4.04453613       6.88704018      -0.02492012      -0.03414803       0.07351920
Si       1.25763988      -1.37222814       2.25846700      -0.02492012       0.08074351      -0.00718654
Si       1.20847462       7.98661982      -0.05915094       0.02492012       0.04659548       0.06633266
Si       1.20847462       1.26977573       2.31761793       0.02492012       0.03414803      -0.07351920
Si       1.20847462       6.68654000       6.94619112       0.02492012      -0.08074351       0.00718654
Si       0.88532523      -0.04421089       4.61844881       0.07229778       0.09570758       0.05922292
Si       0.88532523      -1.29251239       6.93372147       0.07229778       0.00343476      -0.11249666
Si       0.88532523       1.33672330       6.85714595       0.07229778      -0.09914235       0.05327374
Si       1.58078927       5.35852274       4.58620931      -0.07229778      -0.09570758      -0.05922292
Si       1.58078927       6.60682425       2.27093665      -0.07229778      -0.00343476       0.11249666
Si       1.58078927       3.97758855       2.34751216      -0.07229778       0.09914235      -0.05327374
12
Lattice="2.458880334793207 -1.9944741943481919e-13 1.2500987814002238e-13 8.635947414666759e-13 10.646796699804879 4.221876144148854e-15 -9.005638313970983e-13 -5.32339834990244 9.220396410959342" Properties=species:S:1:pos:R:3:forces:R:3 unique_starting_index=66 config_type=initial n_minim_iter=13 energy=-1952.8045285419666 stress="-0.0008867674977324863 -2.01904691385471e-12 -1.3649596657049258e-13 -2.01904691385471e-12 -0.0008880698180166516 8.52704584453102e-12 -1.3649596657049258e-13 8.52704584453102e-12 -0.0008880698176525091" free_energy=-1952.8045285419666 pbc="T T T"
Si       1.25946576      -2.68365486       9.29151807      -0.03207161       0.00168818      -0.07265216
Si       1.25946576       4.06511978       6.89875067      -0.03207161      -0.06376271       0.03486408
Si       1.25946576      -1.38146490       2.25052408      -0.03207161       0.06207453       0.03778808
Si       1.19941458       8.00705323      -0.07112166       0.03207161      -0.00168818       0.07265216
Si       1.19941458       1.25827858       2.32164574       0.03207161       0.06376271      -0.03486408
Si       1.19941458       6.70486326       6.96987233       0.03207161      -0.06207453      -0.03778808
Si       0.95966821      -0.06069286       4.63442612       0.05936623       0.13172352      -0.02309870
Si       0.95966821      -1.27952116       6.95574492       0.05936623      -0.08586583      -0.10252657
Si       0.95966821       1.34021404       6.85062179       0.05936623      -0.04585770       0.12562527
Si       1.49921212       5.38409122       4.58597029      -0.05936623      -0.13172352       0.02309870
Si       1.49921212       6.60291952       2.26465149      -0.05936623       0.08586583       0.10252657
Si       1.49921212       3.98318432       2.36977462      -0.05936623       0.04585770      -0.12562527
12
Lattice="2.459038274525488 -1.9946023041694955e-13 1.250179078218278e-13 8.650797461852082e-13 10.665104527049882 8.513513160804171e-15 -9.02112406758608e-13 -5.332552263524947 9.236251454441609" Properties=species:S:1:pos:R:3:forces:R:3 unique_starting_index=66 config_type=initial n_minim_iter=14 energy=-1952.8118222298956 stress="-0.00012178432782357796 3.1303369778174657e-12 6.172630927197785e-13 3.1303369778174657e-12 0.0006228043885624299 -1.7649621696570593e-11 6.172630927197785e-13 -1.7649621696570593e-11 0.0006228043806224727" free_energy=-1952.8118222298956 pbc="T T T"
Si       1.26010981      -2.70389507       9.31080225      -0.03358332       0.05543825      -0.07003060
Si       1.26010981       4.08278656       6.92249216      -0.03358332      -0.08836740      -0.01299563
Si       1.26010981      -1.37889147       2.23920850      -0.03358332       0.03292916       0.08302623
Si       1.19892846       8.03644735      -0.07455080       0.03358332      -0.05543824       0.07003060
Si       1.19892846       1.24976571       2.31375930       0.03358332       0.08836740       0.01299563
Si       1.19892846       6.71144375       6.99704295       0.03358332      -0.03292916      -0.08302623
Si       1.00276574      -0.05828657       4.65306452       0.04245080       0.12749984      -0.08841576
Si       1.00276574      -1.27373689       6.96019685       0.04245080      -0.14032021      -0.06621022
Si       1.00276574       1.33202348       6.85924154       0.04245080       0.01282038       0.15462598
Si       1.45627254       5.39083885       4.58318694      -0.04245080      -0.12749984       0.08841576
Si       1.45627254       6.60628917       2.27605460      -0.04245080       0.14032021       0.06621022
Si       1.45627254       4.00052880       2.37700991      -0.04245080      -0.01282038      -0.15462598
12
Lattice="2.463636844003026 -1.9983323466705834e-13 1.2525169984573043e-13 8.651468934417755e-13 10.665932349586654 6.461190083431834e-15 -9.021824284803001e-13 -5.33296617479333 9.236968369788277" Properties=species:S:1:pos:R:3:forces:R:3 unique_starting_index=66 config_type=initial n_minim_iter=15 energy=-1952.8252578928239 stress="0.002058200310253486 -6.08280261423669e-13 8.768115024291934e-13 -6.08280261423669e-13 0.0006357466889678389 -4.959735094483364e-12 8.768115024291934e-13 -4.959735094483364e-12 0.000635746667810419" free_energy=-1952.8252578928239 pbc="T T T"
Si       1.25423694      -2.71412382       9.29803355      -0.01903867       0.07873007      -0.06168488
Si       1.25423694       4.07642900       6.93845178      -0.01903867      -0.09278571      -0.03733980
Si       1.25423694      -1.36230516       2.23745141      -0.01903867       0.01405564       0.09902468
Si       1.20939990       8.04709001      -0.06106518       0.01903867      -0.07873007       0.06168488
Si       1.20939990       1.25653719       2.29851659       0.01903867       0.09278571       0.03733980
Si       1.20939990       6.69527135       6.99951696       0.01903867      -0.01405564      -0.09902468
Si       0.97377209      -0.02631710       4.64992025       0.04216863       0.05607867      -0.03932316
Si       0.97377209      -1.29285855       6.93479953       0.04216863      -0.06209419      -0.02890397
Si       0.97377209       1.31917568       6.88921696       0.04216863       0.00601552       0.06822713
Si       1.48986475       5.35928329       4.58704812      -0.04216863      -0.05607867       0.03932316
Si       1.48986475       6.62582474       2.30216884      -0.04216863       0.06209419       0.02890397
Si       1.48986475       4.01379051       2.34775141      -0.04216863      -0.00601552      -0.06822713
12
Lattice="2.448286387171018 -1.9858811144614854e-13 1.2447128011126455e-13 8.667508033453511e-13 10.685706095127491 -8.836340693664476e-15 -9.038549991649304e-13 -5.342853047563737 9.254092935754615" Properties=species:S:1:pos:R:3:forces:R:3 unique_starting_index=66 config_type=initial n_minim_iter=16 energy=-1952.8726756060012 stress="-0.0040122133044011915 1.8176374141248325e-13 -2.7903987539499774e-13 1.8176374141248325e-13 0.0036868627146855225 -1.0098644263043994e-11 -2.7903987539499774e-13 -1.0098644263043994e-11 0.003686862740146032" free_energy=-1952.8726756060012 pbc="T T T"
Si       1.24083691      -2.70410060       9.30084886      -0.00612570       0.08746359      -0.07402364
Si       1.24083691       4.06396865       6.94548832      -0.00612570      -0.10783815      -0.03873387
Si       1.24083691      -1.35986803       2.26184869      -0.00612570       0.02037456       0.11275752
Si       1.20744948       8.04695366      -0.04675593       0.00612570      -0.08746359       0.07402364
Si       1.20744948       1.27888441       2.30860461       0.00612570       0.10783815       0.03873387
Si       1.20744948       6.70272109       6.99224425       0.00612570      -0.02037456      -0.11275752
Si       1.11755943       0.00236098       4.62950738       0.02992321      -0.02185588       0.04628282
Si       1.11755943      -1.33476252       6.93729458       0.02992321       0.05101004      -0.00421366
Si       1.11755943       1.33240157       6.94138390       0.02992321      -0.02915416      -0.04206916
Si       1.33072696       5.34049209       4.62458555      -0.02992321       0.02185588      -0.04628282
Si       1.33072696       6.67761559       2.31679835      -0.02992321      -0.05101004       0.00421366
Si       1.33072696       4.01045149       2.31270903      -0.02992321       0.02915416       0.04206916
12