12
Lattice="5.888823331572421 1.1797327213783566 -1.89797948774391 1.9399851532837618 4.74913261284035 0.5110911612417565 -2.189230620474726 2.652225645958553 10.471241799539406" Properties=species:S:1:pos:R:3:forces:R:3 unique_starting_index=158 config_type=initial n_minim_iter=1 energy=-1954.0478199785935 stress="0.00019212674311632326 0.0008740256098385973 0.0008508357911505706 0.0008740256098385973 -0.00029673022831672673 -0.0006852101272252351 0.0008508357911505706 -0.0006852101272252351 9.339917687218533e-05" free_energy=-1954.0478199785935 pbc="T T T"
Si       5.98295965       5.43819269       3.87752253       0.04546498       0.16866987       0.09456642
Si      -1.10453097       5.65055580       9.84451587       0.04769932      -0.06243204      -0.14046566
Si       1.41914459       1.61169935       1.22130248      -0.01742010      -0.07478612      -0.26293443
Si       5.79411802       5.76498364       1.44536798       0.02558785       0.06770448      -0.21093776
Si       4.41379053       4.00298574       4.87551236       0.08650838       0.05802799       0.22959919
Si       1.85279808       4.25775614       7.35560862      -0.26599533       0.01246195       0.07282245
Si       1.05888171       5.90382754       8.88064690      -0.03332115       0.07705758       0.18834574
Si       2.99760312       2.91097155       3.25006257       0.25160996       0.11074263      -0.04728968
Si       3.29760319       4.07866695       1.07471908      -0.02528365      -0.20657029       0.01091879
Si       0.94248030       2.52694310       4.36918325       0.13689187      -0.18172031       0.09455718
Si       3.51165895       5.54767677       6.36216027      -0.09724155       0.23292985      -0.06011820
Si       5.38025327       2.93836246       0.78515408      -0.15450058      -0.20208561       0.03093597
12
Lattice="5.887071166559349 1.1596691111134965 -1.9112265092332563 1.9236850610792577 4.749371677988622 0.5162271626094469 -2.224799142915734 2.6847618930799753 10.480207873295539" Properties=species:S:1:pos:R:3:forces:R:3 unique_starting_index=158 config_type=initial n_minim_iter=2 energy=-1954.0554776786382 stress="-0.00011782640885207629 -0.0012052570593473271 -0.0014344892264118953 -0.0012052570593473271 0.000781290777811942 0.0014044654800198335 -0.0014344892264118953 0.0014044654800198335 -0.0001347426379803569" free_energy=-1954.0554776786382 pbc="T T T"
Si       5.95337507       5.43749034       3.87324196       0.02186472       0.13862336      -0.01030364
Si      -1.14695703       5.68060394       9.85539190       0.03284154       0.03320301      -0.13805932
Si       1.40997115       1.61087993       1.21684475      -0.02687917      -0.13296951      -0.18690917
Si       5.77025013       5.75820343       1.43871880       0.00558950       0.01784189      -0.17493200
Si       4.38710448       4.00605996       4.87400728       0.04512516       0.14554120       0.26081009
Si       1.81501026       4.27340261       7.35887391      -0.19349192       0.01353473       0.15189707
Si       1.01590057       5.92773471       8.89103347       0.01432150       0.02095889       0.15756235
Si       2.98185572       2.91411602       3.24658523       0.20506648       0.06076980      -0.02692868
Si       3.28045528       4.07266175       1.07452346      -0.02339689      -0.17307644       0.01415156
Si       0.92435508       2.53397471       4.37227511       0.12738348      -0.06629875       0.06192793
Si       3.47431254       5.56071812       6.36209483      -0.07273154       0.10694427      -0.08423219
Si       5.36405195       2.92466284       0.77693469      -0.13569285      -0.16507244      -0.02498402
12
Lattice="5.874625082975765 1.1599499880142101 -1.904830073515501 1.9194244802474676 4.731622782787317 0.5022719926741849 -2.2039676256273286 2.639023641398342 10.466373841622213" Properties=species:S:1:pos:R:3:forces:R:3 unique_starting_index=158 config_type=initial n_minim_iter=3 energy=-1954.081277915119 stress="-0.0019072108536027433 -0.00033902165831194934 -0.001666937959100515 -0.00033902165831194934 -0.0027468500429588785 0.00043224851288631115 -0.001666937959100515 0.00043224851288631115 -0.000441526531259431" free_energy=-1954.081277915119 pbc="T T T"
Si       5.95244817       5.41785803       3.86895422      -0.02151879      -0.04661571      -0.17094329
Si      -1.12638771       5.62502438       9.81931088      -0.11512998       0.09538240       0.03372673
Si       1.40742293       1.59133999       1.19156697      -0.06927996      -0.07834902      -0.14126620
Si       5.76334046       5.73634350       1.40946719      -0.06236741      -0.20761904      -0.05634270
Si       4.39412806       3.98212471       4.89017953       0.09886118       0.06076154       0.07955061
Si       1.80125214       4.23335127       7.35649372       0.10570496       0.03585839       0.09201166
Si       1.02619119       5.88109754       8.88776934       0.09049134       0.11795233       0.12211942
Si       3.00393793       2.89993079       3.23756655       0.06730627       0.06292835       0.14214292
Si       3.27339737       4.03604504       1.06668823      -0.08086908      -0.10467249      -0.01659243
Si       0.94227117       2.49672731       4.37233513      -0.02305587       0.20563176      -0.23216877
Si       3.46977129       5.53528857       6.34138389      -0.21636427      -0.11094992       0.16952540
Si       5.34254329       2.89222681       0.77671910       0.22622163      -0.03030860      -0.02176336
12
Lattice="5.886410522789089 1.164932244394111 -1.8934624727102671 1.9249184513666553 4.751395304388541 0.5040341092988382 -2.1869277935075018 2.6444414712764868 10.466526758447003" Properties=species:S:1:pos:R:3:forces:R:3 unique_starting_index=158 config_type=initial n_minim_iter=4 energy=-1954.0859104786646 stress="0.0014880323142299808 -0.0003816509883186921 -0.0005076308093998088 -0.0003816509883186921 0.0022271859813776038 0.0002923932264334792 -0.0005076308093998088 0.0002923932264334792 0.0027102644545232845" free_energy=-1954.0859104786646 pbc="T T T"
Si       5.97706532       5.43977399       3.88132678      -0.02383346      -0.07153124      -0.16014432
Si      -1.10860763       5.64373661       9.81777309      -0.15316769       0.09427953       0.03027516
Si       1.41291575       1.59524502       1.18993084      -0.04630705      -0.10514838      -0.17174013
Si       5.78123045       5.75843098       1.41649240      -0.08074170      -0.18933971      -0.00310375
Si       4.41841264       3.99714925       4.90503935       0.10130271       0.03223647       0.05502412
Si       1.81912164       4.24721739       7.36486095       0.10902360       0.03597342       0.04924452
Si       1.04832297       5.90258213       8.89579226       0.06187084       0.14477105       0.09826208
Si       3.02308489       2.91172931       3.24507405       0.08896002       0.04815288       0.17406202
Si       3.28315273       4.04846781       1.07238176      -0.03141044      -0.08397573      -0.01692028
Si       0.95614502       2.50389373       4.37538811      -0.04786578       0.19096950      -0.24916876
Si       3.48974790       5.55677050       6.35011952      -0.21905624      -0.09285790       0.16497010
Si       5.35793601       2.90005645       0.78760026       0.24122521      -0.00352988       0.02923924
12
Lattice="5.879543764443193 1.1677018861532427 -1.8511516060326585 1.9272668139835194 4.759006762925625 0.504746383865623 -2.137238781925514 2.6390425899526044 10.372118270023334" Properties=species:S:1:pos:R:3:forces:R:3 unique_starting_index=158 config_type=initial n_minim_iter=5 energy=-1954.0967188711434 stress="-0.000492464178272558 -0.0006694350372228362 0.002476793050293667 -0.0006694350372228362 0.0012626481643161973 0.0006220800277284988 0.002476793050293667 0.0006220800277284988 -0.001984377180607251" free_energy=-1954.0967188711434 pbc="T T T"
Si       5.99805804       5.44717624       3.87234415       0.00828759      -0.04731819      -0.10964620
Si      -1.06483549       5.64574250       9.72765733      -0.24863215       0.10078401       0.00372585
Si       1.41683211       1.59160275       1.17488645       0.01437438      -0.17223349      -0.16625074
Si       5.78811836       5.76207670       1.42163010      -0.07508584      -0.15880834      -0.05409712
Si       4.44856475       4.00184892       4.89307065       0.09485368      -0.04188019       0.00075536
Si       1.85124245       4.24835992       7.31690524       0.05795181      -0.03903815       0.05322149
Si       1.09264528       5.90942024       8.83414390       0.06069756       0.21292788       0.13844162
Si       3.04860722       2.91730159       3.23512242       0.10675345       0.03578696       0.21870046
Si       3.28680955       4.04576936       1.07592441       0.03755084      -0.02286098      -0.09915396
Si       0.98013758       2.50507985       4.33929994      -0.08487455       0.13287512      -0.20867096
Si       3.51255557       5.56239585       6.31526732      -0.18838775      -0.00002191       0.17134153
Si       5.36608087       2.89744549       0.80545879       0.21651097      -0.00021272       0.05163268
12
Lattice="5.906046317341062 1.1938845288234017 -1.8426423194288564 1.9488427654975038 4.760787832513691 0.47790190525379433 -2.1322583986053183 2.577051754090105 10.296074827750992" Properties=species:S:1:pos:R:3:forces:R:3 unique_starting_index=158 config_type=initial n_minim_iter=6 energy=-1954.118822743995 stress="0.0024096660095397856 0.001822176346701813 0.0012154245508855183 0.001822176346701813 0.0001456828217573119 -0.0025836890491914106 0.0012154245508855183 -0.0025836890491914106 -0.0038853064047504994" free_energy=-1954.118822743995 pbc="T T T"
Si       6.04177045       5.44795073       3.81780729      -0.03839358      -0.10284160       0.04914065
Si      -1.05670038       5.59454390       9.63355654      -0.14839229       0.06453535       0.00405429
Si       1.42355113       1.57564378       1.13479566       0.04970637      -0.14277150      -0.08985937
Si       5.82498889       5.75915234       1.37211657      -0.08189431      -0.10738080      -0.08089829
Si       4.49317370       3.99397889       4.86409031       0.17088596      -0.01866457      -0.09892668
Si       1.86746753       4.21556199       7.26319815       0.07471082       0.00840690      -0.01850287
Si       1.12336851       5.87872147       8.77098565      -0.09050909       0.23138055       0.22725124
Si       3.09220107       2.91746801       3.21273057      -0.01891408       0.00350185       0.23060997
Si       3.30840432       4.03085709       1.04858715       0.11936790      -0.01848036      -0.14875721
Si       0.99842933       2.48853828       4.28961813       0.04439362       0.05060455      -0.15327575
Si       3.52571814       5.54376712       6.25917980      -0.22821917       0.07318425       0.12732690
Si       5.40477250       2.89494685       0.79112348       0.14725785      -0.04147463      -0.04816287
12
Lattice="5.8813822438130705 1.1939093861683623 -1.828651568407811 1.9444986285659822 4.752001384626809 0.48034230120392635 -2.09123412737745 2.5614852559266845 10.308013085932265" Properties=species:S:1:pos:R:3:forces:R:3 unique_starting_index=158 config_type=initial n_minim_iter=7 energy=-1954.146741765317 stress="0.0009731529311385396 0.0012926186530543558 0.002239539171892474 0.0012926186530543558 -0.0009050577786390335 -0.0024344327826432135 0.002239539171892474 -0.0024344327826432135 -0.00249080770910535" free_energy=-1954.146741765317 pbc="T T T"
Si       6.03655527       5.44086691       3.83119552       0.04097353      -0.11875053       0.12707783
Si      -1.03406220       5.58181775       9.63548530      -0.16901413      -0.04504840       0.02145384
Si       1.41766745       1.55261200       1.10602130       0.07097398      -0.06639693      -0.03630813
Si       5.80515434       5.73325636       1.36786292      -0.08465745      -0.10604377      -0.02446341
Si       4.51277605       3.99122872       4.90752907       0.04578572       0.00824936      -0.13359851
Si       1.87636145       4.20340716       7.29377695      -0.10340051       0.03715553      -0.00137677
Si       1.15345404       5.88005864       8.81438257      -0.07818571       0.14560917       0.11406740
Si       3.11984697       2.92105938       3.24164854      -0.00747058       0.00770285       0.22320113
Si       3.29787624       3.99946493       1.05352955       0.14002927      -0.01599795      -0.13678229
Si       1.01677315       2.48587314       4.28285121       0.02925106       0.00400337      -0.05147436
Si       3.50617632       5.53638659       6.28879750      -0.05728233       0.18346305      -0.02857272
Si       5.40148376       2.87186438       0.80895242       0.17299714      -0.03394575      -0.07322403
12
Lattice="5.861450977031018 1.193462163174456 -1.8402208017319333 1.9404064758573925 4.754078476009372 0.4935435314213606 -2.0954146268687204 2.590349305204561 10.354446610295367" Properties=species:S:1:pos:R:3:forces:R:3 unique_starting_index=158 config_type=initial n_minim_iter=8 energy=-1954.1626761077662 stress="0.0003025877915925266 0.0010741975074579685 5.06079517117136e-05 0.0010741975074579685 -0.0003201523244274794 0.0003006485768955006 5.06079517117136e-05 0.0003006485768955006 -0.0004981400204373379" free_energy=-1954.1626761077662 pbc="T T T"
Si       6.01354800       5.45938470       3.84587473       0.05880669      -0.11642963       0.13031251
Si      -1.05260095       5.61430096       9.68049030      -0.13102958      -0.07111999      -0.00151614
Si       1.40844790       1.54011823       1.08422409       0.07616804      -0.07568418       0.06558590
Si       5.77819949       5.72654744       1.36530864      -0.03995237      -0.08036230       0.03734955
Si       4.50488774       4.01842178       4.94676286      -0.10061751       0.12797807      -0.11905056
Si       1.85223946       4.22986898       7.34104437      -0.17269152       0.09997887       0.06269492
Si       1.14454941       5.92519212       8.88418307      -0.06742685      -0.02231449       0.01302864
Si       3.12697551       2.94293045       3.27355031      -0.01101728      -0.00549021       0.15519886
Si       3.28572323       3.98529122       1.05938326       0.12006754       0.01043089      -0.08774530
Si       1.01461278       2.50583826       4.28893208       0.02328241       0.03783679       0.02002866
Si       3.46399799       5.56697465       6.32958605       0.10063861       0.14751719      -0.15286519
Si       5.39424404       2.86433741       0.81204797       0.14377182      -0.05234101      -0.12302185
12
Lattice="5.845510674804186 1.1781931444087999 -1.8475750800196427 1.9217343864449172 4.747608468248549 0.488068095866648 -2.101885980681502 2.583827329351755 10.373838529034504" Properties=species:S:1:pos:R:3:forces:R:3 unique_starting_index=158 config_type=initial n_minim_iter=9 energy=-1954.167108507501 stress="-0.0013613047968434534 -0.0012231940248845555 -0.0006622533234979135 -0.0012231940248845555 0.0007208856959178352 -0.000909901735370771 -0.0006622533234979135 -0.000909901735370771 0.0006164804031917285" free_energy=-1954.167108507501 pbc="T T T"
Si       5.98408061       5.43526930       3.84564063       0.05717252      -0.06580246       0.08230150
Si      -1.07590358       5.60582275       9.69268586      -0.10873117      -0.04951099       0.06716810
Si       1.40079207       1.52902894       1.07823280       0.06048826      -0.00410265       0.02555369
Si       5.74546917       5.70241820       1.35591655      -0.03915510      -0.08235709       0.05913344
Si       4.48297172       4.00320073       4.95302582      -0.12236171       0.10194504      -0.02818244
Si       1.82804651       4.21771536       7.35476089      -0.14290630       0.07051227       0.08687770
Si       1.12119922       5.91500488       8.90116765      -0.06689235       0.01152186      -0.05180562
Si       3.11543335       2.93176373       3.28246268       0.00445616      -0.04186391       0.07296988
Si       3.26783936       3.96954012       1.05299801       0.14221323      -0.04583948      -0.04701889
Si       1.00517079       2.49996553       4.29105527       0.02009153       0.02661264       0.09518691
Si       3.43322201       5.55335193       6.33442902       0.09097529       0.12259429      -0.22869674
Si       5.37915333       2.84289810       0.80645495       0.10464964      -0.04370953      -0.13348753
12
Lattice="5.851494555268934 1.1651867710350157 -1.8436413533318206 1.9208946268025484 4.7353398260374995 0.5032057436178767 -2.0986175583826956 2.6064373722609444 10.401407792730145" Properties=species:S:1:pos:R:3:forces:R:3 unique_starting_index=158 config_type=initial n_minim_iter=10 energy=-1954.1749476314642 stress="-0.00017953042885897642 -0.0013411786503993194 -0.0007793551056122287 -0.0013411786503993194 -9.198559861409661e-05 0.001011118323539547 -0.0007793551056122287 0.001011118323539547 0.0015563934141328143" free_energy=-1954.1749476314642 pbc="T T T"
Si       5.99407109       5.42308346       3.87581659       0.07722084       0.00088178       0.03839120
Si      -1.08315855       5.61751177       9.72683637      -0.07603590      -0.03126303       0.01949505
Si       1.40436993       1.52015126       1.08006552       0.07331604       0.02363607       0.04606546
Si       5.74660261       5.67920807       1.37619471      -0.03864308      -0.06276742       0.07459795
Si       4.48968365       4.00907651       4.97906159      -0.18359208       0.05693754       0.02470147
Si       1.82472942       4.22913841       7.38922377      -0.09004321       0.06535720       0.06018827
Si       1.12331266       5.92765191       8.94285012      -0.11521375      -0.00711365      -0.06193688
Si       3.12580405       2.93195345       3.30949565       0.03244144      -0.03334048       0.00990272
Si       3.27497008       3.95397001       1.06420743       0.16609537      -0.09574381      -0.02844030
Si       1.01025280       2.50742365       4.30534223      -0.02008467       0.05065702       0.03577584
Si       3.43551112       5.56087722       6.36094456       0.08742515       0.04019152      -0.15257234
Si       5.39405706       2.82757027       0.81533242       0.08711384      -0.00743276      -0.06616844
12
Lattice="5.849560883384806 1.1698085655893176 -1.8317960347575728 1.9255054607500095 4.740482914057379 0.5079305563385418 -2.0794854642528975 2.611057155529622 10.389600047128605" Properties=species:S:1:pos:R:3:forces:R:3 unique_starting_index=158 config_type=initial n_minim_iter=11 energy=-1954.182990602658 stress="-0.0005099401504928341 -0.0003542974588211684 -0.0006878043457748064 -0.0003542974588211684 0.0007336174463933714 0.0009532282382135434 -0.0006878043457748064 0.0009532282382135434 0.000579523136311153" free_energy=-1954.182990602658 pbc="T T T"
Si       6.00972047       5.42923656       3.88933030       0.02854191       0.07947538      -0.00721849
Si      -1.07432853       5.62288862       9.71798558      -0.05838099       0.01035993       0.01108794
Si       1.41157482       1.51588156       1.07713713       0.08098054       0.02120026       0.00515796
Si       5.74884359       5.67907317       1.38560190       0.01532270      -0.01247419       0.06687477
Si       4.49692203       4.02610026       4.98420175      -0.15554462      -0.03328152       0.06380305
Si       1.82876721       4.24302588       7.39446353       0.06989920       0.04748594       0.01353754
Si       1.13754691       5.94235589       8.94471071      -0.17634320       0.02622967      -0.06482446
Si       3.14025084       2.93911530       3.32421855       0.05544780      -0.04001277      -0.08641876
Si       3.28942713       3.95196706       1.06459820       0.18080240      -0.08252393       0.00388649
Si       1.02157357       2.51609160       4.30226807      -0.05773725       0.05711103      -0.02216747
Si       3.44878390       5.58066406       6.35495648      -0.01669551      -0.05169571      -0.00903946
Si       5.40948371       2.82774521       0.81795454       0.03370703      -0.02187408       0.02532089
12
Lattice="5.870060885956042 1.1633737274101996 -1.8088945933591198 1.9327285997340844 4.722898554200667 0.5083923208732621 -2.0520371154139476 2.5900386945071716 10.367988462980202" Properties=species:S:1:pos:R:3:forces:R:3 unique_starting_index=158 config_type=initial n_minim_iter=12 energy=-1954.188846668295 stress="0.0010169870449083175 0.000573147860238766 0.0006481231119674744 0.000573147860238766 -0.0010002582718518977 -0.000468415577545422 0.0006481231119674744 -0.000468415577545422 -0.0005521924703470487" free_energy=-1954.188846668295 pbc="T T T"
Si       6.05491306       5.39731761       3.90783191       0.00109127       0.13805186       0.01898405
Si      -1.06093766       5.58963068       9.69841965      -0.02058439       0.01044753      -0.01506394
Si       1.42942316       1.50398352       1.07921150       0.08773930       0.08772508      -0.05336565
Si       5.77343898       5.64462037       1.40275565       0.01716229       0.03749895       0.02361798
Si       4.52313575       4.00834465       4.98920574      -0.05980404      -0.14364242       0.07399156
Si       1.85482505       4.22549511       7.39428588       0.15284041       0.00040918      -0.07352095
Si       1.15983287       5.91515777       8.93261682      -0.26931401       0.08968119      -0.01021801
Si       3.17032950       2.92048386       3.33769038       0.04637982      -0.02772612      -0.15493435
Si       3.32328083       3.92757805       1.06504557       0.22790806      -0.11944663       0.00021384
Si       1.03990071       2.50744534       4.29694340      -0.02895408      -0.00806775      -0.07426011
Si       3.48571049       5.55901555       6.34508376      -0.13781002      -0.04716443       0.13738159
Si       5.45039378       2.80764097       0.82770884      -0.01665461      -0.01776644       0.12717399
12
Lattice="5.855225695834234 1.1723559417211415 -1.7925799962088003 1.9332063615796997 4.738078870455004 0.5076052977046713 -2.0163648183802634 2.5834007191565305 10.354870415565028" Properties=species:S:1:pos:R:3:forces:R:3 unique_starting_index=158 config_type=initial n_minim_iter=13 energy=-1954.2056749904814 stress="-0.0020707855118016084 0.0016451533271894872 0.0004909692571538929 0.0016451533271894872 0.0014936402449982438 -0.0012325510109830087 0.0004909692571538929 -0.0012325510109830087 -0.0009640116657558483" free_energy=-1954.2056749904814 pbc="T T T"
Si       6.06696813       5.41910741       3.92436917      -0.12117909       0.01215688       0.07119932
Si      -1.04926006       5.59247939       9.68513146      -0.12231667      -0.00957884       0.01230534
Si       1.44784131       1.50687800       1.07348841       0.01183288      -0.00288752      -0.11649651
Si       5.76637704       5.65178479       1.41788820       0.12068485       0.07594164      -0.01691806
Si       4.51187008       4.01618042       5.00239549       0.12430461      -0.03160445      -0.06193781
Si       1.87603204       4.24146009       7.39713644       0.10328778      -0.03042193      -0.01319565
Si       1.15085495       5.93775991       8.92444742      -0.13196909       0.00017757       0.00832528
Si       3.18928953       2.92291434       3.34214538      -0.01091490      -0.01472789      -0.15950519
Si       3.36323215       3.91804729       1.06268709       0.11844878       0.12141172      -0.00968486
Si       1.04842331       2.52011021       4.28661366       0.04101336      -0.07312391       0.01882898
Si       3.49032690       5.57685260       6.34163551      -0.16467266       0.08565207       0.13458839
Si       5.46351499       2.80794321       0.83983443       0.03148014      -0.13299534       0.13249078
12
Lattice="5.875988447079896 1.1480786208282723 -1.7782452541002605 1.9269548835934975 4.717405250388814 0.5110232649772146 -2.0099477429771047 2.5800181820710275 10.351466462444831" Properties=species:S:1:pos:R:3:forces:R:3 unique_starting_index=158 config_type=initial n_minim_iter=14 energy=-1954.2154222938095 stress="-0.0002288077144209388 0.00026340650355564005 0.0001118027920558431 0.00026340650355564005 0.0006536339762504785 -0.000540904957882192 0.0001118027920558431 -0.000540904957882192 -0.0005556401954718395" free_energy=-1954.2154222938095 pbc="T T T"
Si       6.09199596       5.38568633       3.94466157      -0.11689247      -0.06973967       0.09196741
Si      -1.06894208       5.57677793       9.68144316      -0.12324322      -0.00264366       0.01582507
Si       1.46299635       1.49293233       1.06536218      -0.02814178       0.01076711      -0.07426806
Si       5.77646495       5.60543088       1.43184294       0.11125678       0.06309769      -0.02200992
Si       4.52270742       3.98873280       5.02152822       0.15366252       0.06070878      -0.10553982
Si       1.88648038       4.22813487       7.40897591       0.00931638      -0.05017014       0.00505815
Si       1.13188098       5.92601549       8.93152764      -0.08026750      -0.07907819       0.03494917
Si       3.21598752       2.90092341       3.35059609      -0.09201157      -0.00839786      -0.12510246
Si       3.39702953       3.87748151       1.06521056       0.11066217       0.18065801      -0.04467974
Si       1.05525985       2.51354028       4.28291205       0.11463659      -0.08146113       0.04454568
Si       3.49059875       5.55480858       6.34929154      -0.12013650       0.10132680       0.08452406
Si       5.49741089       2.76759866       0.85493607       0.06115859      -0.12506774       0.09473044
12
Lattice="5.890267317862444 1.1246974588554353 -1.7711461411669176 1.921028518267909 4.692654098852747 0.519248899656528 -2.0038894063676707 2.5814001371636532 10.381099102025006" Properties=species:S:1:pos:R:3:forces:R:3 unique_starting_index=158 config_type=initial n_minim_iter=15 energy=-1954.2224850383761 stress="0.0006256071976503753 -0.001260117156950512 -0.0001575840668114305 -0.001260117156950512 -0.0013035106899548308 0.001270677229960944 -0.0001575840668114305 0.001270677229960944 0.0015385613684318921" free_energy=-1954.2224850383761 pbc="T T T"
Si       6.10713615       5.35011011       3.98256021      -0.03980484      -0.12335577       0.04053175
Si      -1.09152080       5.56120024       9.71313540      -0.11227080      -0.00891212       0.03769124
Si       1.47782626       1.48328427       1.06452495      -0.08824430       0.04045584      -0.02993890
Si       5.78630909       5.56102676       1.45579348       0.10431612       0.02355062      -0.02111499
Si       4.52767055       3.96420166       5.04908277       0.09150538       0.10646630      -0.09264325
Si       1.89624730       4.21583779       7.44282055      -0.12571900      -0.04750137       0.03834474
Si       1.10444808       5.91013772       8.96474338       0.02371359      -0.13843522       0.05838563
Si       3.23094783       2.87776479       3.36211961      -0.09620457       0.04832167      -0.06335411
Si       3.43637153       3.84388607       1.07136838       0.03566950       0.19546153      -0.08495209
Si       1.06271134       2.50564249       4.29662733       0.12019232      -0.03295072       0.04470335
Si       3.48713850       5.53534219       6.37926027      -0.04404669       0.04954659       0.01357667
Si       5.52747447       2.72685694       0.87549529       0.13089330      -0.11264735       0.05876995
12
Lattice="5.905385892416997 1.1535748071097014 -1.7520661681497534 1.9402572851213404 4.715587508241872 0.5003163095067253 -1.9842186304330436 2.5452113335335165 10.291457669712193" Properties=species:S:1:pos:R:3:forces:R:3 unique_starting_index=158 config_type=initial n_minim_iter=16 energy=-1954.238939887769 stress="0.0018485796324253507 -0.001747686729613947 -0.001083910922453358 -0.001747686729613947 -6.598148465278208e-05 0.00031327940618410596 -0.001083910922453358 0.00031327940618410596 -0.0008530646442705926" free_energy=-1954.238939887769 pbc="T T T"
Si       6.13807275       5.37149626       3.95443715       0.05194557      -0.00784642      -0.08731289
Si      -1.09498597       5.54325603       9.61554950       0.02353296       0.06808118       0.10012266
Si       1.48717360       1.48390288       1.02450834      -0.04689841       0.00938369       0.12068318
Si       5.83054522       5.59110982       1.42411097       0.09253638      -0.00800228       0.03052523
Si       4.57263692       3.98778208       5.00781380      -0.11709648       0.00138873       0.06068874
Si       1.91390726       4.21077279       7.38673569      -0.05941446       0.04002068       0.00165644
Si       1.11437208       5.90599237       8.89585970      -0.07136077      -0.08350719       0.01116512
Si       3.26096877       2.89190177       3.32210049      -0.04774170       0.03187426      -0.00557786
Si       3.48931189       3.86705378       1.04218579       0.11802195       0.16572260      -0.11106944
Si       1.09826959       2.49870838       4.25447281       0.02752238       0.09838525       0.00300236
Si       3.49061742       5.56446676       6.32546370      -0.01020644      -0.25869855      -0.05942114
Si       5.57594713       2.71845706       0.88196399       0.03915900      -0.05680195      -0.06446239
12
Lattice="5.899382891362143 1.1786734520155426 -1.7499710586053931 1.955447750021275 4.730361259224269 0.4994001718201091 -1.9645478879533882 2.536202270306062 10.293334201334675" Properties=species:S:1:pos:R:3:forces:R:3 unique_starting_index=158 config_type=initial n_minim_iter=17 energy=-1954.2485917191839 stress="0.00038185051764486077 -0.0001483305813712047 1.745849809121034e-05 -0.0001483305813712047 -0.00019151768326295418 -2.1322902880035547e-05 1.745849809121034e-05 -2.1322902880035547e-05 0.00025387237012887203" free_energy=-1954.2485917191839 pbc="T T T"
Si       6.14894874       5.39511106       3.96473038       0.06137453       0.05175618      -0.11951471