14
Lattice="3.8847490198983956 0.0 0.0 0.0 8.856727845706764 0.0 0.0 0.0 7.811267830588883" Properties=species:S:1:pos:R:3:forces:R:3 unique_starting_index=444 config_type=initial n_minim_iter=1 energy=-2278.019875624666 stress="-0.00012967856293070367 -1.081013316666011e-11 -2.415605903277616e-12 -1.081013316666011e-11 -7.571087050193905e-05 -5.301052355442923e-13 -2.415605903277616e-12 -5.301052355442923e-13 -4.5523209684059013e-05" free_energy=-2278.019875624666 pbc="T T T"
Si       2.98890001       2.66117961       4.68278085       0.00075699      -0.00688284      -0.00690869
Si       0.89584901       6.19554823       4.68278085      -0.00075699       0.00688284      -0.00690869
Si       2.98890001       6.19554823       3.12848698       0.00075699       0.00688284       0.00690869
Si       0.89584901       2.66117961       3.12848698      -0.00075699      -0.00688284       0.00690869
Si      -0.95994183       8.18159616       5.74712275       0.00210421       0.00695257       0.00382864
Si       4.84469085       0.67513168       5.74712275      -0.00210421      -0.00695257       0.00382864
Si      -0.95994183       0.67513168       2.06414508       0.00210421      -0.00695257      -0.00382864
Si       4.84469085       8.18159616       2.06414508      -0.00210421       0.00695257      -0.00382864
Si       3.36312759       2.72439653       1.04134070       0.00261093      -0.00829091       0.00100509
Si       0.52162143       6.13233132       1.04134070      -0.00261093       0.00829091       0.00100509
Si       3.36312759       6.13233132       6.76992713       0.00261093       0.00829091      -0.00100509
Si       0.52162143       2.72439653       6.76992713      -0.00261093      -0.00829091      -0.00100509
Si       1.94237451       4.42836392       5.89103807      -0.00000000      -0.00000000       0.00714829
Si       1.94237451       4.42836392       1.92022976       0.00000000      -0.00000000      -0.00714829
