12
Lattice="6.155777296822331 -1.1851935933500195 -1.081648634755291 -0.5617244929707043 6.2436162258571475 -1.0816486347559469 -0.5617244929713102 -0.5079394113906573 6.316225526310101" Properties=species:S:1:pos:R:3:forces:R:3 unique_starting_index=354 config_type=initial n_minim_iter=14 energy=-1951.447679474956 stress="-7.384693103356819e-05 3.224827619655551e-05 2.9430894173619362e-05 3.224827619655551e-05 -8.034944395328173e-05 2.6612888350132695e-05 2.9430894173619362e-05 2.6612888350132695e-05 -8.522213246020503e-05" free_energy=-1951.447679474956 pbc="T T T"
Si       3.24830251       4.14528102      -1.03034613      -0.00348764       0.00085994       0.00231689
Si      -0.31903808       3.29693475       4.22195133       0.00202376      -0.00370935       0.00064514
Si       4.45021276      -0.76932298       2.89830735       0.00050575       0.00198303      -0.00375272
Si       5.39268723       4.59439097       0.08286078      -0.00071831       0.00124081       0.00050162
Si       1.03978367       5.31519473       4.56770454       0.00053751      -0.00077614       0.00118991
Si       5.11216249       0.52964987       4.87664183       0.00116250       0.00042303      -0.00088139
Si       3.52215085       1.56278306      -0.29061550      -0.00141519       0.00195449       0.00179906
Si       0.20711823       3.51912460       1.58276941       0.00181786      -0.00160563       0.00178234
Si       1.90821049       0.01578366       3.36017536       0.00180268       0.00164533      -0.00176144
Si       4.18260541       2.90232800       1.58734149       0.00155295      -0.00702107       0.00356180
Si       2.25557781       3.97640291       2.74553045       0.00304800       0.00125353      -0.00731654
Si       3.30724972       1.93357752       3.70954527      -0.00682988       0.00375204       0.00191532
