8
Lattice="6.748397897091408 1.0931491105301276 0.8933587153151419 2.7367864148153345 6.264650770394361 0.8933587153152116 2.736786414815394 2.1229663119741558 5.961287873224614" Properties=species:S:1:pos:R:3:forces:R:3 unique_starting_index=452 config_type=initial n_minim_iter=1 energy=-1299.267905206874 stress="-5.729662419505639e-05 -3.3279015854150435e-05 -2.719674383090267e-05 -3.3279015854150435e-05 -4.021058125195844e-05 -2.109692372454994e-05 -2.719674383090267e-05 -2.109692372454994e-05 -3.1636665585349104e-05" free_energy=-1299.267905206874 pbc="T T T"
Si      10.15879695       7.88043387       4.85749749      -0.00348678      -0.00270474       0.00049739
Si       8.65659108       8.26606380       6.75525678      -0.00091655      -0.00336455      -0.00274962
Si      10.15879695       6.32952030       6.75525678      -0.00348678      -0.00005118      -0.00274962
Si       2.66894634       3.60918936       1.37930808       0.00287453       0.00309650       0.00164617
Si       2.66894634       2.07044430       3.26217749       0.00287453       0.00222982       0.00270668
Si       4.15936586       1.68784004       1.37930808       0.00371399       0.00201432       0.00164617
Si       5.08634974       3.94566042       3.22447586      -0.00051651      -0.00040066      -0.00032744
Si      11.32349830       8.78391019       7.17845850      -0.00105645      -0.00081950      -0.00066973
