16
Lattice="6.827270513114351 1.477822360892009e-32 1.1133994481328278e-32 -1.4359982173562692e-32 6.6340505771773515 -5.00505005010402e-16 -1.235594737742537e-32 5.7161261648235085e-16 7.576561613440378" Properties=species:S:1:pos:R:3:forces:R:3 unique_starting_index=48 config_type=initial n_minim_iter=1 energy=-2608.237829883093 stress="-5.049846079238208e-05 -1.5573428970147803e-12 -6.182767942766309e-13 -1.5573428970147803e-12 0.00017270179164929957 -1.3151899731782975e-11 -6.182767942766309e-13 -1.3151899731782975e-11 0.0008449817894439631" free_energy=-2608.237829883093 pbc="T T T"
Si       4.51166336       3.68511027       4.94359336       0.24164314       0.39642363      -0.12576579
Si       2.31560716       2.94894031       4.94359336      -0.24164314      -0.39642363      -0.12576579
Si       2.31560716       3.68511027       1.15531255      -0.24164314       0.39642363      -0.12576579
Si       4.51166336       2.94894031       1.15531255       0.24164314      -0.39642363      -0.12576579
Si       4.45499840       6.08387642       4.66981450       0.39838538      -0.17825715       0.44749546
Si       2.37227211       0.55017416       4.66981450      -0.39838538       0.17825715       0.44749546
Si       2.37227211       6.08387642       0.88153370      -0.39838538      -0.17825715       0.44749546
Si       4.45499840       0.55017416       0.88153370       0.39838538       0.17825715       0.44749546
Si       5.77232123       3.85191897       6.95441805      -0.22683214       0.06944805      -0.06621199
Si       1.05494928       2.78213161       6.95441805       0.22683214      -0.06944805      -0.06621199
Si       1.05494928       3.85191897       3.16613724       0.22683214       0.06944805      -0.06621199
Si       5.77232123       2.78213161       3.16613724      -0.22683214      -0.06944805      -0.06621199
Si       1.09702083       6.22774722       2.94710640       0.11045542      -0.10310993      -0.25551768
Si       5.73024968       0.40630336       2.94710640      -0.11045542       0.10310993      -0.25551768
Si       5.73024968       6.22774722       6.73538721      -0.11045542      -0.10310993      -0.25551768
Si       1.09702083       0.40630336       6.73538721       0.11045542       0.10310993      -0.25551768
16
Lattice="6.830577644999459 1.4784260628676176e-32 1.1165414055997852e-32 -1.433730833624952e-32 6.62307222584725 -5.0185471206106655e-16 -1.2227338758432623e-32 5.645513619594778e-16 7.515413627240943" Properties=species:S:1:pos:R:3:forces:R:3 unique_starting_index=48 config_type=initial n_minim_iter=2 energy=-2608.2818491381554 stress="0.0013236302075031986 -6.697299021807174e-13 1.9665638116476253e-12 -6.697299021807174e-13 -0.005224383544125413 3.777475218490784e-12 1.9665638116476253e-12 3.777475218490784e-12 -0.009780126433667762" free_energy=-2608.2818491381554 pbc="T T T"
Si       4.52060509       3.69007218       4.90020890      -0.05969127       0.20997858      -0.14434689
Si       2.30997255       2.93300005       4.90020890       0.05969127      -0.20997858      -0.14434689
Si       2.30997255       3.69007218       1.14250208       0.05969127       0.20997858      -0.14434689
Si       4.52060509       2.93300005       1.14250208      -0.05969127      -0.20997858      -0.14434689
Si       4.46829516       6.06883515       4.64453081       0.12209663       0.01575583       0.23557578
Si       2.36228248       0.55423707       4.64453081      -0.12209663      -0.01575583       0.23557578
Si       2.36228248       6.06883515       0.88682400      -0.12209663       0.01575583       0.23557578
Si       4.46829516       0.55423707       0.88682400       0.12209663      -0.01575583       0.23557578
Si       5.76877518       3.84748222       6.89645574       0.00567342       0.00553718      -0.01461301
Si       1.06180247       2.77559000       6.89645574      -0.00567342      -0.00553718      -0.01461301
Si       1.06180247       3.84748222       3.13874893      -0.00567342       0.00553718      -0.01461301
Si       5.76877518       2.77559000       3.13874893       0.00567342      -0.00553718      -0.01461301
Si       1.10064054       6.21456447       2.91623814      -0.03863990      -0.00391804      -0.07661588
Si       5.72993711       0.40850775       2.91623814       0.03863990       0.00391804      -0.07661588
Si       5.72993711       6.21456447       6.67394495       0.03863990      -0.00391804      -0.07661588
Si       1.10064054       0.40850775       6.67394495      -0.03863990       0.00391804      -0.07661588
16
Lattice="6.817634021986266 1.4786609620190705e-32 1.1143591905419499e-32 -1.4418353894006238e-32 6.6742822460518765 -6.162700954652686e-16 -1.2353281644534664e-32 4.4366173144976614e-16 7.592376559647251" Properties=species:S:1:pos:R:3:forces:R:3 unique_starting_index=48 config_type=initial n_minim_iter=3 energy=-2608.3203143386577 stress="0.006109814153220256 1.2846154309030416e-12 5.812621876381095e-12 1.2846154309030416e-12 0.0027010912035214003 4.454940534060081e-12 5.812621876381095e-12 4.454940534060081e-12 -0.0006522905159244765" free_energy=-2608.3203143386577 pbc="T T T"
Si       4.51743513       3.72910919       4.94667701      -0.14814783       0.10084715      -0.15133162
Si       2.30019890       2.94517306       4.94667701       0.14814783      -0.10084715      -0.15133162
Si       2.30019890       3.72910919       1.15048873       0.14814783       0.10084715      -0.15133162
Si       4.51743513       2.94517306       1.15048873      -0.14814783      -0.10084715      -0.15133162
Si       4.46985367       6.11160310       4.70389039       0.02561463       0.17378392       0.09356157
Si       2.34778035       0.56267914       4.70389039      -0.02561463      -0.17378392       0.09356157
Si       2.34778035       6.11160310       0.90770211      -0.02561463       0.17378392       0.09356157
Si       4.46985367       0.56267914       0.90770211       0.02561463      -0.17378392       0.09356157
Si       5.75252017       3.87891072       6.96543783       0.03936412      -0.02536174      -0.05051795
Si       1.06511385       2.79537153       6.96543783      -0.03936412       0.02536174      -0.05051795
Si       1.06511385       3.87891072       3.16924955      -0.03936412      -0.02536174      -0.05051795
Si       5.75252017       2.79537153       3.16924955       0.03936412       0.02536174      -0.05051795
Si       1.10096343       6.26014445       2.93966161      -0.03835048       0.02616651       0.10828799
Si       5.71667059       0.41413780       2.93966161       0.03835048      -0.02616651       0.10828799
Si       5.71667059       6.26014445       6.73584989       0.03835048       0.02616651       0.10828799
Si       1.10096343       0.41413780       6.73584989      -0.03835048      -0.02616651       0.10828799
16
Lattice="6.764954844003914 1.4678266391391455e-32 1.1100915868876496e-32 -1.4394880797789483e-32 6.665930294041473 -5.995605600015552e-16 -1.2344867127900775e-32 4.651314946324022e-16 7.617524249405781" Properties=species:S:1:pos:R:3:forces:R:3 unique_starting_index=48 config_type=initial n_minim_iter=4 energy=-2608.330524821986 stress="-0.0007187327715866806 5.529090659152471e-13 1.655225811110096e-12 5.529090659152471e-13 8.184568438477097e-05 -2.5204355488893072e-12 1.655225811110096e-12 -2.5204355488893072e-12 -0.00043997243998902986" free_energy=-2608.330524821986 pbc="T T T"
Si       4.48347880       3.72762167       4.96153681      -0.08477647       0.06989320      -0.14505950
Si       2.28147604       2.93830863       4.96153681       0.08477647      -0.06989320      -0.14505950
Si       2.28147604       3.72762167       1.15277468       0.08477647       0.06989320      -0.14505950
Si       4.48347880       2.93830863       1.15277468      -0.08477647      -0.06989320      -0.14505950
Si       4.43808942       6.10343500       4.72298549       0.03916857       0.19927669       0.04974282
Si       2.32686543       0.56249529       4.72298549      -0.03916857      -0.19927669       0.04974282
Si       2.32686543       6.10343500       0.91422336      -0.03916857       0.19927669       0.04974282
Si       4.43808942       0.56249529       0.91422336       0.03916857      -0.19927669       0.04974282
Si       5.70677394       3.87442245       6.98788821      -0.00137827      -0.02163708      -0.05855164
Si       1.05818091       2.79150785       6.98788821       0.00137827       0.02163708      -0.05855163
Si       1.05818091       3.87442245       3.17912608       0.00137827      -0.02163708      -0.05855164
Si       5.70677394       2.79150785       3.17912608      -0.00137827       0.02163708      -0.05855163
Si       1.09297568       6.25173351       2.94802918       0.04091919       0.02872116       0.15386832
Si       5.67197916       0.41419679       2.94802918      -0.04091919      -0.02872116       0.15386832
Si       5.67197916       6.25173351       6.75679131      -0.04091919       0.02872116       0.15386832
Si       1.09297568       0.41419679       6.75679131       0.04091919      -0.02872116       0.15386832
16
Lattice="6.777625586272508 1.470459698075331e-32 1.1129197872427809e-32 -1.4319964262751718e-32 6.630935920846829 -6.539897047766583e-16 -1.2407682669428316e-32 4.047905984930694e-16 7.660999284032395" Properties=species:S:1:pos:R:3:forces:R:3 unique_starting_index=48 config_type=initial n_minim_iter=5 energy=-2608.34113913501 stress="0.002173142122640015 -4.662155114738202e-13 6.465343781328635e-12 -4.662155114738202e-13 -0.004489217310473108 2.8656238321305156e-12 6.465343781328635e-12 2.8656238321305156e-12 0.003889215913191739" free_energy=-2608.34113913501 pbc="T T T"
Si       4.48939311       3.71424471       4.98204685      -0.02694707      -0.02406703      -0.09327794
Si       2.28823248       2.91669121       4.98204685       0.02694707       0.02406703      -0.09327794
Si       2.28823248       3.71424471       1.15154720       0.02694707      -0.02406703      -0.09327794
Si       4.48939311       2.91669121       1.15154720      -0.02694707       0.02406703      -0.09327794
Si       4.45091926       6.07938266       4.75566645       0.02091892       0.23706529       0.08141749
Si       2.32670633       0.55155326       4.75566645      -0.02091892      -0.23706529       0.08141749
Si       2.32670633       6.07938266       0.92516681      -0.02091892       0.23706529       0.08141749
Si       4.45091926       0.55155326       0.92516681       0.02091892      -0.23706529       0.08141749
Si       5.71599440       3.85353875       7.02455850      -0.04203895      -0.11716761      -0.10634049
Si       1.06163119       2.77739717       7.02455850       0.04203895       0.11716761      -0.10634049
Si       1.06163119       3.85353875       3.19405886       0.04203895      -0.11716761      -0.10634049
Si       5.71599440       2.77739717       3.19405886      -0.04203895       0.11716761      -0.10634049
Si       1.09733918       6.21952874       2.97014643       0.00322887       0.09622108       0.11820094
Si       5.68028641       0.41140719       2.97014643      -0.00322887      -0.09622108       0.11820094
Si       5.68028641       6.21952874       6.80064607      -0.00322887       0.09622108       0.11820094
Si       1.09733918       0.41140719       6.80064607       0.00322887      -0.09622108       0.11820094
16
Lattice="6.753261327684676 1.466308577524991e-32 1.111042364261617e-32 -1.4400424346392004e-32 6.67299518520729 -6.75640259176724e-16 -1.2431341765476312e-32 3.8525893393486883e-16 7.6892276668702" Properties=species:S:1:pos:R:3:forces:R:3 unique_starting_index=48 config_type=initial n_minim_iter=6 energy=-2608.3780145321502 stress="0.0011290760907744224 1.7149866198680792e-12 2.9642971087918686e-13 1.7149866198680792e-12 0.0035152613256722275 -8.329639064209976e-12 2.9642971087918686e-13 -8.329639064209976e-12 0.004408206695325384" free_energy=-2608.3780145321502 pbc="T T T"
Si       4.46441901       3.75870708       4.97236710       0.11654739       0.08855343       0.00848252
Si       2.28884232       2.91428810       4.97236710      -0.11654739      -0.08855343       0.00848252
Si       2.28884232       3.75870708       1.12775326      -0.11654739       0.08855343       0.00848252
Si       4.46441901       2.91428810       1.12775326       0.11654739      -0.08855342       0.00848252
Si       4.45052319       6.14863665       4.79398921      -0.16118849      -0.00868899       0.14154940
Si       2.30273814       0.52435853       4.79398921       0.16118849       0.00868899       0.14154940
Si       2.30273814       6.14863665       0.94937538       0.16118849      -0.00868899       0.14154940
Si       4.45052319       0.52435853       0.94937538      -0.16118849       0.00868899       0.14154940
Si       5.68992959       3.87444936       7.03796256      -0.04815354      -0.07197048      -0.20307614
Si       1.06333174       2.79854582       7.03796256       0.04815354       0.07197048      -0.20307614
Si       1.06333174       3.87444936       3.19334873       0.04815354      -0.07197048      -0.20307614
Si       5.68992959       2.79854582       3.19334873      -0.04815354       0.07197048      -0.20307614
Si       1.10124118       6.26246537       3.00080714      -0.17022379      -0.10651390       0.05304422
Si       5.65202015       0.41052981       3.00080714       0.17022379       0.10651390       0.05304422
Si       5.65202015       6.26246537       6.84542098       0.17022379      -0.10651390       0.05304422
Si       1.10124118       0.41052981       6.84542098      -0.17022379       0.10651390       0.05304422
16
Lattice="6.753964531062579 1.4667724153765796e-32 1.1163754273060561e-32 -1.4333925559851895e-32 6.6437618585291345 -8.281298893384633e-16 -1.2297797631310847e-32 2.0467401719676058e-16 7.643477851982112" Properties=species:S:1:pos:R:3:forces:R:3 unique_starting_index=48 config_type=initial n_minim_iter=7 energy=-2608.4000447801855 stress="-0.0017860975786105925 -3.658879103505192e-12 2.47431420573031e-12 -3.658879103505192e-12 -0.003250055654795729 -1.5195388542905682e-12 2.47431420573031e-12 -1.5195388542905682e-12 -0.004770907227880968" free_energy=-2608.4000447801855 pbc="T T T"
Si       4.46264157       3.75881931       4.92514329       0.03875241       0.01971420       0.02076584
Si       2.29132296       2.88494255       4.92514329      -0.03875241      -0.01971420       0.02076584
Si       2.29132296       3.75881931       1.10340437      -0.03875241       0.01971420       0.02076584
Si       4.46264157       2.88494255       1.10340437       0.03875241      -0.01971420       0.02076584
Si       4.45530905       6.14050646       4.78399658      -0.23183296      -0.07153923       0.09512693
Si       2.29865548       0.50325540       4.78399658       0.23183296       0.07153923       0.09512693
Si       2.29865548       6.14050646       0.96225765       0.23183296      -0.07153923       0.09512693
Si       4.45530905       0.50325540       0.96225765      -0.23183296       0.07153923       0.09512693
Si       5.68602938       3.85275169       6.98154552       0.04450379      -0.10602171      -0.18180917
Si       1.06793515       2.79101017       6.98154552      -0.04450379       0.10602171      -0.18180917
Si       1.06793515       3.85275169       3.15980660      -0.04450378      -0.10602171      -0.18180917
Si       5.68602938       2.79101017       3.15980660       0.04450379       0.10602171      -0.18180917
Si       1.10015109       6.23374720       2.99660292      -0.22228554      -0.13969643       0.06591640
Si       5.65381344       0.41001466       2.99660292       0.22228554       0.13969642       0.06591640
Si       5.65381344       6.23374720       6.81834185       0.22228554      -0.13969642       0.06591640
Si       1.10015109       0.41001466       6.81834185      -0.22228554       0.13969642       0.06591640
16
Lattice="6.767793557711912 1.470434149167946e-32 1.1210989583075863e-32 -1.4361488645761829e-32 6.659489007501437 -8.033554834300166e-16 -1.2337371076487318e-32 2.3849661077409856e-16 7.684136209682704" Properties=species:S:1:pos:R:3:forces:R:3 unique_starting_index=48 config_type=initial n_minim_iter=8 energy=-2608.442641430913 stress="0.0015934015025370594 -2.9193588416596813e-13 -1.3505774456487941e-12 -2.9193588416596813e-13 0.0005483139569956887 -1.3423013377152962e-12 -1.3505774456487941e-12 -1.3423013377152962e-12 0.00211267890383282" free_energy=-2608.442641430913 pbc="T T T"
Si       4.47098188       3.80051362       4.91896572      -0.08573432      -0.12312525      -0.03843872
Si       2.29681168       2.85897539       4.91896572       0.08573432       0.12312525      -0.03843872
Si       2.29681168       3.80051362       1.07689761       0.08573432      -0.12312525      -0.03843872
Si       4.47098188       2.85897539       1.07689761      -0.08573432       0.12312525      -0.03843872
Si       4.45994635       6.18721340       4.85094357       0.05593912      -0.15866218      -0.02230371
Si       2.30784721       0.47227561       4.85094357      -0.05593912       0.15866218      -0.02230370
Si       2.30784721       6.18721340       1.00887547      -0.05593912      -0.15866218      -0.02230371
Si       4.45994635       0.47227561       1.00887547       0.05593912       0.15866218      -0.02230370
Si       5.69025283       3.84624413       6.97852258       0.09099239      -0.15205092      -0.06333936
Si       1.07754072       2.81324488       6.97852258      -0.09099239       0.15205092      -0.06333936
Si       1.07754072       3.84624413       3.13645447      -0.09099238      -0.15205092      -0.06333936
Si       5.69025283       2.81324488       3.13645447       0.09099239       0.15205092      -0.06333936
Si       1.08783854       6.23731411       3.04358009       0.06715299      -0.23151741       0.12408178
Si       5.67995502       0.42217490       3.04358009      -0.06715299       0.23151741       0.12408178
Si       5.67995502       6.23731411       6.88564819      -0.06715299      -0.23151741       0.12408178
Si       1.08783854       0.42217490       6.88564819       0.06715299       0.23151741       0.12408178
16
Lattice="6.769400232277268 1.4717729237490468e-32 1.1258488416021578e-32 -1.437253953407616e-32 6.66901386310128 -7.619482149416107e-16 -1.2202059798938831e-32 2.8002955407973806e-16 7.6327575268813845" Properties=species:S:1:pos:R:3:forces:R:3 unique_starting_index=48 config_type=initial n_minim_iter=9 energy=-2608.4617699441374 stress="-0.002520987132356454 1.2317662034976241e-12 -2.2030278579390773e-12 1.2317662034976241e-12 -0.0010593177188947653 7.951265353567982e-13 -2.2030278579390773e-12 7.951265353567982e-13 -0.0018670735959881255" free_energy=-2608.4617699441374 pbc="T T T"
Si       4.47089737       3.79632463       4.89056804      -0.07322624      -0.02298987      -0.14384704
Si       2.29850287       2.87268923       4.89056804       0.07322624       0.02298987      -0.14384704
Si       2.29850287       3.79632463       1.07418928       0.07322624      -0.02298987      -0.14384704
Si       4.47089737       2.87268923       1.07418928      -0.07322624       0.02298987      -0.14384704
Si       4.44869397       6.18503416       4.81489672       0.23080487      -0.16469797       0.01995572
Si       2.32070626       0.48397971       4.81489672      -0.23080487       0.16469797       0.01995572
Si       2.32070626       6.18503416       0.99851796      -0.23080487      -0.16469797       0.01995572
Si       4.44869397       0.48397971       0.99851796       0.23080487       0.16469797       0.01995572
Si       5.69824763       3.84199801       6.92380317       0.00189586      -0.04866249       0.04383361
Si       1.07115260       2.82701585       6.92380317      -0.00189586       0.04866249       0.04383361
Si       1.07115260       3.84199801       3.10742441      -0.00189586      -0.04866249       0.04383361
Si       5.69824763       2.82701585       3.10742441       0.00189586       0.04866249       0.04383361
Si       1.08047986       6.23223307       3.03040807       0.15574959      -0.19673321       0.08005771
Si       5.68892037       0.43678079       3.03040807      -0.15574959       0.19673321       0.08005771
Si       5.68892037       6.23223307       6.84678684      -0.15574959      -0.19673321       0.08005771
Si       1.08047986       0.43678079       6.84678684       0.15574959       0.19673321       0.08005771
16
Lattice="6.769281114799154 1.4745482149720412e-32 1.12758507815092e-32 -1.4438801411679565e-32 6.712008371995894 -6.995743334792229e-16 -1.2164954055789756e-32 3.519743618895152e-16 7.622176517970342" Properties=species:S:1:pos:R:3:forces:R:3 unique_starting_index=48 config_type=initial n_minim_iter=10 energy=-2608.4978023771364 stress="0.0005325149714043864 -4.157469491788008e-12 -2.1087383275662075e-12 -4.157469491788008e-12 0.00330509799277242 2.634753732493659e-12 -2.1087383275662075e-12 2.634753732493659e-12 -0.000607677976924112" free_energy=-2608.4978023771364 pbc="T T T"
Si       4.45984334       3.84430375       4.84126805       0.02021437      -0.01944314      -0.10311519
Si       2.30943778       2.86770462       4.84126805      -0.02021437       0.01944314      -0.10311519
Si       2.30943778       3.84430375       1.03017979      -0.02021437      -0.01944314      -0.10311519
Si       4.45984334       2.86770462       1.03017979       0.02021437       0.01944314      -0.10311519
Si       4.46134426       6.23542473       4.84938659      -0.00195505      -0.05168173      -0.08924808
Si       2.30793686       0.47658364       4.84938659       0.00195505       0.05168173      -0.08924808
Si       2.30793686       6.23542473       1.03829833       0.00195505      -0.05168173      -0.08924808
Si       4.46134426       0.47658364       1.03829833      -0.00195505       0.05168173      -0.08924808
Si       5.69779287       3.83758246       6.87270331      -0.11126870       0.04547000       0.11383391
Si       1.07148824       2.87442591       6.87270331       0.11126870      -0.04547000       0.11383391
Si       1.07148824       3.83758246       3.06161505       0.11126870       0.04547000       0.11383391
Si       5.69779287       2.87442591       3.06161505      -0.11126870      -0.04547000       0.11383391
Si       1.07937342       6.23304865       3.06906458      -0.05545148      -0.06500043       0.07852936
Si       5.68990769       0.47895973       3.06906458       0.05545148       0.06500043       0.07852936
Si       5.68990769       6.23304865       6.88015283       0.05545148      -0.06500043       0.07852936
Si       1.07937342       0.47895973       6.88015283      -0.05545148       0.06500043       0.07852936
16
Lattice="6.767075229346881 1.4753365965649964e-32 1.1279010846862818e-32 -1.4384917525525391e-32 6.692897247855678 -7.157806069568086e-16 -1.2175184109584552e-32 3.336455742368432e-16 7.6327552558270195" Properties=species:S:1:pos:R:3:forces:R:3 unique_starting_index=48 config_type=initial n_minim_iter=11 energy=-2608.50303310785 stress="0.00040214428284426597 2.898737917281738e-12 -2.5890260010013947e-12 2.898737917281738e-12 -3.325641682643082e-05 -5.288223384173357e-12 -2.5890260010013947e-12 -5.288223384173357e-12 -6.23395731011445e-05" free_energy=-2608.50303310785 pbc="T T T"
Si       4.45928473       3.82691737       4.85288627       0.04477251      -0.01351414      -0.06631466
Si       2.30779050       2.86597988       4.85288627      -0.04477251       0.01351414      -0.06631466
Si       2.30779050       3.82691737       1.03650864      -0.04477251      -0.01351414      -0.06631466
Si       4.45928473       2.86597988       1.03650864       0.04477251       0.01351414      -0.06631466
Si       4.46019270       6.21193219       4.84750395      -0.01490142      -0.00938637      -0.04444272
Si       2.30688253       0.48096506       4.84750395       0.01490142       0.00938637      -0.04444272
Si       2.30688253       6.21193219       1.03112632       0.01490142      -0.00938637      -0.04444272
Si       4.46019270       0.48096506       1.03112632      -0.01490142       0.00938637      -0.04444273
Si       5.69548035       3.83013545       6.89093083      -0.10176875       0.01340809       0.05809646
Si       1.07159488       2.86276180       6.89093083       0.10176875      -0.01340809       0.05809646
Si       1.07159488       3.83013545       3.07455321       0.10176875       0.01340809       0.05809646
Si       5.69548035       2.86276180       3.07455321      -0.10176875      -0.01340809       0.05809646
Si       1.08054460       6.21762627       3.06834910      -0.05555945      -0.02625427       0.05266093
Si       5.68653063       0.47527098       3.06834910       0.05555945       0.02625427       0.05266093
Si       5.68653063       6.21762627       6.88472673       0.05555945      -0.02625427       0.05266093
Si       1.08054460       0.47527098       6.88472673      -0.05555945       0.02625427       0.05266093
16
Lattice="6.756781977157325 1.475198713041848e-32 1.1281350258863135e-32 -1.435424111098894e-32 6.688070589717505 -7.294729490608619e-16 -1.216785053599758e-32 3.1873976954510466e-16 7.640806485903459" Properties=species:S:1:pos:R:3:forces:R:3 unique_starting_index=48 config_type=initial n_minim_iter=12 energy=-2608.505948626444 stress="-0.0003551534293944772 2.831499196881959e-12 1.562661030094272e-12 2.831499196881959e-12 -0.0015511619507913822 -3.035682500974225e-13 1.562661030094272e-12 -3.035682500974225e-13 0.00054567501488983" free_energy=-2608.505948626444 pbc="T T T"
Si       4.45313968       3.82401287       4.85179315       0.03779146       0.00842285       0.00502431
Si       2.30364230       2.86405772       4.85179315      -0.03779146      -0.00842285       0.00502431
Si       2.30364230       3.82401287       1.03138991      -0.03779146       0.00842285       0.00502431
Si       4.45313968       2.86405772       1.03138991       0.03779146      -0.00842285       0.00502431
Si       4.45393221       6.20676333       4.85260006       0.00493835       0.00208799      -0.00417489
Si       2.30284977       0.48130726       4.85260006      -0.00493835      -0.00208799      -0.00417489
Si       2.30284977       6.20676333       1.03219682      -0.00493835       0.00208799      -0.00417489
Si       4.45393221       0.48130726       1.03219682       0.00493835      -0.00208799      -0.00417489
Si       5.68273045       3.82544972       6.89825960      -0.04299242       0.00159246      -0.00122345
Si       1.07405153       2.86262087       6.89825960       0.04299242      -0.00159246      -0.00122345
Si       1.07405153       3.82544972       3.07785636       0.04299242       0.00159246      -0.00122345
Si       5.68273045       2.86262087       3.07785636      -0.04299242      -0.00159246      -0.00122345
Si       1.07692264       6.20812810       3.07775487      -0.01107852      -0.00014791       0.00037403
Si       5.67985934       0.47994249       3.07775487       0.01107852       0.00014791       0.00037403
Si       5.67985934       6.20812810       6.89815811       0.01107852      -0.00014791       0.00037403
Si       1.07692264       0.47994249       6.89815811      -0.01107852       0.00014791       0.00037403
16
Lattice="6.756626267126002 1.476761395655926e-32 1.1295246177819071e-32 -1.435675538258058e-32 6.696329745378131 -7.430188165108458e-16 -1.2142833835792268e-32 3.0304655650384424e-16 7.635231249538801" Properties=species:S:1:pos:R:3:forces:R:3 unique_starting_index=48 config_type=initial n_minim_iter=13 energy=-2608.506679114564 stress="-6.221088989073601e-05 -1.3851525494719226e-12 -9.876991018084684e-14 -1.3851525494719226e-12 -0.00047096230933900293 4.325986185954292e-12 -9.876991018084684e-14 4.325986185954292e-12 0.00015621334418613743" free_energy=-2608.506679114564 pbc="T T T"
Si       4.45395049       3.82868247       4.84819699       0.00736897       0.01519270       0.00595483
Si       2.30267578       2.86764728       4.84819699      -0.00736897      -0.01519270       0.00595483
Si       2.30267578       3.82868247       1.03058137      -0.00736897       0.01519270       0.00595483
Si       4.45395049       2.86764728       1.03058137       0.00736897      -0.01519270       0.00595483
Si       4.45359658       6.21312227       4.84866974       0.00083771       0.00312291      -0.00924854
Si       2.30302969       0.48320748       4.84866974      -0.00083771      -0.00312291      -0.00924854
Si       2.30302969       6.21312227       1.03105412      -0.00083772       0.00312291      -0.00924854
Si       4.45359658       0.48320748       1.03105412       0.00083771      -0.00312291      -0.00924854
Si       5.68158785       3.83024654       6.89357071      -0.01007571       0.00832429      -0.00246633
Si       1.07503841       2.86608321       6.89357071       0.01007571      -0.00832429      -0.00246632
Si       1.07503841       3.83024654       3.07595509       0.01007571       0.00832429      -0.00246633
Si       5.68158785       2.86608321       3.07595509      -0.01007571      -0.00832430      -0.00246632
Si       1.07611755       6.21471471       3.07561012      -0.00531559      -0.00309850       0.00576003
Si       5.68050872       0.48161503       3.07561012       0.00531559       0.00309850       0.00576003
Si       5.68050872       6.21471471       6.89322574       0.00531559      -0.00309850       0.00576003
Si       1.07611755       0.48161503       6.89322574      -0.00531559       0.00309850       0.00576003
16