20
Lattice="7.74673 -6.245571004327831e-16 3.5962937221302907e-16 -1.7450791890768926 8.09669640583434 2.1742434987857365e-15 -3.44437923118789 -3.522162647338005 6.690313798736077" Properties=species:S:1:pos:R:3:forces:R:3 unique_starting_index=76 config_type=initial n_minim_iter=1 energy=-3186.48855563531 stress="-0.3474836625899308 -0.2882943341832255 -0.4033433980182872 -0.028457849267017714 -0.08273973726063609 0.0327807895717751" pbc="T T T"
Si       3.14431619      -0.34628632       4.38711507       0.56925016      -7.25193645      22.47028570
Si      -3.34291254      -1.12815964       6.42230250     -11.05767140     -11.64806572      -4.68717375
Si       3.25240909       0.62684726       1.34089276       4.28131565     -18.17501752     -24.27506777
Si      -0.90991624       2.55928166       1.94827625      -4.65135895       0.11023299      -1.59515448
Si       6.15049849       4.28719902       0.02383090      -0.60386958      -1.08172470       2.04280820
Si       2.56828559       2.05642121       4.89786700       0.15304791       0.26790887      -0.92051047
Si      -3.62483014       5.66204737       4.52100297      -3.18672834      -6.76613045      -9.59171040
Si      -1.95183645       0.69182233       4.49812878      -0.46062510      -2.37108815      -0.74032942
Si       4.55194703      -0.46350021       2.32016737      20.89083820      -9.65197175      -4.60389491
Si      -1.44843121      -1.47449218       5.91748956      -7.99799888       7.55502196      -6.77355038
Si       3.16636210       0.12871788       2.85905342     -20.70243925       6.42285436       3.84716652
Si       2.06780291       3.92424168       1.19898786      20.84782519      -0.37214395      16.58173167
Si       0.82226791       2.48462466       2.98856250       5.19470213       0.46487834       1.54738305
Si      -2.18020555       2.73186676       5.41345470     -21.36802974      -7.56421489      -2.74002616
Si       0.79546760       3.91115294       0.22876993     -15.37015792      11.33538049     -11.95660336
Si      -0.08786152       4.95581517       2.33824661      -0.35055869      -0.10183343       0.33151037
Si       3.14961282       2.05111185       0.33594876      16.41874093       8.49348398       3.32354026
Si       3.02537698       1.96759193       2.19186321      -4.67132435      19.62724647      15.85502293
Si      -0.68986758       3.27644350       5.62029445      33.82033751      -8.47754950      -2.30080768
Si      -1.61603396       4.52751019       5.99115192     -11.75529549      19.18466906       4.18538009
20
Lattice="7.86057265631201 -0.010783243364130236 0.02731779570703758 -1.7819945195645823 8.19768678495121 0.003636993493945313 -3.4665011224194457 -3.552153393625527 6.788156643534719" Properties=species:S:1:pos:R:3:forces:R:3 unique_starting_index=76 config_type=initial n_minim_iter=2 energy=-3193.5725409754014 stress="-0.29580219448582634 -0.2423214442579713 -0.3403736638350454 -0.021432332876191274 -0.07304664556176757 0.02791747582365683" pbc="T T T"
Si       3.20654301      -0.35030482       4.47498625       0.69545328      -6.35255974      19.80371419
Si      -3.36894286      -1.13065147       6.51833929     -10.58641511     -10.83788640      -4.56428305
Si       3.30448943       0.62972891       1.37354824       3.90965912     -16.67251670     -20.51723369
Si      -0.92045265       2.59406996       1.98126847      -3.70675044       0.00661170      -0.97923084
Si       6.23493957       4.33074552       0.05131839      -0.49049106      -0.85285562       1.72472328
Si       2.62045237       2.08382873       4.99295598       0.17643552       0.02131903      -0.93708136
Si      -3.67036362       5.74079865       4.59129328      -2.77538339      -6.15039680      -8.54847684
Si      -1.96566744       0.70816006       4.56881965      -0.40825087      -2.16832816      -0.53642041
Si       4.62978695      -0.47365339       2.37481733      18.19585482      -8.41224170      -4.05004955
Si      -1.44761205      -1.48250442       6.01095888      -6.70010455       6.66859020      -6.12095631
Si       3.22069630       0.12998798       2.91958261     -18.11290520       5.72002323       3.14444536
Si       2.09907741       3.97054453       1.23319349      17.86096661       0.06869989      14.51109958
Si       0.84195942       2.51738586       3.04566048       4.56619529       0.43707265       1.30996875
Si      -2.19912591       2.77393976       5.50122645     -18.52568404      -6.34783568      -2.18961752
Si       0.80095456       3.95908089       0.23899102     -12.72083313      10.67939987     -10.31727566
Si      -0.08784099       5.01908199       2.38389249      -0.18897638      -0.16669475       0.10255442
Si       3.19589377       2.07295995       0.35561744      14.17648097       7.98906563       2.66226057
Si       3.07435597       1.99197188       2.24395403      -4.30572178      17.24018821      13.65643227
Si      -0.68131499       3.32322118       5.71757635      29.22747108      -7.29555382      -1.68208326
Si      -1.62615170       4.59406181       6.09366062     -10.28700074      16.42589894       3.52751007
20
Lattice="8.785378545840514 -0.10142441513130802 0.272663581044252 -2.0850583363517754 8.99696138382432 0.02134619121596087 -3.62459220809813 -3.790362867945585 7.5755405363543415" Properties=species:S:1:pos:R:3:forces:R:3 unique_starting_index=76 config_type=initial n_minim_iter=3 energy=-3224.556749411143 stress="-0.05649615029047189 -0.043919800733488286 -0.06730835247929015 -0.018264181490377823 -0.008099065761261046 0.009652693839194771" pbc="T T T"
Si       3.72643003      -0.38680924       5.20026192       0.93890463      -1.68856304       8.70291505
Si      -3.56197272      -1.15256946       7.28817116      -4.95675815      -4.10528754      -2.23432478
Si       3.73124575       0.64763491       1.64727484       1.56518395      -6.27543283      -7.36136014
Si      -1.00105594       2.86851355       2.24467715      -1.51066515      -0.04210467       0.46601491
Si       6.91936711       4.67059888       0.28978928       0.26993030      -0.21352404       0.42473329
Si       3.05825305       2.29575036       5.77141629       0.81938440      -0.75368045      -0.46176815
Si      -4.02916144       6.36260607       5.14588580      -0.43273380      -2.04517106      -2.70222959
Si      -2.06471001       0.83598988       5.13672302      -1.15457969      -0.02805364      -0.37889168
Si       5.27019621      -0.55903606       2.83316726       7.27251149      -3.89514494      -2.08523008
Si      -1.42286214      -1.54757277       6.76637357      -2.46034612       1.70844283      -2.84200807
Si       3.66973605       0.13691887       3.42028200      -7.09563684       2.52934803       2.71144117
Si       2.35633130       4.33461861       1.51586806       6.09382955      -0.02959476       5.31289052
Si       1.01029240       2.77408204       3.51024368       1.50538872       0.55938231       0.14986177
Si      -2.33836527       3.10511443       6.20486236      -6.21127203      -4.14770607      -1.51447153
Si       0.84418224       4.33846815       0.32029108      -2.97730745       5.08648676      -3.92866366
Si      -0.08244454       5.51774992       2.75028515       0.05663589      -0.76374282      -0.28383233
Si       3.57265016       2.24400549       0.52380421       4.21217178       4.72913483       1.70934883
Si       3.47790953       2.18251109       2.67556002      -2.70519861       6.92018665       4.70044239
Si      -0.59485084       3.68962895       6.50431951      11.55320504      -3.40474358      -1.19938861
Si      -1.69264751       5.11858970       6.91789471      -4.78264790       5.85976802       0.81452067
20
Lattice="9.150946197715644 -0.16498060639586534 0.33745089417699586 -2.2338359091944135 9.301002471879293 0.13339400715349292 -3.70228317316322 -3.7834931054714556 7.876781205005399" Properties=species:S:1:pos:R:3:forces:R:3 unique_starting_index=76 config_type=initial n_minim_iter=4 energy=-3228.6711978710296 stress="-0.013550315784262202 -0.009712678354875355 -0.023083781163450327 -0.007483541903501109 -0.004033455075416249 0.0026092896424422976" pbc="T T T"
Si       3.91708620      -0.35844506       5.48911777       0.62008066      -0.95024369       6.16530920
Si      -3.66507029      -1.07143296       7.60734750      -2.58237555      -2.59191581      -0.73337949
Si       3.89290091       0.65363641       1.74779225       0.71570824      -4.79320948      -5.99163641
Si      -1.05121202       2.99807332       2.38976847      -0.55061575      -0.18946317       0.36305634
Si       7.17511470       4.77361009       0.41045713       0.46855760      -0.22145935      -0.28785176
Si       3.20481790       2.42367525       6.10625279       0.72553555      -0.90448796      -0.30597411
Si      -4.20989169       6.66217814       5.45918216      -0.12745159      -0.90053639      -1.23557219
Si      -2.12674183       0.94702604       5.38934221      -1.23980793       0.80020571      -0.12780994
Si       5.52051419      -0.58342033       2.99449888       4.69096084      -2.28830345      -0.96609122
Si      -1.43431058      -1.49317692       7.06666804      -1.45186679       0.62497278      -1.45421384
Si       3.83013349       0.16488467       3.61731090      -4.69137837       0.37180828       2.86322893
Si       2.44288331       4.47684566       1.67396679       3.61379971      -0.55859514       3.12461566
Si       1.05628962       2.90376107       3.72857987       0.78222328       0.61209285      -0.19457402
Si      -2.42899033       3.29933686       6.53724396      -3.61666134      -3.09829184      -1.00427547
Si       0.84542751       4.48332414       0.39419037      -1.27255685       3.23198115      -2.64576782
Si      -0.10760796       5.73121970       2.96117370       0.35033005      -0.33720047      -0.01645127
Si       3.71449422       2.30397013       0.60546248       1.69715430       5.13677976      -0.36050721
Si       3.61856593       2.27390354       2.86662049      -2.14523635       4.47405658       3.14223083
Si      -0.58762656       3.89426184       6.87247666       7.61604735      -2.22913814      -1.27475392
Si      -1.76425294       5.39727827       7.32156040      -3.60244705       3.81094776       0.94041774
20
Lattice="9.311154755281818 -0.19514697964961422 0.3923751940267825 -2.3014547090779085 9.425037753127834 0.21626218177521522 -3.712365795648905 -3.7423835644705448 8.054398532024038" Properties=species:S:1:pos:R:3:forces:R:3 unique_starting_index=76 config_type=initial n_minim_iter=5 energy=-3230.213824255622 stress="-0.0019365239691382403 0.0008726030446245952 -0.014549520512231079 -0.00203293123373573 -0.003946506500037978 0.0018152127972064246" pbc="T T T"
Si       4.01786366      -0.32539217       5.68525553       0.54960179      -0.62247722       5.39975382
Si      -3.69126733      -1.00562870       7.80056383      -1.83953491      -2.05119380      -0.28564218
Si       3.96831937       0.65251400       1.80844386       0.86702965      -4.69961342      -5.64947647
Si      -1.06764781       3.06125027       2.48513803      -0.16254357      -0.31256222      -0.03608083
Si       7.28699076       4.81140472       0.50469467       0.45265174      -0.38608363      -0.50043025
Si       3.28658932       2.49871079       6.32600746       0.41863907      -0.43532593       0.09764516
Si      -4.27547493       6.80885294       5.66044411      -0.28357307      -0.40797073      -0.72183786
Si      -2.14129361       1.01957231       5.54674891      -1.00241514       0.83325443      -0.17831745
Si       5.64576151      -0.58710942       3.10352245       3.83066474      -1.74662343      -0.50148648
Si      -1.42103778      -1.43776628       7.24979252      -1.12696291       0.20955271      -1.00376490
Si       3.90313628       0.19011547       3.75253371      -4.10430574      -0.77393396       2.21408530
Si       2.48970409       4.53859004       1.78879501       2.38127921      -0.49049951       2.21675195
Si       1.08689290       2.97308977       3.87221390       0.44565213       0.50914581      -0.32363816
Si      -2.45622665       3.40360462       6.74645275      -2.64015728      -2.11749091      -0.47139294
Si       0.84355554       4.54731857       0.44646681      -0.58376094       2.28346354      -2.12251273
Si      -0.11120033       5.82994883       3.10389409       0.81026267       0.13543434       0.33529512
Si       3.77827106       2.33785082       0.66468696       0.61877652       5.45497902      -1.15601428
Si       3.68350309       2.32857930       3.00088556      -1.71261671       3.51513909       2.16644125
Si      -0.55401409       4.00377945       7.10845244       5.76314713      -1.68206752      -1.00756274
Si      -1.78281908       5.54983240       7.58410420      -2.68183434       2.78487333       1.52818467
20
Lattice="9.357032568537264 -0.23061516166961024 0.4853461418345116 -2.348859939289265 9.416942273101796 0.24390120887595043 -3.636345470462658 -3.6794726667360482 8.277151478143606" Properties=species:S:1:pos:R:3:forces:R:3 unique_starting_index=76 config_type=initial n_minim_iter=6 energy=-3231.757485589561 stress="0.002061657995550041 0.005171632760853266 -0.009516183360864698 0.0007947611979751235 -0.002510842630599921 0.003128743335480591" pbc="T T T"
Si       4.09627572      -0.31359298       5.93716676       0.52911668      -0.30821293       4.54697974
Si      -3.63704416      -0.95776752       8.02379486      -1.64637062      -2.01792257      -0.42512207
Si       4.00289214       0.62266854       1.87683805       1.17694443      -4.74414470      -4.37279293
Si      -1.06209934       3.07076922       2.57221471      -0.05814137      -0.36926953      -0.18881912
Si       7.30601819       4.77302561       0.60287466       0.09050577      -0.56488589      -0.32851313
Si       3.35319484       2.51036116       6.57844364       0.21142911       0.24863185       0.18778701
Si      -4.27027805       6.83940807       5.83901990      -0.52909769      -0.22122915      -0.48476553
Si      -2.10686668       1.05776598       5.71803762      -0.73991967       0.70839223      -0.01921899
Si       5.72039482      -0.60150065       3.25287274       3.23124052      -1.44350293      -0.59408014
Si      -1.35771737      -1.39194252       7.46967870      -0.71344053       0.04570825      -0.57553971
Si       3.93798242       0.19097288       3.92249940      -3.80914596      -1.55840039       1.62618746
Si       2.51078146       4.52669090       1.90198992       1.66567990      -0.42672254       1.40452340
Si       1.11808844       2.98423211       4.02327976       0.13389006       0.42271141      -0.26202899
Si      -2.42865242       3.43230603       6.96246548      -1.88077465      -1.42980734      -0.13686430
Si       0.82861286       4.54622306       0.47794946       0.06734079       1.94508923      -1.62562048
Si      -0.10254608       5.83504384       3.23433122       1.16403049       0.69168832       0.48867181
Si       3.79289125       2.34359847       0.72583750      -0.20845339       5.49747268      -1.45659883
Si       3.71128304       2.33980903       3.15491631      -1.34427473       2.92663767       1.00066796
Si      -0.47923861       4.02541094       7.35675656       4.28900066      -1.30695848      -0.64198842
Si      -1.75348060       5.59690632       7.85486095      -1.62955982       1.90472482       1.85713526
20
Lattice="9.288961991893762 -0.33997659318572293 0.5907024669783153 -2.4478278603094052 9.251507034320966 0.18661145469119395 -3.4653679734432656 -3.57589267964414 8.585942137788646" Properties=species:S:1:pos:R:3:forces:R:3 unique_starting_index=76 config_type=initial n_minim_iter=7 energy=-3233.5432211835528 stress="0.0016610863074685502 0.003316681282576425 -0.0019086937658048017 5.857260472584211e-05 -0.0015065258717010344 0.003572907487018913" pbc="T T T"
Si       4.14260827      -0.36816348       6.25110601       0.65061987      -0.03201984       3.44981764
Si      -3.51616231      -0.92320157       8.30293478      -1.61757533      -2.51166847      -0.89300227
Si       3.99068629       0.52180235       1.94166847       1.45166304      -4.32807162      -2.24932152
Si      -1.06410952       3.01293995       2.64644579      -0.15229423      -0.41780869      -0.20422447
Si       7.19244462       4.58132478       0.66672679      -0.43866838      -0.63477803       0.13575659
Si       3.36991025       2.40732578       6.85658423       0.03598091       1.02657032      -0.14637042
Si      -4.26135078       6.73778935       5.99066735      -0.85969030      -0.22913677      -0.57433272
Si      -2.04437202       1.05579122       5.91719233      -0.55613034       0.43058236       0.36629484
Si       5.74342081      -0.67647702       3.43198653       2.39649248      -1.27298494      -0.75764203
Si      -1.25001056      -1.36099554       7.75057196      -0.42260192       0.06569201      -0.21856637
Si       3.92047807       0.12350575       4.12177808      -3.08944083      -1.40834543       1.26506034
Si       2.46809400       4.39670036       1.99188333       1.33095630      -0.61677949       0.70242822
Si       1.11690103       2.90444181       4.17454623      -0.15019715       0.39830724      -0.23527564
Si      -2.38790633       3.36853266       7.19264268      -1.66364610      -1.41381835      -0.29001230
Si       0.76703971       4.45467929       0.46828561       0.81172015       2.23876498      -0.93764906
Si      -0.13076089       5.71480941       3.33791007       1.19774966       0.97275286       0.14993204
Si       3.73461440       2.28606273       0.76676027      -0.69001200       4.80464652      -1.04980922
Si       3.67587975       2.26243262       3.31062671      -1.16857376       2.58132876      -0.24991242
Si      -0.41023220       3.92294708       7.61840455       3.49026332      -1.02631890      -0.03020964
Si      -1.73363098       5.50309185       8.13627605      -0.55661538       1.37308548       1.76703841
20
Lattice="9.200402309402664 -0.5528639000864823 0.6909205867865047 -2.6503830331016274 9.10205509066409 0.1481839013057148 -3.242648513569575 -3.4084612335743385 8.673628308126919" Properties=species:S:1:pos:R:3:forces:R:3 unique_starting_index=76 config_type=initial n_minim_iter=8 energy=-3235.2669046176707 stress="0.00356372453396015 0.0003787288394593337 0.005011514070495917 -0.002325766004916221 -0.004494456079137916 -0.00195070142496068" pbc="T T T"
Si       4.18947500      -0.45329260       6.43569137       0.64781006       0.14031452       2.79860977
Si      -3.38235534      -0.84194825       8.36134030      -1.62588135      -2.72891213      -1.02816089
Si       3.97429538       0.36296105       1.96762799       1.48347082      -2.75220553      -1.24296827
Si      -1.10054196       2.96725563       2.66198424      -0.12382919      -0.25711597      -0.15564325
Si       7.00001042       4.30114906       0.73925586      -0.39093095      -0.50589853       0.21518937
Si       3.34639185       2.28857207       6.97610522      -0.00733282       1.13145851      -0.34213259
Si      -4.32888605       6.68903813       6.00545419      -0.82200492       0.04006547      -0.64396729
Si      -1.99003897       1.08986751       5.98007166      -0.54519636       0.20608783       0.57018232
Si       5.76548381      -0.81406070       3.52681665       1.13972560      -1.11074941      -0.64623239
Si      -1.12271855      -1.29534959       7.84046099      -0.36820646       0.02561660      -0.28345896
Si       3.88267097       0.01833015       4.22975978      -1.68715572      -0.55472015       0.99343487
Si       2.37173005       4.23227112       2.04882361       1.03134916      -0.71562745       0.39808476
Si       1.07468228       2.81953823       4.23251228      -0.38823529       0.59840382      -0.48696371
Si      -2.38722914       3.33913705       7.25041605      -1.88835783      -1.66662382      -0.42219582
Si       0.65816947       4.36067352       0.46178932       1.07545440       2.43042503      -0.43306606
Si      -0.22104314       5.60129885       3.37673149       0.88973512       0.06699410      -0.18533886
Si       3.62742276       2.20157179       0.79491076      -0.61494829       3.35157897      -0.22040871
Si       3.59579855       2.15693338       3.38304930      -0.80131489       1.88725436      -0.77246625
Si      -0.37340887       3.83280905       7.71491761       2.59488530      -0.42039184       0.61688513
Si      -1.76830036       5.44310563       8.24824533       0.40096359       0.83404560       1.27061684
20
Lattice="9.047647442343298 -0.4519048864716936 0.8949963138941305 -2.510452530527378 9.060733973811546 0.21182812193956335 -3.0443865013461906 -3.3546925513045913 8.325683830722895" Properties=species:S:1:pos:R:3:forces:R:3 unique_starting_index=76 config_type=initial n_minim_iter=9 energy=-3236.3156277249 stress="-0.00022730149110954272 0.0050934265840925285 0.0036762456227674846 -0.0036741816855444965 2.5007965781283884e-05 0.002716952736973539" pbc="T T T"
Si       4.25265098      -0.34735037       6.40851415       0.67575369       0.53309037       3.11516097
Si      -3.17713270      -0.81905585       8.03792902      -1.92745637      -1.62660691      -0.49717585
Si       3.96271683       0.39558611       2.00806019       1.29537979      -2.55265876      -1.67980304
Si      -0.99915570       2.97358789       2.60909229      -0.22480505      -0.03697844       0.21099809
Si       6.93218764       4.36806610       0.96007887      -0.09432673      -0.50745910      -0.05358508
Si       3.44973097       2.39294451       6.91500952       0.41887287       0.64457980      -0.26709555
Si      -4.07417417       6.69009618       5.83584665      -0.54890577      -0.18552315      -0.45477879
Si      -1.82785865       1.12616419       5.80304165      -0.36813723       0.17452159       0.34897185
Si       5.73849190      -0.73207495       3.56358086       1.75901260      -1.34942622      -0.86896211
Si      -0.96148610      -1.23107316       7.59308229       0.43845916      -0.22361916      -0.42824342
Si       3.88648213       0.09491362       4.23009689      -2.40183033      -0.32563953       0.89488019
Si       2.42492720       4.26142062       2.12500628       1.02321524      -0.69491221       0.32293090
Si       1.16427491       2.87010198       4.18839372      -0.32888767       0.61446453      -0.38675028
Si      -2.18281209       3.36419048       7.04874056      -1.73107329      -1.60087011      -0.10451008
Si       0.70645804       4.38320272       0.52867457       0.68257355       1.98352121      -0.83985166
Si      -0.08511251       5.62039067       3.36810021       0.68862747       0.08639681      -0.11939852
Si       3.59225668       2.27069681       0.89621558      -0.59920436       3.37820063      -0.07527022
Si       3.61173519       2.23740432       3.40995648      -0.78693417       1.58046723      -0.54342605
Si      -0.14649756       3.88865556       7.58057204       2.20935078      -0.90162480       0.15224832
Si      -1.51120761       5.50012688       8.09457587      -0.17968417       1.01007625       1.27366034
20
Lattice="9.057749146490682 -0.5175746845578447 0.884700624981301 -2.581364604630626 8.94426954202981 0.3156156549848071 -3.0279119088005055 -3.1845521248062676 8.189434662863633" Properties=species:S:1:pos:R:3:forces:R:3 unique_starting_index=76 config_type=initial n_minim_iter=10 energy=-3236.9165218942835 stress="0.0029908725989204335 0.0026974927910967993 0.0021478280127427037 -0.003143893935427463 -0.001869663016464746 -0.0012432106464859817" pbc="T T T"
Si       4.26138537      -0.30716116       6.35921595       0.83086816       0.81945399       2.92610257
Si      -3.19105829      -0.69822864       7.92785609      -1.86232388      -1.51087935      -0.42185486
Si       3.96864582       0.35974719       1.97939327       1.39323627      -2.39208909      -1.81835511
Si      -1.02562211       2.96446656       2.61552015      -0.21915867       0.00224465       0.21519782
Si       6.90363430       4.24436534       1.00426280      -0.01394078      -0.56300700      -0.25455592
Si       3.43082980       2.40187258       6.86566747       0.47146030       0.13172450      -0.07391112
Si      -4.13653212       6.68478283       5.84234654      -0.28775281       0.03212283      -0.41351230
Si      -1.84429961       1.18926917       5.75174877      -0.41556487       0.01907790       0.26703386
Si       5.75629595      -0.74307475       3.51238850       1.39846585      -1.04343743      -0.55009121
Si      -0.95659519      -1.12270400       7.48870173       0.31619196      -0.22536844      -0.57432892
Si       3.87243113       0.10394934       4.18917006      -1.92223150      -0.59003709       0.93956238
Si       2.39993162       4.19159718       2.15624653       0.97718121      -0.60270474       0.37941523
Si       1.13736916       2.86313014       4.17252364      -0.33383303       0.57711229      -0.35453178
Si      -2.22521884       3.40013569       7.00347771      -1.75277079      -1.68319203      -0.17762886
Si       0.67528827       4.32360119       0.57063930       0.62584429       2.02405241      -0.72149261
Si      -0.12645950       5.56970458       3.39652072       0.58150872      -0.27644125      -0.11220393
Si       3.57154453       2.23039057       0.91570351      -0.62161096       3.58974223      -0.07588103
Si       3.58869085       2.21491642       3.39561421      -0.80617819       1.63424010      -0.23664523
Si      -0.16793270       3.90514852       7.54390971       1.85524379      -0.63957485       0.05338567
Si      -1.56055278       5.52160305       8.07724155      -0.21463506       0.69696039       1.00429537
20
Lattice="8.982468229754703 -0.4767682749749292 0.9284499970083546 -2.5217564511341726 8.869399640143184 0.39015785724528257 -2.97521015698214 -3.1043872886698707 8.087373120841477" Properties=species:S:1:pos:R:3:forces:R:3 unique_starting_index=76 config_type=initial n_minim_iter=11 energy=-3237.4257759815678 stress="0.001969064368695277 0.003035220768414351 0.0015797120710072292 -0.0037257658290100848 -0.00047091607757715633 -7.025879700760486e-06" pbc="T T T"
Si       4.26226350      -0.23434663       6.36493306       0.89170080       1.08809079       2.71553618
Si      -3.13854784      -0.64658111       7.84576248      -1.97098591      -1.16520631      -0.21342810
Si       3.95291331       0.37196859       1.98154174       1.36425539      -2.29365058      -1.72346508
Si      -0.99326526       2.95947493       2.62486168      -0.25511013       0.09498701       0.25828258
Si       6.86646216       4.23940498       1.08106426      -0.03202559      -0.68107734      -0.24256888
Si       3.44690845       2.44993197       6.86839296       0.47716598      -0.14820763      -0.00434057
Si      -4.04814277       6.66651402       5.84648641      -0.10510185      -0.00194717      -0.37545268
Si      -1.79798735       1.22060779       5.71849453      -0.27184535      -0.10131814       0.11931786
Si       5.72902527      -0.69667367       3.51452400       1.55636720      -1.00488605      -0.57327411
Si      -0.91544533      -1.05891864       7.42076216       0.52799538      -0.25449948      -0.66330288
Si       3.85042139       0.14818506       4.19164180      -2.02711020      -0.71192288       1.03452621
Si       2.41311346       4.18114361       2.20395134       0.93314687      -0.49354836       0.32650147
Si       1.15668039       2.88102708       4.18024639      -0.36982325       0.52744835      -0.24146204
Si      -2.16792646       3.41521658       6.97694729      -1.72818331      -1.59584303      -0.16177371
Si       0.69124601       4.30628831       0.61246913       0.46808085       1.92256136      -0.76439421
Si      -0.08316606       5.55178569       3.43161881       0.55252328      -0.37804061      -0.13656103
Si       3.54868912       2.25039238       0.95552834      -0.58562637       3.68210301      -0.05859671
Si       3.57749145       2.24523290       3.41726501      -0.76558437       1.67003327      -0.05493767
Si      -0.10320325       3.93070827       7.53826354       1.79211743      -0.73928735      -0.17143354
Si      -1.48633215       5.54285088       8.08184815      -0.45195685       0.58421114       0.93082692
20
Lattice="8.921121106518912 -0.4659523991830992 0.9353267245650725 -2.496632501968761 8.781498171508485 0.5100708343473341 -2.9469124173271983 -2.9716536342488835 7.991287856156616" Properties=species:S:1:pos:R:3:forces:R:3 unique_starting_index=76 config_type=initial n_minim_iter=12 energy=-3238.023824917233 stress="0.0029543984711301336 0.002856162007838963 0.0005181886365460638 -0.003440100332241478 -0.0005104080243289929 0.00030831905175022096" pbc="T T T"
Si       4.25040062      -0.14859373       6.36197402       0.97779745       1.31006699       2.51185285
Si      -3.12097441      -0.54883712       7.77991789      -2.00682874      -0.90769255      -0.01122393
Si       3.93695275       0.37293084       1.96836158       1.38193137      -2.26669945      -1.61565849
Si      -0.98215450       2.96145870       2.65264678      -0.27186988       0.18514098       0.19055394
Si       6.82362199       4.19889238       1.14746824      -0.02987413      -0.85536157      -0.18254814
Si       3.43721862       2.50377690       6.87297954       0.47318388      -0.37363217       0.01755735
Si      -4.00866058       6.66870710       5.89746403       0.07286593      -0.00501448      -0.35884543
Si      -1.77900535       1.27768482       5.70083093      -0.20774670      -0.26188333       0.02184549
Si       5.70411664      -0.65796442       3.49312948       1.50925860      -0.74996922      -0.52848530
Si      -0.89767938      -0.95979952       7.35667206       0.56895821      -0.26703245      -0.76715410
Si       3.81687841       0.19301186       4.18403082      -1.85973953      -0.98421703       1.09213133
Si       2.41004856       4.15865348       2.26067076       0.84958168      -0.31651541       0.23377402