12
Lattice="5.891204111671558 -0.5458028862377664 0.26817336567248345 -4.033754714661909 5.876790757145663 -1.5926458458882833 0.18320152475659524 -1.3542682681971503 7.442011485677924" Properties=species:S:1:pos:R:3:forces:R:3 unique_starting_index=262 config_type=initial n_minim_iter=1 energy=-1954.499439376329 stress="9.516161499317224e-06 -8.23368081411065e-06 -1.1540527895872836e-05 -8.23368081411065e-06 -2.6118928693966357e-05 -5.796207387752167e-06 -1.1540527895872836e-05 -5.796207387752167e-06 3.242582822423888e-05" free_energy=-1954.499439376329 pbc="T T T"
Si       3.77685720       0.40086944       5.90322558      -0.00426534       0.00481508       0.00810761
Si      -1.73620628       3.57585016       0.21431342       0.00426534      -0.00481508      -0.00810761
Si       3.54704777       1.42125030       2.13190103      -0.00182666      -0.00645581      -0.00766695
Si      -1.50639685       2.55546931       3.98563797       0.00182666       0.00645581       0.00766695
Si      -1.93483815       5.89929320      -2.24713275       0.00148165       0.00045335      -0.00209552
Si       3.97548907      -1.92257360       8.36467176      -0.00148165      -0.00045335       0.00209553
Si       0.68402976       3.20535961       0.35616291      -0.00393777      -0.00948446       0.00009578
Si       1.35662116       0.77135999       5.76137609       0.00393777       0.00948446      -0.00009577
Si       1.21255116       1.43478199       2.02709988       0.00254371      -0.00340779       0.00120414
Si       0.82809976       2.54193761       4.09043913      -0.00254371       0.00340779      -0.00120414
Si      -3.49710152       5.10726506       1.00215790      -0.00371691       0.00345969       0.00551325
Si       5.53775244      -1.13054546       5.11538111       0.00371691      -0.00345969      -0.00551325
12
Lattice="5.8910154046239915 -0.5456852900121207 0.26835769229493084 -4.033530089908114 5.877155497240881 -1.5925172527722795 0.18344122541661972 -1.354237820434762 7.441200165541197" Properties=species:S:1:pos:R:3:forces:R:3 unique_starting_index=262 config_type=initial n_minim_iter=2 energy=-1954.4994486782603 stress="-2.03041553462495e-05 1.6264913003518395e-05 2.3498632988807922e-05 1.6264913003518395e-05 3.58405782699811e-05 5.031038249755449e-06 2.3498632988807922e-05 5.031038249755449e-06 -7.472411203467689e-05" free_energy=-1954.4994486782603 pbc="T T T"
Si       3.77691281       0.40118714       5.90286355      -0.00365365       0.00397222       0.00667937
Si      -1.73598627       3.57604525       0.21417706       0.00365365      -0.00397222      -0.00667937
Si       3.54703005       1.42141649       2.13172598      -0.00052313      -0.00590576      -0.00570395
Si      -1.50610351       2.55581590       3.98531462       0.00052313       0.00590576       0.00570395
Si      -1.93468215       5.89971065      -2.24688442       0.00081579       0.00112440      -0.00154090
Si       3.97560869      -1.92247827       8.36392502      -0.00081579      -0.00112440       0.00154090
Si       0.68405231       3.20552435       0.35621329      -0.00268878      -0.00754525       0.00203290
Si       1.35687423       0.77170803       5.76082731       0.00268879       0.00754525      -0.00203289
Si       1.21266523       1.43492777       2.02697449       0.00143024      -0.00404081       0.00032497
Si       0.82826131       2.54230462       4.09006612      -0.00143024       0.00404081      -0.00032497
Si      -3.49686922       5.10767712       1.00209462      -0.00354706       0.00232299       0.00260635
Si       5.53779576      -1.13044474       5.11494599       0.00354706      -0.00232299      -0.00260635
