14
Lattice="5.279170234665338 -0.44079010129032603 8.846570971435667e-15 -0.6304442992387571 4.446699904751399 -1.978603629245122e-14 -2.385313128187187e-14 7.703400818338663e-14 18.07260343617987" Properties=species:S:1:pos:R:3:forces:R:3 unique_starting_index=0 config_type=initial n_minim_iter=1 energy=-2270.3841651470075 stress="-0.00134990324858726 0.00019135390421114474 -2.9270777692922623e-12 0.00019135390421114474 -0.0003973262434980661 -1.825376465780227e-12 -2.9270777692922623e-12 -1.825376465780227e-12 -0.00035643546915704925" free_energy=-2270.3841651470075 pbc="T T T"
Si       1.32050412       0.98677378      13.82720225      -0.22803735      -0.24275910      -0.65931995
Si       1.00385885       1.01618112       4.79090053       0.22803735       0.24275910      -0.65931995
Si       3.32822182       3.01913602       4.24540119       0.22803735       0.24275910       0.65931995
Si       3.64486709       2.98972868      13.28170290      -0.22803735      -0.24275910       0.65931995
Si       4.17937471       0.74174175       5.84890057      -0.05705693      -0.30736377      -0.81477148
Si       3.42415849       0.82042305      14.88520229       0.05705693       0.30736377      -0.81477148
Si       0.46935122       3.26416806      12.22370286       0.05705693       0.30736377       0.81477148
Si       1.22456745       3.18548675       3.18740114      -0.05705693      -0.30736377       0.81477148
Si       2.13334401       0.88870006       6.93656177       0.04392055       0.21112393      -0.12767578
Si       0.19101895       1.11425484      15.97286349      -0.04392055      -0.21112393      -0.12767578
Si       2.51538192       3.11720975      11.13604167      -0.04392055      -0.21112393       0.12767578
Si       4.45770698       2.89165496       2.09973995       0.04392055       0.21112393       0.12767578
Si       2.63958512      -0.22039505       0.00000000       0.00000000      -0.00000000       0.00000000
Si      -0.31522215       2.22334995       9.03630172       0.00000000       0.00000000       0.00000000
14
Lattice="5.322534345579973 -0.4479223136564718 8.934205978862274e-15 -0.6406849879759754 4.458023038796923 -1.9847817036854377e-14 -2.3904104762889368e-14 7.719862772567806e-14 18.111224089263317" Properties=species:S:1:pos:R:3:forces:R:3 unique_starting_index=0 config_type=initial n_minim_iter=2 energy=-2270.4423397572596 stress="0.00822522706101729 7.666163176505026e-05 -9.794282645482947e-12 7.666163176505026e-05 0.003895395454414213 2.9398484099343924e-12 -9.794282645482947e-12 2.9398484099343924e-12 0.005445753114036398" free_energy=-2270.4423397572596 pbc="T T T"
Si       1.32680705       0.98413158      13.84731161      -0.15203091      -0.23112279      -0.54979667
Si       1.01411763       1.02091878       4.79169957       0.15203091       0.23112279      -0.54979667
Si       3.35504231       3.02596915       4.26391248       0.15203091       0.23112279       0.54979667
Si       3.66773173       2.98918194      13.31952452      -0.15203091      -0.23112279       0.54979667
Si       4.21163171       0.73429417       5.84973505      -0.05831125      -0.27882853      -0.73448078
Si       3.45182731       0.82283388      14.90534709       0.05831125       0.27882854      -0.73448078
Si       0.47021765       3.27580656      12.26148904       0.05831125       0.27882853       0.73448078
Si       1.23002204       3.18726684       3.20587700      -0.05831125      -0.27882853       0.73448079
Si       2.15026775       0.89138274       6.94955717       0.12738566       0.20962176      -0.20570204
Si       0.19065693       1.11366762      16.00516922      -0.12738566      -0.20962175      -0.20570204
Si       2.53158161       3.11871799      11.16166692      -0.12738566      -0.20962176       0.20570204
Si       4.49119242       2.89643310       2.10605487       0.12738566       0.20962176       0.20570204
Si       2.66126717      -0.22396116       0.00000000      -0.00000000      -0.00000000       0.00000000
Si      -0.32034249       2.22901152       9.05561204       0.00000000       0.00000000       0.00000000
14
Lattice="5.3541540024295085 -0.49812569514342814 9.189929817574272e-15 -0.6898494502944503 4.420876646564616 -1.9754371224518286e-14 -2.3338340246202233e-14 7.537148361225642e-14 17.682565997060593" Properties=species:S:1:pos:R:3:forces:R:3 unique_starting_index=0 config_type=initial n_minim_iter=3 energy=-2270.9454695927116 stress="0.013785883539418791 0.0006891603940167173 -2.3651804969654307e-12 0.0006891603940167173 -2.9308497465555875e-05 -2.9626781087659865e-12 -2.3651804969654307e-12 -2.9626781087659865e-12 -0.0038722821980841583" free_energy=-2270.9454695927116 pbc="T T T"
Si       1.29299921       0.92787224      13.43167682      -0.09140639      -0.02398245      -0.20557998
Si       1.03915306       1.03350324       4.59039382       0.09140639       0.02398245      -0.20557998
Si       3.37130534       2.99487871       4.25088918       0.09140639       0.02398245       0.20557998
Si       3.62515149       2.88924771      13.09217218      -0.09140639      -0.02398245       0.20557998
Si       4.21784864       0.64200864       5.60168239      -0.05202233      -0.05613671      -0.13175198
Si       3.46845764       0.82124114      14.44296539       0.05202233       0.05613671      -0.13175197
Si       0.44645592       3.28074231      12.08088361       0.05202233       0.05613670       0.13175197
Si       1.19584691       3.10150981       3.23960061      -0.05202233      -0.05613671       0.13175197
Si       2.15940947       0.88965485       6.76628432       0.30774578       0.26823943      -0.31844557
Si       0.17274281       1.07172062      15.60756732      -0.30774578      -0.26823943      -0.31844557
Si       2.50489508       3.03309610      10.91628168      -0.30774578      -0.26823943       0.31844557
Si       4.49156174       2.85103033       2.07499868       0.30774578       0.26823943       0.31844557
Si       2.67707700      -0.24906285       0.00000000      -0.00000000       0.00000000       0.00000000
Si      -0.34492473       2.21043832       8.84128300       0.00000000       0.00000000      -0.00000000
14
Lattice="5.26731378643595 -0.5275816522683904 9.200868992456926e-15 -0.7023491848473663 4.444120489838539 -1.9869945288301198e-14 -2.3630065979548046e-14 7.631361579038859e-14 17.903595405258" Properties=species:S:1:pos:R:3:forces:R:3 unique_starting_index=0 config_type=initial n_minim_iter=4 energy=-2271.0453663960557 stress="0.004675613689516595 0.0003657120648465288 -9.994196768444575e-13 0.0003657120648465288 0.006235148448009651 2.138803866520785e-13 -9.994196768444575e-13 2.138803866520785e-13 0.0013599707443515735" free_energy=-2271.0453663960557 pbc="T T T"
Si       1.25584984       0.91460798      13.56913849      -0.12542687       0.03012732       0.13143105
Si       1.02663246       1.04366144       4.61734078       0.12542687      -0.03012732       0.13143105
Si       3.30911476       3.00193086       4.33445692       0.12542687      -0.03012732      -0.13143105
Si       3.53833214       2.87287740      13.28625462      -0.12542687       0.03012732      -0.13143105
Si       4.14116763       0.60939226       5.63473830      -0.04037395       0.05655067       0.08958377
Si       3.40862846       0.82129551      14.58653600       0.04037395      -0.05655067       0.08958377
Si       0.42379698       3.30714658      12.26885710       0.04037395      -0.05655067      -0.08958377
Si       1.15633614       3.09524333       3.31705940      -0.04037395       0.05655067      -0.08958377
Si       2.12229560       0.89367056       6.84312002       0.26654785       0.20554213      -0.32499728
Si       0.16018670       1.06459886      15.79491772      -0.26654785      -0.20554213      -0.32499728
Si       2.44266900       3.02286828      11.06047539      -0.26654785      -0.20554213       0.32499728
Si       4.40477790       2.85193998       2.10867769       0.26654785       0.20554213       0.32499728
Si       2.63365689      -0.26379083       0.00000000       0.00000000       0.00000000       0.00000000
Si      -0.35117459       2.22206024       8.95179770      -0.00000000      -0.00000000      -0.00000000
14
Lattice="5.260841875096069 -0.5304361936549424 9.20449444763431e-15 -0.7063101000570627 4.416222321665796 -1.9756257877846856e-14 -2.370930490678358e-14 7.656951897127375e-14 17.96363170370926" Properties=species:S:1:pos:R:3:forces:R:3 unique_starting_index=0 config_type=initial n_minim_iter=5 energy=-2271.0561396422636 stress="0.005127155794125962 0.0011516718020933047 -3.874297427453711e-12 0.0011516718020933047 -0.0005411559307014494 1.369493060028217e-12 -3.874297427453711e-12 1.369493060028217e-12 0.0027059246937466024" free_energy=-2271.0561396422636 pbc="T T T"
Si       1.25158228       0.90634883      13.61221097      -0.14234444       0.09007920       0.15914549
Si       1.02568361       1.03654424       4.63039512       0.14234444      -0.09007920       0.15914549
Si       3.30294949       2.97943730       4.35142074       0.14234444      -0.09007920      -0.15914549
Si       3.52884817       2.84924189      13.33323659      -0.14234444       0.09007920      -0.15914549
Si       4.13455167       0.59944775       5.65049794      -0.05418042       0.12923428       0.14322474
Si       3.40355610       0.81300912      14.63231379       0.05418042      -0.12923428       0.14322474
Si       0.41998011       3.28633838      12.31313376       0.05418042      -0.12923428      -0.14322474
Si       1.15097568       3.07277701       3.33131791      -0.05418042       0.12923428      -0.14322474
Si       2.11966541       0.88712013       6.86425244       0.28424698       0.21997831      -0.32227794
Si       0.15760048       1.05577293      15.84606829      -0.28424698      -0.21997831      -0.32227794
Si       2.43486637       2.99866600      11.09937926      -0.28424698      -0.21997831       0.32227794
Si       4.39693130       2.83001320       2.11756341       0.28424698       0.21997831       0.32227794
Si       2.63042094      -0.26521810       0.00000000      -0.00000000      -0.00000000       0.00000000
Si      -0.35315505       2.20811116       8.98181585       0.00000000       0.00000000       0.00000000
14
Lattice="5.179052359329228 -0.6309658313104877 9.52504952943095e-15 -0.7832965990769032 4.391350080140633 -1.975185124161331e-14 -2.3771551740987172e-14 7.677054595925131e-14 18.01079374446715" Properties=species:S:1:pos:R:3:forces:R:3 unique_starting_index=0 config_type=initial n_minim_iter=6 energy=-2271.122125443606 stress="-0.0077345151837136875 0.0019216641759151757 2.396736637973312e-12 0.0019216641759151757 0.002507794714075682 -1.7636244848191946e-12 2.396736637973312e-12 -1.7636244848191946e-12 -0.002813957191680885" free_energy=-2271.122125443606 pbc="T T T"
Si       1.20299895       0.87872148      13.65815041      -0.13782749       0.04401401      -0.02204841
Si       0.99487893       1.00147064       4.65275353       0.13782749      -0.04401401      -0.02204841
Si       3.19275681       2.88166277       4.35264334       0.13782749      -0.04401401       0.02204841
Si       3.40087683       2.75891361      13.35804021      -0.13782749       0.04401401       0.02204841
Si       4.04700496       0.51854894       5.67554362       0.10822290       0.18452534      -0.01105977
Si       3.32992528       0.73067736      14.68094049      -0.10822290      -0.18452534      -0.01105977
Si       0.34875080       3.24183531      12.33525013      -0.10822290      -0.18452534       0.01105977
Si       1.06583048       3.02970689       3.32985325       0.10822290       0.18452534       0.01105977
Si       2.07689455       0.84670815       6.86670754       0.01748429       0.04809391      -0.18124395
Si       0.12098333       1.03348397      15.87210441      -0.01748428      -0.04809391      -0.18124395
Si       2.31886121       2.91367610      11.14408621      -0.01748428      -0.04809391       0.18124395
Si       4.27477243       2.72690027       2.13868933       0.01748429       0.04809391       0.18124395
Si       2.58952618      -0.31548292       0.00000000      -0.00000000       0.00000000      -0.00000000
Si      -0.39164830       2.19567504       9.00539687       0.00000000       0.00000000       0.00000000
14
Lattice="5.17867063696923 -0.7021734493734135 9.828066356992683e-15 -0.8445544927621301 4.375486304642065 -1.9765083555894606e-14 -2.3812782674216248e-14 7.690370181246999e-14 18.042032842460067" Properties=species:S:1:pos:R:3:forces:R:3 unique_starting_index=0 config_type=initial n_minim_iter=7 energy=-2271.143140023509 stress="-0.009236680180752497 -0.0004919158463195764 -3.3726899460320225e-12 -0.0004919158463195764 0.0010385611900706132 -2.138405038721803e-12 -3.3726899460320225e-12 -2.138405038721803e-12 -0.005050474348286308" free_energy=-2271.143140023509 pbc="T T T"
Si       1.18409754       0.85782017      13.68386850      -0.09408345       0.07959455      -0.05447486
Si       0.98296054       0.97883626       4.66285208       0.09408345      -0.07959455      -0.05447486
Si       3.15001861       2.81549268       4.35816434       0.09408345      -0.07959455       0.05447486
Si       3.35115561       2.69447660      13.37918076      -0.09408345       0.07959455       0.05447486
Si       4.03183157       0.45998232       5.68727576       0.08837494       0.25086611      -0.03621623
Si       3.31389714       0.67450066      14.70829218      -0.08837494      -0.25086611      -0.03621623
Si       0.30228457       3.21333053      12.35475708      -0.08837494      -0.25086611       0.03621623
Si       1.02021901       2.99881220       3.33374066       0.08837494       0.25086611       0.03621623
Si       2.06596220       0.81558759       6.87113213       0.00640276      -0.00064250      -0.11409164
Si       0.10109588       1.02106884      15.89214855      -0.00640276       0.00064250      -0.11409164
Si       2.26815395       2.85772526      11.17090072      -0.00640276       0.00064250       0.11409164
Si       4.23302027       2.65224402       2.14988429       0.00640276      -0.00064250       0.11409164
Si       2.58933532      -0.35108672       0.00000000       0.00000000      -0.00000000      -0.00000000
Si      -0.42227725       2.18774315       9.02101642      -0.00000000      -0.00000000      -0.00000000
14
Lattice="5.2196395424946225 -0.7221231354330111 9.967174204404955e-15 -0.8675266727336595 4.360206540700624 -1.973027379325942e-14 -2.3950235581848932e-14 7.734760782574251e-14 18.14617564289325" Properties=species:S:1:pos:R:3:forces:R:3 unique_starting_index=0 config_type=initial n_minim_iter=8 energy=-2271.173063422356 stress="-0.0024879081854172133 -0.0006818821811778169 -2.9326896316184206e-12 -0.0006818821811778169 -0.0006825343077748785 -2.9752387299617195e-12 -2.9326896316184206e-12 -2.9752387299617195e-12 -0.0015796108305999015" free_energy=-2271.173063422356 pbc="T T T"
Si       1.18885430       0.85321436      13.76927591      -0.05369443       0.04220453      -0.06555066
Si       0.98720213       0.96582734       4.69618809       0.05369443      -0.04220453      -0.06555066
Si       3.16325856       2.78486904       4.37689973       0.05369443      -0.04220453       0.06555066
Si       3.36491074       2.67225607      13.44998755      -0.05369444       0.04220453       0.06555066
Si       4.06080681       0.44799337       5.72813859       0.06082929       0.22526983      -0.14032472
Si       3.33488916       0.64892520      14.80122641      -0.06082929      -0.22526983      -0.14032472
Si       0.29130606       3.19009004      12.41803706      -0.06082929      -0.22526983       0.14032472
Si       1.01722371       2.98915821       3.34494924       0.06082929       0.22526983       0.14032472
Si       2.08070477       0.80277259       6.90660488       0.07461445       0.03557093      -0.05842336
Si       0.09535167       1.01626912      15.97969270      -0.07461445      -0.03557093      -0.05842336
Si       2.27140810       2.83531082      11.23957077      -0.07461445      -0.03557093       0.05842336
Si       4.25676120       2.62181429       2.16648294       0.07461445       0.03557093       0.05842336
Si       2.60981977      -0.36106157       0.00000000       0.00000000      -0.00000000       0.00000000
Si      -0.43376334       2.18010327       9.07308782       0.00000000       0.00000000       0.00000000
14
Lattice="5.244485585989408 -0.7195020432566912 9.988794924548347e-15 -0.8684327120935749 4.358449922598177 -1.9723982090025746e-14 -2.3983285861570314e-14 7.745434414846819e-14 18.171216573234894" Properties=species:S:1:pos:R:3:forces:R:3 unique_starting_index=0 config_type=initial n_minim_iter=9 energy=-2271.185686306366 stress="0.0019446863703220616 -0.00044897887037696977 1.0120343479018876e-11 -0.00044897887037696977 -0.0015952280558562454 -1.6833345438905996e-13 1.0120343479018876e-11 -1.6833345438905996e-13 0.0003250387788969051" free_energy=-2271.185686306366 pbc="T T T"
Si       1.19166183       0.85307323      13.78167178      -0.02011146       0.07636182      -0.00954280
Si       0.99636460       0.96640071       4.69606349       0.02011146      -0.07636182      -0.00954280
Si       3.18439104       2.78587465       4.38954479       0.02011146      -0.07636182       0.00954280
Si       3.37968827       2.67254717      13.47515308      -0.02011146       0.07636182       0.00954280
Si       4.08135817       0.45256144       5.72654474       0.04481126       0.26392382      -0.07239751
Si       3.35115386       0.64741046      14.81215302      -0.04481126      -0.26392382      -0.07239751
Si       0.29469471       3.18638644      12.44467184      -0.04481126      -0.26392382       0.07239751
Si       1.02489902       2.99153742       3.35906355       0.04481126       0.26392382       0.07239751
Si       2.09446545       0.80654181       6.91156615       0.14825452       0.07237667      -0.06315888
Si       0.09356098       1.01293213      15.99717444      -0.14825452      -0.07237667      -0.06315888
Si       2.28158742       2.83240607      11.25965042      -0.14825452      -0.07237667       0.06315888
Si       4.28249189       2.62601575       2.17404213       0.14825452       0.07237667       0.06315888
Si       2.62224279      -0.35975102       0.00000000      -0.00000000       0.00000000      -0.00000000
Si      -0.43421636       2.17922496       9.08560829      -0.00000000       0.00000000       0.00000000
14
Lattice="5.266913504541261 -0.7274315748295643 1.0052195844604948e-14 -0.8789206890902399 4.344910563885929 -1.9680113480809873e-14 -2.4222079592751527e-14 7.822553171393239e-14 18.352141431933195" Properties=species:S:1:pos:R:3:forces:R:3 unique_starting_index=0 config_type=initial n_minim_iter=10 energy=-2271.2093421566483 stress="0.005932292575051802 -0.0006051498130788216 -1.491143698249817e-12 -0.0006051498130788216 -0.0036058492500939685 1.333895507176593e-12 -1.491143698249817e-12 1.333895507176593e-12 0.006236758307640679" free_energy=-2271.2093421566483 pbc="T T T"
Si       1.18063946       0.85339630      13.90772928       0.02890383       0.07977528       0.01887674
Si       1.01335694       0.95534320       4.73165856      -0.02890383      -0.07977528       0.01887675
Si       3.20735335       2.76408269       4.44441216      -0.02890383      -0.07977528      -0.01887675
Si       3.37463587       2.66213579      13.62048287       0.02890383       0.07977528      -0.01887675
Si       4.09876907       0.46613018       5.76285577       0.07144821       0.21099558      -0.01312225
Si       3.36214084       0.61517774      14.93892649      -0.07144821      -0.21099558      -0.01312225
Si       0.28922374       3.15134881      12.58928566      -0.07144821      -0.21099558       0.01312225
Si       1.02585198       3.00230125       3.41321495       0.07144821       0.21099558       0.01312225
Si       2.12045342       0.81300284       6.95775861       0.21605190       0.22406844       0.08969597
Si       0.07354299       0.99573665      16.13382933      -0.21605190      -0.22406844       0.08969597
Si       2.26753940       2.80447615      11.39438282      -0.21605190      -0.22406844      -0.08969597
Si       4.31444983       2.62174234       2.21831210       0.21605190       0.22406844      -0.08969597
Si       2.63345675      -0.36371579       0.00000000       0.00000000       0.00000000      -0.00000000
Si      -0.43946034       2.17245528       9.17607072      -0.00000000       0.00000000       0.00000000
14
Lattice="5.289453965307654 -0.6561730700440263 9.778208331491169e-15 -0.8199182100005596 4.364941526253123 -1.9687620503232656e-14 -2.3985852528630463e-14 7.746263323424841e-14 18.17316123850265" Properties=species:S:1:pos:R:3:forces:R:3 unique_starting_index=0 config_type=initial n_minim_iter=11 energy=-2271.275366088288 stress="0.005033223250222912 0.0012495457538294428 -3.3062028269492723e-12 0.0012495457538294428 0.0001958160871240008 -7.469152220988517e-13 -3.3062028269492723e-12 -7.469152220988517e-13 0.00417742031153812" free_energy=-2271.275366088288 pbc="T T T"
Si       1.17507382       0.88358997      13.74069193       0.16733183       0.08970333       0.11224074
Si       1.05969406       0.97079425       4.65411131      -0.16733183      -0.08970333       0.11224074
Si       3.29446194       2.82517848       4.43246931      -0.16733183      -0.08970333      -0.11224074
Si       3.40984169       2.73797420      13.51904993       0.16733183       0.08970333      -0.11224074
Si       4.13773429       0.56936527       5.65618316       0.27807728       0.12032614       0.10617765
Si       3.38648755       0.62884589      14.74276378      -0.27807727      -0.12032614       0.10617765
Si       0.33180146       3.13940319      12.51697808      -0.27807727      -0.12032614      -0.10617765
Si       1.08304820       3.07992256       3.43039746       0.27807728       0.12032614      -0.10617765
Si       2.18133517       0.88081117       6.85770808       0.15388311       0.39089464       0.10035522
Si       0.05343271       0.97357306      15.94428870      -0.15388311      -0.39089464       0.10035522
Si       2.28820059       2.82795729      11.31545316      -0.15388311      -0.39089464      -0.10035522
Si       4.41610304       2.73519540       2.22887254       0.15388311       0.39089464      -0.10035522
Si       2.64472698      -0.32808653       0.00000000       0.00000000      -0.00000000      -0.00000000
Si      -0.40995911       2.18247076       9.08658062       0.00000000      -0.00000000      -0.00000000
14
Lattice="5.2946811868187895 -0.6515867983228143 9.76555861596093e-15 -0.8169490289330567 4.361712121358198 -1.9669936373215943e-14 -2.370891764210606e-14 7.656826829479077e-14 17.963338288104417" Properties=species:S:1:pos:R:3:forces:R:3 unique_starting_index=0 config_type=initial n_minim_iter=12 energy=-2271.3330499479657 stress="-0.002121686868572793 0.0013661272324272463 -6.6828688980705244e-12 0.0013661272324272463 0.004116536335538638 8.368556814585773e-13 -6.6828688980705244e-12 8.368556814585773e-13 -0.0014740244325156602" free_energy=-2271.3330499479657 pbc="T T T"
Si       1.15140441       0.90051331      13.56481409       0.29483844       0.01108805       0.03552490
Si       1.08746167       0.95454935       4.58314494      -0.29483844      -0.01108805       0.03552490
Si       3.32632775       2.80961201       4.39852420      -0.29483844      -0.01108805      -0.03552490
Si       3.39027049       2.75557597      13.38019335       0.29483844       0.01108805      -0.03552490
Si       4.15797383       0.63037918       5.55528021       0.52800357      -0.11408889       0.02751009
Si       3.37557343       0.57309669      14.53694936      -0.52800357       0.11408889       0.02751009
Si       0.31975833       3.07974615      12.40805808      -0.52800357       0.11408889      -0.02751009
Si       1.10215872       3.13702864       3.42638893       0.52800357      -0.11408889      -0.02751009
Si       2.23223058       0.92783825       6.73998548      -0.08233315       0.46376424       0.24069161
Si       0.00663549       0.92722441      15.72165462       0.08233315      -0.46376424       0.24069161
Si       2.24550157       2.78228707      11.22335281       0.08233315      -0.46376424      -0.24069160
Si       4.47109666       2.78290091       2.24168366      -0.08233315       0.46376424      -0.24069161
Si       2.64734059      -0.32579340       0.00000000       0.00000000      -0.00000000      -0.00000000
Si      -0.40847451       2.18085606       8.98166914      -0.00000000      -0.00000000      -0.00000000
14
Lattice="5.287997147236116 -0.7201697306594291 1.0049069672643735e-14 -0.8760543851662296 4.336136607606731 -1.9638931625288415e-14 -2.3625432116210702e-14 7.629865066643737e-14 17.900084504593206" Properties=species:S:1:pos:R:3:forces:R:3 unique_starting_index=0 config_type=initial n_minim_iter=13 energy=-2271.3901634976037 stress="-0.005897225441600329 -0.002452099539497928 -3.6904524996724495e-12 -0.002452099539497928 -0.004085675748744527 6.785012372217476e-12 -3.6904524996724495e-12 6.785012372217476e-12 -0.006552055738936644" free_energy=-2271.3901634976037 pbc="T T T"
Si       1.14502354       0.88352118      13.53076266       0.23096361      -0.00006132      -0.18632118
Si       1.06094785       0.92446225       4.58072041      -0.23096361       0.00006132      -0.18632118
Si       3.26691923       2.73244569       4.36932185      -0.23096361       0.00006132       0.18632118
Si       3.35099492       2.69150462      13.31936410       0.23096361      -0.00006132       0.18632118
Si       4.15441287       0.57369113       5.55165656       0.34039517      -0.11131359       0.04351336
Si       3.33955566       0.51412257      14.50169881      -0.34039517       0.11131359       0.04351336
Si       0.25752990       3.04227574      12.34842795      -0.34039517       0.11131359      -0.04351336
Si       1.07238710       3.10184430       3.39838569       0.34039517      -0.11131359      -0.04351336
Si       2.21568381       0.90688598       6.72261121       0.00070833       0.42948782       0.09577374
Si      -0.00971243       0.90109746      15.67265346      -0.00070833      -0.42948782       0.09577374
Si       2.19625895       2.70908090      11.17747329      -0.00070833      -0.42948782      -0.09577374
Si       4.42165519       2.71486942       2.22743104       0.00070833       0.42948782      -0.09577374
Si       2.64399857      -0.36008487       0.00000000       0.00000000       0.00000000       0.00000000
Si      -0.43802719       2.16806830       8.95004225      -0.00000000      -0.00000000      -0.00000000
14
Lattice="5.33809353103773 -0.7035488351548133 1.0044343260035137e-14 -0.8689301143733699 4.32544009570599 -1.958393504688646e-14 -2.3611991404047378e-14 7.625524370579375e-14 17.88990099208253" Properties=species:S:1:pos:R:3:forces:R:3 unique_starting_index=0 config_type=initial n_minim_iter=14 energy=-2271.564312486079 stress="-0.0024128024919483847 -0.0011562665980289122 -1.9232302365817013e-12 -0.0011562665980289122 0.005188014299013951 8.595646503197724e-12 -1.9232302365817013e-12 8.595646503197724e-12 0.0003547419387734897" free_energy=-2271.564312486079 pbc="T T T"
Si       1.15469592       0.90879237      13.50554114       0.12574896      -0.11093562      -0.18377272
Si       1.07988579       0.90215327       4.56059064      -0.12574896       0.11093562      -0.18377272
Si       3.31446750       2.71309890       4.38435985      -0.12574896       0.11093562       0.18377272
Si       3.38927763       2.71973800      13.32931035       0.12574896      -0.11093562       0.18377272
Si       4.25902322       0.65388563       5.51354044       0.16305853      -0.29165072       0.12914441
Si       3.31365202       0.45351117      14.45849093      -0.16305853       0.29165072       0.12914441
Si       0.21014020       2.96800563      12.37636055      -0.16305853       0.29165072      -0.12914441
Si       1.15551140       3.16838009       3.43141006       0.16305853      -0.29165072      -0.12914441
Si       2.29642093       1.00469700       6.69031236      -0.03260211       0.39941253      -0.04067477
Si      -0.06183922       0.80624863      15.63526286       0.03260211      -0.39941253      -0.04067477
Si       2.17274249       2.61719426      11.19958863       0.03260211      -0.39941253       0.04067477
Si       4.53100264       2.81564263       2.25463814      -0.03260211       0.39941253       0.04067477
Si       2.66904677      -0.35177442       0.00000000      -0.00000000       0.00000000      -0.00000000
Si      -0.43446506       2.16272005       8.94495050       0.00000000       0.00000000       0.00000000
14
Lattice="5.385615172547024 -0.6952716151115126 1.007178327546242e-14 -0.8706069569551877 4.289824724583267 -1.943433862300511e-14 -2.344354351343818e-14 7.571123897826646e-14 17.762274480885026" Properties=species:S:1:pos:R:3:forces:R:3 unique_starting_index=0 config_type=initial n_minim_iter=15 energy=-2271.6676688714642 stress="-0.0025417581604248265 0.0012401645774103136 -1.0379337107567889e-11 0.0012401645774103136 0.009075493756418926 -1.0180849686941626e-11 -1.0379337107567889e-11 -1.0180849686941626e-11 0.004671428229757135" free_energy=-2271.6676688714642 pbc="T T T"
Si       1.16391390       0.92119439      13.38845897       0.02521670      -0.18648827      -0.25516639
Si       1.09359021       0.87608216       4.50732173      -0.02521670       0.18648827      -0.25516639
Si       3.35109432       2.67335872       4.37381551      -0.02521670       0.18648827       0.25516639
Si       3.42141801       2.71847095      13.25495275       0.02521670      -0.18648827       0.25516639
Si       4.35979206       0.70637244       5.44284055       0.05582315      -0.42620887       0.25383150
Si       3.28332722       0.39563250      14.32397779      -0.05582315       0.42620887       0.25383151