16
Lattice="5.147763526880017 -6.626717934423799e-32 -1.8113886302014465e-31 1.261785082781401e-31 9.801792217776303 -2.0229953864801803e-15 2.308548296402133e-31 1.0146323699410526e-15 4.916084205656971" Properties=species:S:1:pos:R:3:forces:R:3 unique_starting_index=98 config_type=initial n_minim_iter=1 energy=-2605.0163172599205 stress="-0.0016288424587276667 7.01123641749961e-12 1.0067890852930006e-12 7.01123641749961e-12 -0.005370029365296564 -1.514454122378616e-13 1.0067890852930006e-12 -1.514454122378616e-13 0.005069411673190028" free_energy=-2605.0163172599205 pbc="T T T"
Si       1.61728811       6.09564553      -0.13674452      -0.01958957       0.06827896       0.01570597
Si       3.53047541       1.19474942       5.05282872       0.01958957       0.06827896      -0.01570597
Si       4.19116988       8.60704280       5.05282872      -0.01958957      -0.06827896      -0.01570597
Si       0.95659365       3.70614669      -0.13674452       0.01958957      -0.06827896       0.01570597
Si       3.53047541       3.70614669       5.05282872       0.01958957      -0.06827896      -0.01570597
Si       1.61728811       8.60704280      -0.13674452      -0.01958957      -0.06827896       0.01570597
Si       0.95659365       1.19474942      -0.13674452       0.01958957       0.06827896       0.01570597
Si       4.19116988       6.09564553       5.05282872      -0.01958957       0.06827896      -0.01570597
Si       2.18390860       6.08333847       2.30789535       0.05683952       0.05692176       0.17248646
Si       2.96385493       1.18244236       2.60818885      -0.05683952       0.05692176      -0.17248646
Si       4.75779036       8.61934985       2.60818885       0.05683952      -0.05692176      -0.17248646
Si       0.38997316       3.71845375       2.30789535      -0.05683952      -0.05692176       0.17248646
Si       2.96385493       3.71845375       2.60818885      -0.05683952      -0.05692176      -0.17248646
Si       2.18390860       8.61934985       2.30789535       0.05683952      -0.05692176       0.17248646
Si       0.38997316       1.18244236       2.30789535      -0.05683952       0.05692176       0.17248646
Si       4.75779036       6.08333847       2.60818885       0.05683952       0.05692176      -0.17248646
16
Lattice="5.15582038705477 -6.624533519141202e-32 -1.8209092982171798e-31 1.270567107606766e-31 9.85245986542301 -2.0171167732600416e-15 2.2947287383090903e-31 1.0177289478672318e-15 4.892214398879883" Properties=species:S:1:pos:R:3:forces:R:3 unique_starting_index=98 config_type=initial n_minim_iter=2 energy=-2605.0239609442683 stress="-1.9145886520531674e-05 7.217930422179469e-12 3.6436361320407725e-12 7.217930422179469e-12 0.0005159109185039028 4.3905788979396315e-12 3.6436361320407725e-12 4.3905788979396315e-12 -0.0001611294367454717" free_energy=-2605.0239609442683 pbc="T T T"
Si       1.61974342       6.12742093      -0.13602006      -0.03337534       0.06132468       0.01648405
Si       3.53607697       1.20119099       5.02823446       0.03337534       0.06132468      -0.01648405
Si       4.19765361       8.65126887       5.02823446      -0.03337534      -0.06132468      -0.01648405
Si       0.95816678       3.72503894      -0.13602006       0.03337534      -0.06132468       0.01648405
Si       3.53607697       3.72503894       5.02823446       0.03337534      -0.06132468      -0.01648405
Si       1.61974342       8.65126887      -0.13602006      -0.03337534      -0.06132468       0.01648405
Si       0.95816678       1.20119099      -0.13602006       0.03337534       0.06132468       0.01648405
Si       4.19765361       6.12742093       5.02823446      -0.03337534       0.06132468      -0.01648405
Si       2.18754703       6.11500607       2.29735388       0.06882040       0.05119018       0.18500884
Si       2.96827336       1.18877614       2.59486052      -0.06882041       0.05119018      -0.18500884
Si       4.76545722       8.66368373       2.59486052       0.06882040      -0.05119018      -0.18500884
Si       0.39036317       3.73745380       2.29735388      -0.06882041      -0.05119018       0.18500884
Si       2.96827336       3.73745380       2.59486052      -0.06882041      -0.05119018      -0.18500884
Si       2.18754703       8.66368373       2.29735388       0.06882041      -0.05119018       0.18500884
Si       0.39036317       1.18877614       2.29735388      -0.06882041       0.05119018       0.18500884
Si       4.76545722       6.11500607       2.59486052       0.06882041       0.05119018      -0.18500884
16
Lattice="5.182541571294427 -6.721819707688736e-32 -1.8403257563891977e-31 1.2543276359853949e-31 9.820368611854555 -2.03413107701697e-15 2.2737956651526036e-31 9.97520611541428e-16 4.851541648786382" Properties=species:S:1:pos:R:3:forces:R:3 unique_starting_index=98 config_type=initial n_minim_iter=3 energy=-2605.052016809783 stress="-0.0004072731369390912 -6.163115891234265e-12 9.055438339447901e-13 -6.163115891234265e-12 -0.004594475163063154 5.172306073159477e-13 9.055438339447901e-13 5.172306073159477e-13 -0.009700710017027835" free_energy=-2605.052016809783 pbc="T T T"
Si       1.62316977       6.11693898      -0.13243232      -0.06093303      -0.04380225       0.14410957
Si       3.55937180       1.20675468       4.98397397       0.06093303      -0.04380225      -0.14410957
Si       4.21444056       8.61361394       4.98397397      -0.06093303       0.04380225      -0.14410957
Si       0.96810101       3.70342963      -0.13243232       0.06093303       0.04380224       0.14410957
Si       3.55937180       3.70342963       4.98397397       0.06093303       0.04380225      -0.14410957
Si       1.62316977       8.61361394      -0.13243232      -0.06093303       0.04380225       0.14410957
Si       0.96810101       1.20675468      -0.13243232       0.06093303      -0.04380225       0.14410957
Si       4.21444056       6.11693898       4.98397397      -0.06093303      -0.04380224      -0.14410957
Si       2.20931354       6.10299771       2.30578760       0.09287315      -0.00276373       0.05448838
Si       2.97322803       1.19281341       2.54575405      -0.09287315      -0.00276373      -0.05448838
Si       4.80058433       8.62755521       2.54575405       0.09287315       0.00276373      -0.05448838
Si       0.38195725       3.71737090       2.30578760      -0.09287315       0.00276373       0.05448838
Si       2.97322803       3.71737090       2.54575405      -0.09287315       0.00276373      -0.05448838
Si       2.20931354       8.62755521       2.30578760       0.09287315       0.00276373       0.05448838
Si       0.38195725       1.19281341       2.30578760      -0.09287315      -0.00276373       0.05448838
Si       4.80058433       6.10299771       2.54575405       0.09287315      -0.00276373      -0.05448838
16
Lattice="5.195656411634574 -6.70352321376997e-32 -1.8481194429917242e-31 1.2655448505325639e-31 9.855441303442353 -2.041165487872933e-15 2.2779158778155732e-31 1.0009459010802057e-15 4.86767099371531" Properties=species:S:1:pos:R:3:forces:R:3 unique_starting_index=98 config_type=initial n_minim_iter=4 energy=-2605.0622842264615 stress="0.005835244807012544 -1.8030100977273328e-12 2.6485699277514946e-12 -1.8030100977273328e-12 0.0016525905144356315 2.1930203598991807e-12 2.6485699277514946e-12 2.1930203598991807e-12 -0.0013627214271100675" free_energy=-2605.0622842264615 pbc="T T T"
Si       1.62528547       6.14211171      -0.13153920      -0.05551555      -0.07431017       0.17838568
Si       3.57037095       1.21439105       4.99921019       0.05551555      -0.07431017      -0.17838568
Si       4.22311367       8.64105025       4.99921019      -0.05551555       0.07431017      -0.17838568
Si       0.97254274       3.71332960      -0.13153920       0.05551555       0.07431017       0.17838568
Si       3.57037095       3.71332960       4.99921019       0.05551555       0.07431017      -0.17838568
Si       1.62528547       8.64105025      -0.13153920      -0.05551555       0.07431017       0.17838568
Si       0.97254274       1.21439105      -0.13153920       0.05551555      -0.07431017       0.17838568
Si       4.22311367       6.14211171       4.99921019      -0.05551555      -0.07431017      -0.17838568
Si       2.21898929       6.12767636       2.32365429       0.08260084      -0.01960962       0.00955919
Si       2.97666713       1.19995570       2.54401671      -0.08260084      -0.01960962      -0.00955919
Si       4.81681749       8.65548560       2.54401671       0.08260084       0.01960962      -0.00955919
Si       0.37883892       3.72776495       2.32365429      -0.08260084       0.01960962       0.00955919
Si       2.97666713       3.72776495       2.54401671      -0.08260084       0.01960962      -0.00955919
Si       2.21898929       8.65548560       2.32365429       0.08260084       0.01960962       0.00955919
Si       0.37883892       1.19995570       2.32365429      -0.08260084      -0.01960962       0.00955919
Si       4.81681749       6.12767636       2.54401671       0.08260084      -0.01960962      -0.00955919
16
Lattice="5.157282240451912 -6.657438865381583e-32 -1.8308699492207897e-31 1.268651723692318e-31 9.883355539414342 -2.0314751289007217e-15 2.2806578483449644e-31 1.0106687590626072e-15 4.877266018275979" Properties=species:S:1:pos:R:3:forces:R:3 unique_starting_index=98 config_type=initial n_minim_iter=5 energy=-2605.070520102065 stress="-0.0008205149182325475 3.1488782291163607e-13 -1.1644467231382687e-13 3.1488782291163607e-13 0.0023424467655677574 9.94098759262729e-13 -1.1644467231382687e-13 9.94098759262729e-13 -0.0012561440506312176" free_energy=-2605.070520102065 pbc="T T T"
Si       1.61154026       6.16133109      -0.12965157      -0.04521364      -0.08141474       0.18613908
Si       3.54574198       1.21965333       5.00691759       0.04521364      -0.08141473      -0.18613908
Si       4.19018138       8.66370221       5.00691759      -0.04521364       0.08141473      -0.18613908
Si       0.96710086       3.72202444      -0.12965157       0.04521364       0.08141474       0.18613908
Si       3.54574198       3.72202444       5.00691759       0.04521364       0.08141474      -0.18613908
Si       1.61154026       8.66370221      -0.12965157      -0.04521364       0.08141474       0.18613908
Si       0.96710086       1.21965333      -0.12965157       0.04521364      -0.08141474       0.18613908
Si       4.19018138       6.16133109       5.00691759      -0.04521364      -0.08141474      -0.18613908
Si       2.20598661       6.14692558       2.33541591       0.07094770      -0.02006898      -0.01749910
Si       2.95129563       1.20524781       2.54185011      -0.07094770      -0.02006898       0.01749910
Si       4.78462773       8.67810773       2.54185011       0.07094770       0.02006898       0.01749910
Si       0.37265451       3.73642996       2.33541591      -0.07094770       0.02006898      -0.01749910
Si       2.95129563       3.73642996       2.54185011      -0.07094770       0.02006898       0.01749910
Si       2.20598661       8.67810773       2.33541591       0.07094770       0.02006898      -0.01749910
Si       0.37265451       1.20524781       2.33541591      -0.07094770      -0.02006898      -0.01749910
Si       4.78462773       6.14692558       2.54185011       0.07094770      -0.02006899       0.01749910
16
Lattice="5.159715081971356 -6.859969563142264e-32 -1.8304868115639722e-31 1.2163942022977542e-31 9.775235749209548 -2.0077749729132335e-15 2.293270518066497e-31 1.0178234574890599e-15 4.9087626208912845" Properties=species:S:1:pos:R:3:forces:R:3 unique_starting_index=98 config_type=initial n_minim_iter=6 energy=-2605.086263052656 stress="-0.0028268343417379616 -3.683947860129107e-12 -8.336949128873407e-13 -3.683947860129107e-12 -0.010511164245793337 -1.0504522938708634e-12 -8.336949128873407e-13 -1.0504522938708634e-12 0.008253721902439984" free_energy=-2605.086263052656 pbc="T T T"
Si       1.60342867       6.09428289      -0.11001289      -0.01761002      -0.08851199       0.16227876
Si       3.55628641       1.20666501       5.01877551       0.01761002      -0.08851199      -0.16227876
Si       4.18328621       8.56857074       5.01877551      -0.01761002       0.08851199      -0.16227876
Si       0.97642887       3.68095286      -0.11001289       0.01761002       0.08851199       0.16227876
Si       3.55628641       3.68095286       5.01877551       0.01761002       0.08851199      -0.16227876
Si       1.60342867       8.56857074      -0.11001289      -0.01761002       0.08851199       0.16227876
Si       0.97642887       1.20666501      -0.11001289       0.01761002      -0.08851199       0.16227876
Si       4.18328621       6.09428289       5.01877551      -0.01761002      -0.08851199      -0.16227876
Si       2.22333747       6.08467238       2.37347408       0.05042873      -0.04084331      -0.03996126
Si       2.93637762       1.19705450       2.53528854      -0.05042873      -0.04084331       0.03996126
Si       4.80319501       8.57818125       2.53528854       0.05042873       0.04084331       0.03996126
Si       0.35652008       3.69056337       2.37347408      -0.05042873       0.04084331      -0.03996126
Si       2.93637762       3.69056337       2.53528854      -0.05042873       0.04084331       0.03996126
Si       2.22333747       8.57818125       2.37347408       0.05042873       0.04084331      -0.03996126
Si       0.35652008       1.19705450       2.37347408      -0.05042873      -0.04084331      -0.03996126
Si       4.80319501       6.08467238       2.53528854       0.05042873      -0.04084331       0.03996126
16
Lattice="5.195102512551114 -6.660447278191685e-32 -1.857292842857066e-31 1.2843910355075113e-31 9.938444444811433 -2.0028535095288287e-15 2.2552014352750405e-31 1.0209079981448021e-15 4.829054387666078" Properties=species:S:1:pos:R:3:forces:R:3 unique_starting_index=98 config_type=initial n_minim_iter=7 energy=-2605.149671452773 stress="0.0011041115597138172 7.30818393019387e-12 -1.3549554797736245e-12 7.30818393019387e-12 0.010213516323418688 7.009171347218012e-13 -1.3549554797736245e-12 7.009171347218012e-13 -0.0023162602128792772" free_energy=-2605.149671452773 pbc="T T T"
Si       1.59969239       6.19285227      -0.07205003      -0.04563067      -0.01736388       0.15838931
Si       3.59541013       1.22363004       4.90110441       0.04563067      -0.01736388      -0.15838931
Si       4.19724364       8.71481440       4.90110441      -0.04563067       0.01736388      -0.15838931
Si       0.99785887       3.74559218      -0.07205003       0.04563067       0.01736388       0.15838931
Si       3.59541013       3.74559218       4.90110441       0.04563067       0.01736388      -0.15838931
Si       1.59969239       8.71481440      -0.07205003      -0.04563067       0.01736388       0.15838931
Si       0.99785887       1.22363004      -0.07205003       0.04563067      -0.01736388       0.15838931
Si       4.19724364       6.19285227       4.90110441      -0.04563067      -0.01736388      -0.15838931
Si       2.26587807       6.19190577       2.36833689       0.08322951      -0.03025943      -0.06669133
Si       2.92922444       1.22268355       2.46071749      -0.08322951      -0.03025943       0.06669133
Si       4.86342933       8.71576090       2.46071749       0.08322951       0.03025943       0.06669133
Si       0.33167318       3.74653868       2.36833689      -0.08322951       0.03025943      -0.06669133
Si       2.92922444       3.74653868       2.46071749      -0.08322951       0.03025943       0.06669133
Si       2.26587807       8.71576090       2.36833689       0.08322951       0.03025943      -0.06669133
Si       0.33167318       1.22268355       2.36833689      -0.08322951      -0.03025943      -0.06669133
Si       4.86342933       6.19190577       2.46071749       0.08322951      -0.03025943       0.06669133
16
Lattice="5.244432629735491 -6.853576832489857e-32 -1.9000532520661386e-31 1.250809006536898e-31 9.874667113078726 -1.950722948931979e-15 2.2227707813515152e-31 1.0326695432625512e-15 4.791127268256193" Properties=species:S:1:pos:R:3:forces:R:3 unique_starting_index=98 config_type=initial n_minim_iter=8 energy=-2605.2267306698927 stress="0.0025128006160195105 -4.1749125245435053e-13 -2.5951704625638704e-13 -4.1749125245435053e-13 0.0036634815127442647 -8.506207128214598e-14 -2.5951704625638704e-13 -8.506207128214598e-14 -0.0004254824375909526" free_energy=-2605.2267306698927 pbc="T T T"
Si       1.58643310       6.14727610      -0.00151311      -0.05443056       0.09254365       0.06483326
Si       3.65799953       1.20994254       4.79264037       0.05443056       0.09254365      -0.06483326
Si       4.20864942       8.66472457       4.79264037      -0.05443056      -0.09254365      -0.06483326
Si       1.03578321       3.72739101      -0.00151311       0.05443056      -0.09254365       0.06483326
Si       3.65799953       3.72739101       4.79264037       0.05443056      -0.09254365      -0.06483326
Si       1.58643310       8.66472457      -0.00151311      -0.05443056      -0.09254365       0.06483326
Si       1.03578321       1.20994254      -0.00151311       0.05443056       0.09254365       0.06483326
Si       4.20864942       6.14727610       4.79264037      -0.05443056       0.09254365      -0.06483326
Si       2.33985756       6.16242544       2.40857109       0.07705258      -0.06008380      -0.08029847
Si       2.90457507       1.22509188       2.38255617      -0.07705258      -0.06008380       0.08029847
Si       4.96207388       8.64957523       2.38255617       0.07705258       0.06008380       0.08029847
Si       0.28235875       3.71224167       2.40857109      -0.07705258       0.06008380      -0.08029847
Si       2.90457507       3.71224167       2.38255617      -0.07705258       0.06008380       0.08029847
Si       2.33985756       8.64957523       2.40857109       0.07705258       0.06008380      -0.08029847
Si       0.28235875       1.22509188       2.40857109      -0.07705258      -0.06008380      -0.08029847
Si       4.96207388       6.16242544       2.38255617       0.07705259      -0.06008380       0.08029847
16
Lattice="5.25149198873931 -6.906093118389924e-32 -1.9193101931009463e-31 1.2386176582961064e-31 9.84566119552903 -2.002232381975363e-15 2.202760406494017e-31 1.0011086171929464e-15 4.777965567463733" Properties=species:S:1:pos:R:3:forces:R:3 unique_starting_index=98 config_type=initial n_minim_iter=9 energy=-2605.23582155331 stress="0.0011625391290764576 9.607586591461577e-13 -2.9376258369925254e-12 9.607586591461577e-13 -0.0004731438027893668 -9.658788482194994e-14 -2.9376258369925254e-12 -9.658788482194994e-14 -0.0003613531551155384" free_energy=-2605.23582155331 pbc="T T T"
Si       1.57508146       6.12766794       0.03077959      -0.04727456       0.14230317      -0.00922686
Si       3.67641053       1.20483734       4.74718598       0.04727456       0.14230317       0.00922686
Si       4.20082745       8.64082385       4.74718598      -0.04727456      -0.14230317       0.00922686
Si       1.05066454       3.71799325       0.03077959       0.04727456      -0.14230317      -0.00922686
Si       3.67641053       3.71799325       4.74718598       0.04727456      -0.14230317       0.00922686
Si       1.57508146       8.64082385       0.03077959      -0.04727456      -0.14230317      -0.00922686
Si       1.05066454       1.20483734       0.03077959       0.04727456       0.14230317      -0.00922686
Si       4.20082745       6.12766794       4.74718598      -0.04727456       0.14230317       0.00922686
Si       2.36730970       6.14725128       2.42520655       0.05323159      -0.06792481      -0.07011517
Si       2.88418229       1.22442068       2.35275902      -0.05323159      -0.06792481       0.07011517
Si       4.99305569       8.62124052       2.35275902       0.05323159       0.06792481       0.07011517
Si       0.25843630       3.69840992       2.42520655      -0.05323159       0.06792481      -0.07011517
Si       2.88418229       3.69840992       2.35275902      -0.05323159       0.06792481       0.07011517
Si       2.36730970       8.62124052       2.42520655       0.05323159       0.06792481      -0.07011517
Si       0.25843630       1.22442068       2.42520655      -0.05323159      -0.06792481      -0.07011517
Si       4.99305569       6.14725128       2.35275902       0.05323159      -0.06792481       0.07011517
16
Lattice="5.238423765135794 -6.891298382186752e-32 -1.927033622774703e-31 1.2378165424494742e-31 9.841729673885776 -1.991961960855637e-15 2.1932532544307597e-31 1.007864075685862e-15 4.787865564914079" Properties=species:S:1:pos:R:3:forces:R:3 unique_starting_index=98 config_type=initial n_minim_iter=10 energy=-2605.2407555101076 stress="-0.0005735311722056684 6.53283851120739e-12 -6.021420959069639e-13 6.53283851120739e-12 -0.0011571270147958314 -1.487548776446435e-13 -6.021420959069639e-13 -1.487548776446435e-13 0.0001519301663390644" free_energy=-2605.2407555101076 pbc="T T T"
Si       1.57395081       6.12680187       0.02343729      -0.04408577       0.12208196      -0.01244962
Si       3.66447296       1.20593703       4.76442827       0.04408577       0.12208196       0.01244962
Si       4.19316269       8.63579264       4.76442827      -0.04408577      -0.12208196       0.01244962
Si       1.04526107       3.71492780       0.02343729       0.04408577      -0.12208196      -0.01244962
Si       3.66447296       3.71492780       4.76442827       0.04408577      -0.12208196       0.01244962
Si       1.57395081       8.63579264       0.02343729      -0.04408577      -0.12208196      -0.01244962
Si       1.04526107       1.20593703       0.02343729       0.04408577       0.12208196      -0.01244962
Si       4.19316269       6.12680187       4.76442827      -0.04408577       0.12208196       0.01244962
Si       2.35570205       6.14186843       2.41998122       0.05258273      -0.04045603      -0.04344051
Si       2.88272172       1.22100360       2.36788434      -0.05258273      -0.04045603       0.04344051
Si       4.97491393       8.62072608       2.36788434       0.05258273       0.04045603       0.04344051
Si       0.26350983       3.69986124       2.41998122      -0.05258273       0.04045603      -0.04344051
Si       2.88272172       3.69986124       2.36788434      -0.05258273       0.04045603       0.04344051
Si       2.35570205       8.62072608       2.41998122       0.05258273       0.04045603      -0.04344051
Si       0.26350983       1.22100360       2.41998122      -0.05258273      -0.04045603      -0.04344051
Si       4.97491393       6.14186843       2.36788434       0.05258273      -0.04045603       0.04344051
16
Lattice="5.222158960726165 -6.855762018369053e-32 -1.9393798992511593e-31 1.2414976287984582e-31 9.847525630607791 -1.9887840717713095e-15 2.1773556844841835e-31 1.0117058292562116e-15 4.7959474788568555" Properties=species:S:1:pos:R:3:forces:R:3 unique_starting_index=98 config_type=initial n_minim_iter=11 energy=-2605.249539170417 stress="-0.0030444030551804715 8.676829651623561e-12 -2.6324783122893386e-14 8.676829651623561e-12 -0.0007550151982544612 -1.6029852524987528e-13 -2.6324783122893386e-14 -1.6029852524987528e-13 0.0010939903434809756" free_energy=-2605.249539170417 pbc="T T T"
Si       1.56665376       6.14204218       0.01888821      -0.04753252      -0.00456667      -0.02249447
Si       3.65550520       1.21827936       4.77705927       0.04753252      -0.00456667       0.02249447
Si       4.17773324       8.62924627       4.77705927      -0.04753252       0.00456667       0.02249447
Si       1.04442572       3.70548345       0.01888821       0.04753252       0.00456667      -0.02249447
Si       3.65550520       3.70548345       4.77705927       0.04753252       0.00456667       0.02249447
Si       1.56665376       8.62924627       0.01888821      -0.04753252       0.00456667      -0.02249447
Si       1.04442572       1.21827936       0.01888821       0.04753252      -0.00456667      -0.02249447
Si       4.17773324       6.14204218       4.77705927      -0.04753252      -0.00456667       0.02249447
Si       2.35027222       6.14049113       2.41588757       0.04559442       0.01160080      -0.01728486
Si       2.87188674       1.21672831       2.38005991      -0.04559442       0.01160080       0.01728486
Si       4.96135170       8.63079732       2.38005991       0.04559442      -0.01160080       0.01728486
Si       0.26080726       3.70703450       2.41588757      -0.04559442      -0.01160080      -0.01728486
Si       2.87188674       3.70703450       2.38005991      -0.04559442      -0.01160080       0.01728486
Si       2.35027222       8.63079732       2.41588757       0.04559442      -0.01160080      -0.01728486
Si       0.26080726       1.21672831       2.41588757      -0.04559442       0.01160080      -0.01728486
Si       4.96135170       6.14049113       2.38005991       0.04559442       0.01160080       0.01728486
16
Lattice="5.25282611161997 -6.885591431317631e-32 -1.978066641159255e-31 1.2431482462138503e-31 9.84793815834939 -1.976392069316375e-15 2.144923715882982e-31 1.0132410652615175e-15 4.772484354223282" Properties=species:S:1:pos:R:3:forces:R:3 unique_starting_index=98 config_type=initial n_minim_iter=12 energy=-2605.2549225588637 stress="0.0006792008408588034 6.892330413211616e-12 9.738386691541462e-13 6.892330413211616e-12 -0.00020773743811434945 1.3254234447238606e-13 9.738386691541462e-13 1.3254234447238606e-13 5.439401274514101e-05" free_energy=-2605.2549225588637 pbc="T T T"
Si       1.56646611       6.14678985       0.03181522      -0.05726357      -0.04369070      -0.06028754
Si       3.68636001       1.22282077       4.74066913       0.05726357      -0.04369070       0.06028754
Si       4.19287916       8.62511738       4.74066913      -0.05726357       0.04369070       0.06028754
Si       1.05994695       3.70114831       0.03181522       0.05726357       0.04369070      -0.06028754
Si       3.68636001       3.70114831       4.74066913       0.05726357       0.04369070       0.06028754
Si       1.56646611       8.62511738       0.03181522      -0.05726357       0.04369070      -0.06028754
Si       1.05994695       1.22282077       0.03181522       0.05726357      -0.04369070      -0.06028754
Si       4.19287916       6.14678985       4.74066913      -0.05726357      -0.04369070       0.06028754
Si       2.37850306       6.14023677       2.41218915       0.04337667       0.02984033      -0.00835775
Si       2.87432306       1.21626769       2.36029520      -0.04337667       0.02984033       0.00835775
Si       5.00491611       8.63167047       2.36029520       0.04337667      -0.02984033       0.00835775
Si       0.24791000       3.70770139       2.41218915      -0.04337667      -0.02984033      -0.00835775
Si       2.87432306       3.70770139       2.36029520      -0.04337667      -0.02984033       0.00835775
Si       2.37850306       8.63167047       2.41218915       0.04337667      -0.02984033      -0.00835775
Si       0.24791000       1.21626769       2.41218915      -0.04337667       0.02984033      -0.00835775
Si       5.00491611       6.14023677       2.36029520       0.04337667       0.02984033       0.00835775
16
Lattice="5.254227120434807 -6.843467207249902e-32 -2.008059214359126e-31 1.2542286481436651e-31 9.86849901077691 -2.0030060756633568e-15 2.1130586483161377e-31 1.0000097452577965e-15 4.762360577262369" Properties=species:S:1:pos:R:3:forces:R:3 unique_starting_index=98 config_type=initial n_minim_iter=13 energy=-2605.2604874547314 stress="0.00022986534147608918 -2.8263942369007253e-13 -1.3289514826087723e-12 -2.8263942369007253e-13 0.0021980495924533434 -7.284532934680093e-14 -1.3289514826087723e-12 -7.284532934680093e-14 -0.0005307815809057471" free_energy=-2605.2604874547314 pbc="T T T"
Si       1.55897842       6.16124801       0.02884856      -0.05614114      -0.05248351      -0.02613299
Si       3.69524870       1.22699851       4.73351201       0.05614114      -0.05248351       0.02613299
Si       4.18609198       8.64150050       4.73351201      -0.05614114       0.05248351       0.02613299
Si       1.06813514       3.70725100       0.02884856       0.05614114       0.05248351      -0.02613299
Si       3.69524870       3.70725100       4.73351201       0.05614114       0.05248351       0.02613299
Si       1.55897842       8.64150050       0.02884856      -0.05614114       0.05248351      -0.02613299
Si       1.06813514       1.22699851       0.02884856       0.05614114      -0.05248351      -0.02613299
Si       4.18609198       6.16124801       4.73351201      -0.05614114      -0.05248351       0.02613299
Si       2.38778117       6.15614895       2.41197748       0.04285275       0.00264732      -0.04861655
Si       2.86644595       1.22189945       2.35038310      -0.04285275       0.00264732       0.04861655
Si       5.01489473       8.64659956       2.35038310       0.04285275      -0.00264732       0.04861655
Si       0.23933239       3.71235006       2.41197748      -0.04285275      -0.00264732      -0.04861655
Si       2.86644595       3.71235006       2.35038310      -0.04285275      -0.00264732       0.04861655
Si       2.38778117       8.64659956       2.41197748       0.04285275      -0.00264732      -0.04861655
Si       0.23933239       1.22189945       2.41197748      -0.04285275       0.00264732      -0.04861655
Si       5.01489473       6.15614895       2.35038310       0.04285275       0.00264732       0.04861655
16