24
Lattice="5.496801723249723 -0.8592785718621534 -0.5729536918354837 -0.55907315285928 8.971214664008341 -0.7126498335902681 -0.27910882072141097 -0.344751828434011 12.707070104927256" Properties=species:S:1:pos:R:3:forces:R:3 unique_starting_index=298 config_type=initial n_minim_iter=1 energy=-3904.4033798051614 stress="-0.00011943217015059525 -4.476630236511929e-05 -3.6315761709577554e-05 -4.476630236511929e-05 -0.00010588031864693448 -4.716178163778599e-06 -3.6315761709577554e-05 -4.716178163778599e-06 -9.331735563557672e-05" free_energy=-3904.4033798051614 pbc="T T T"
Si       6.23948957       4.41077185       5.75145003      -0.00131475      -0.00000803      -0.00378613
Si       2.33977789       0.78425302      -0.56328078       0.01025410      -0.00592477      -0.00493721
Si      -0.86400702       1.45669745      -0.06924852       0.00174967      -0.00544651       0.00047106
Si       2.31270113       6.04220256      -0.45324726       0.00527519      -0.00130903       0.00394055
Si       3.01858841       0.39481394       8.61981418       0.00401373       0.00423739      -0.00086458
Si       0.48850984       5.22966098       8.68266333      -0.01748838      -0.00004647       0.00536402
Si       2.40803507       5.94700668       9.93939786      -0.00885652       0.00976864      -0.00746308
Si       2.38394639       2.87307123       1.74082440       0.00628989       0.00164187       0.00512295
Si       5.01586410       0.84806303       4.70666527       0.01396802      -0.00201244       0.00638566
Si       0.73003667       1.91691088       3.19341433       0.00244471      -0.00732419      -0.00099824
Si       0.02852723       0.54642806       7.36380719      -0.00476289       0.00093805       0.01824519
Si       3.65924508       4.72551060       8.38572427       0.00620154       0.00497392      -0.00664927
Si       3.08816561       4.84464797       6.10602996      -0.01515583      -0.01293046       0.00196989
Si       4.49003250       2.76688145       5.95005157      -0.00769627       0.00303231      -0.00501082
Si       4.31835762       6.56592413       2.78847600      -0.00107562       0.00187097       0.01675808
Si       6.14128267       7.70301936       1.71935179       0.00800600       0.00930493       0.00042118
Si       4.77692951       6.31333932       5.16457545      -0.00687308       0.01640956      -0.00645712
Si       4.21695492       7.25024614      -1.17423920       0.01203771       0.00648188       0.00976319
Si       1.72080683       3.25913519       7.96150772      -0.00599786      -0.00236930      -0.00627289
Si       0.92441426       7.93255728      -0.00909115      -0.00511272      -0.00596865       0.00472113
Si       2.80802228       5.16477223       1.64471945      -0.00005586      -0.00461458      -0.01312995
Si       1.13233528       2.76648207      -0.34183765       0.00426730       0.00150142      -0.00031359
Si      -1.41564378       2.03710298       2.15973601      -0.00026635      -0.00852706      -0.00823428
Si       2.95581891       8.54735371       2.61908755       0.00014829      -0.00367946      -0.00904573
24
Lattice="5.497293139930135 -0.8591531730064239 -0.5728367598184011 -0.558818920211848 8.971972893061313 -0.7126864405997423 -0.2787692240426039 -0.34474282539877465 12.70803612779835" Properties=species:S:1:pos:R:3:forces:R:3 unique_starting_index=298 config_type=initial n_minim_iter=2 energy=-3904.4033927388314 stress="3.271079769181627e-05 -1.1296136277388352e-05 -1.4397841873016386e-05 -1.1296136277388352e-05 5.193632246589463e-05 4.274913246507623e-06 -1.4397841873016386e-05 4.274913246507623e-06 2.5803557755186495e-05" free_energy=-3904.4033927388314 pbc="T T T"
Si       6.24043535       4.41140828       5.75209018      -0.00104152      -0.00067143      -0.00202345
Si       2.34003355       0.78439746      -0.56325765       0.01149737      -0.00638541      -0.00288314
Si      -0.86403801       1.45678501      -0.06927338       0.00155787      -0.00590616       0.00193019
Si       2.31314447       6.04281065      -0.45318425       0.00663815      -0.00022682       0.00400744
Si       3.01916254       0.39499863       8.62056663       0.00291126       0.00047084      -0.00172497
Si       0.48898664       5.23016823       8.68337207      -0.01591643       0.00094865       0.00479544
Si       2.40877600       5.94766510       9.94024614      -0.00944921       0.00874211      -0.00652386
Si       2.38434691       2.87341830       1.74104728       0.00582497       0.00277617       0.00510106
Si       5.01654753       0.84833727       4.70718836       0.01328789      -0.00170992       0.00720578
Si       0.73027771       1.91710741       3.19368746       0.00132416      -0.00811658      -0.00177081
Si       0.02876387       0.54650654       7.36439990      -0.00424313       0.00160827       0.01761793
Si       3.66003761       4.72609626       8.38648699       0.00498108       0.00399290      -0.00784576
Si       3.08880982       4.84519027       6.10661251      -0.01434437      -0.01305912       0.00307499
Si       4.49074322       2.76731504       5.95064668      -0.00657197       0.00410407      -0.00661307
Si       4.31910576       6.56666856       2.78886697      -0.00203950       0.00189974       0.01542101
Si       6.14223200       7.70393576       1.71969778       0.00816624       0.00932088       0.00033815
Si       4.77777669       6.31410723       5.16513065      -0.00691110       0.01636046      -0.00474186
Si       4.21761737       7.25103721      -1.17416220       0.01164604       0.00679771       0.00855740
Si       1.72132591       3.25951027       7.96217475      -0.00626884       0.00052779      -0.00620552
Si       0.92479023       7.93327444      -0.00902714      -0.00627406      -0.00533622       0.00415928
Si       2.80853757       5.16532587       1.64493220       0.00113698      -0.00417469      -0.01302907
Si       1.13254394       2.76676548      -0.34181974       0.00346758       0.00016951      -0.00171291
Si      -1.41564368       2.03722533       2.15985647       0.00041109      -0.00968704      -0.00771383
Si       2.95650271       8.54821252       2.61939810       0.00020945      -0.00244571      -0.00942043
24
Lattice="5.497148218256463 -0.8582488419333292 -0.5720181871118112 -0.5576457269781261 8.970781621964008 -0.7129275944379654 -0.27695365467838434 -0.3449572966680841 12.708095077555225" Properties=species:S:1:pos:R:3:forces:R:3 unique_starting_index=298 config_type=initial n_minim_iter=3 energy=-3904.403419713131 stress="1.4708391618708643e-05 9.929585327489373e-05 6.472324947772244e-05 9.929585327489373e-05 -8.819670992259031e-05 -3.1075058586794354e-06 6.472324947772244e-05 -3.1075058586794354e-06 1.8616339897401985e-05" free_energy=-3904.403419713131 pbc="T T T"
Si       6.24196946       4.41164420       5.75294467      -0.00154058      -0.00173946      -0.00133008
Si       2.34022771       0.78456651      -0.56297245       0.01124578      -0.00705713      -0.00324935
Si      -0.86382973       1.45640862      -0.06940612       0.00357083      -0.00269164      -0.00052679
Si       2.31404706       6.04238708      -0.45290192       0.00990448      -0.00167141       0.00135475
Si       3.02055942       0.39524989       8.62104859      -0.00078448      -0.00042067       0.00094449
Si       0.49081688       5.22944340       8.68347918      -0.01147904       0.00270401       0.00573475
Si       2.41100111       5.94720532       9.94048886      -0.01137294       0.01025609      -0.00378581
Si       2.38511423       2.87340104       1.74142434       0.00313233       0.00154103       0.00391058
Si       5.01758334       0.84884663       4.70803260       0.01020202      -0.00408442       0.00499900
Si       0.73104927       1.91681939       3.19376592      -0.00151802      -0.00400423      -0.00190308
Si       0.02987132       0.54633399       7.36466802      -0.00017635       0.00219816       0.01558917
Si       3.66205313       4.72593661       8.38691274       0.00124682       0.00168619      -0.00816168
Si       3.09025705       4.84476054       6.10706351      -0.01147674      -0.01027135       0.00292228
Si       4.49198087       2.76755697       5.95122637      -0.00587631       0.00549893      -0.00626971
Si       4.32048222       6.56644007       2.78960365      -0.00159592      -0.00166571       0.01064440
Si       6.14375733       7.70393564       1.72048581       0.00725899       0.00459635       0.00105003
Si       4.77940890       6.31411364       5.16569981      -0.00776375       0.01282807      -0.00469032
Si       4.21867509       7.25083598      -1.17356637       0.00902786       0.00222220       0.00587018
Si       1.72290593       3.25921055       7.96235419      -0.00573507       0.00148536      -0.00567939
Si       0.92586090       7.93234606      -0.00897443      -0.00642297      -0.00284491       0.00476695
Si       2.80956123       5.16500027       1.64510793       0.00488191       0.00005346      -0.00885473
Si       1.13294750       2.76659278      -0.34172042       0.00106686       0.00245281      -0.00012237
Si      -1.41504745       2.03661446       2.15953298       0.00331532      -0.01123024      -0.00564748
Si       2.95814726       8.54748690       2.61959060       0.00088897       0.00015848      -0.00756577
24
Lattice="5.496874286919035 -0.8597846355982199 -0.5714986050197924 -0.5598837992824869 8.97300210306526 -0.7133031648367183 -0.27591469473462854 -0.3455743089647704 12.70640707352531" Properties=species:S:1:pos:R:3:forces:R:3 unique_starting_index=298 config_type=initial n_minim_iter=4 energy=-3904.4035189374954 stress="-7.80628666991066e-05 -2.510319924605512e-05 8.202613802294719e-05 -2.510319924605512e-05 0.00012336668742229023 -3.677815695371972e-05 8.202613802294719e-05 -3.677815695371972e-05 -7.579883948651648e-05" free_energy=-3904.4035189374954 pbc="T T T"
Si       6.24070615       4.41077085       5.75227875      -0.01224036       0.00439612      -0.00013290
Si       2.34056814       0.78375032      -0.56299070      -0.00363397       0.00113346      -0.00058259
Si      -0.86398952       1.45660734      -0.06945082       0.01349274      -0.00422466      -0.00488478
Si       2.31280715       6.04316318      -0.45272637       0.00330512       0.00537694      -0.00687722
Si       3.02100709       0.39424209       8.62003922      -0.00548040       0.00133898       0.00161010
Si       0.48906999       5.23017797       8.68246156       0.00492625      -0.00192440      -0.00251429
Si       2.40938894       5.94811949       9.93864552      -0.00580712       0.00527835      -0.00359040
Si       2.38469892       2.87353871       1.74156247       0.00535259      -0.00364637      -0.00126181
Si       5.01818216       0.84741309       4.70818645       0.00273258      -0.00560655       0.00530196
Si       0.73081060       1.91643653       3.19319109      -0.00087206      -0.00246101      -0.00088813
Si       0.03003480       0.54620949       7.36484961       0.00101756       0.00334623       0.00677964
Si       3.66149670       4.72595556       8.38531770      -0.01709504       0.00694359       0.00601061
Si       3.08830059       4.84395553       6.10644288      -0.00195913      -0.00328687      -0.00461926
Si       4.49091177       2.76707443       5.95020692      -0.00152259       0.00136090      -0.00569136
Si       4.31858235       6.56680953       2.79023724      -0.00623699       0.00415570      -0.00631747
Si       6.14201224       7.70465286       1.72037367      -0.00135440      -0.00212935       0.00566525
Si       4.77734577       6.31518700       5.16471915      -0.00458199      -0.00440197       0.01039983
Si       4.21720678       7.25189295      -1.17288792      -0.00602009       0.00212878      -0.00153497
Si       1.72212157       3.25916021       7.96085204      -0.00512356       0.00586559      -0.00447447
Si       0.92339602       7.93359034      -0.00898552       0.00843573      -0.00600082       0.00318213
Si       2.80828594       5.16517190       1.64401739       0.01168460      -0.00037548       0.00285556
Si       1.13235479       2.76701921      -0.34180171       0.01128010      -0.00523206       0.00089244
Si      -1.41521992       2.03665855       2.15854220      -0.00095254      -0.00206757       0.00180314
Si       2.95599671       8.54843235       2.61843896       0.01065295       0.00003248      -0.00113100
24
Lattice="5.497663411293389 -0.8598190087150521 -0.57246601467549 -0.5600670749927946 8.971537519081778 -0.712760053011982 -0.2779133756010935 -0.3447551460738259 12.707822723961431" Properties=species:S:1:pos:R:3:forces:R:3 unique_starting_index=298 config_type=initial n_minim_iter=5 energy=-3904.4035432445476 stress="2.2983616007983887e-05 -3.165351003507194e-05 3.282004312690188e-06 -3.165351003507194e-05 -6.904405075973476e-06 5.995012416981466e-06 3.282004312690188e-06 5.995012416981466e-06 -5.777050629782148e-06" free_energy=-3904.4035432445476 pbc="T T T"
Si       6.24042259       4.41025416       5.75217705      -0.01254633       0.00482853       0.00104182
Si       2.34104827       0.78345875      -0.56341053      -0.00163233       0.00135922       0.00012031
Si      -0.86405755       1.45631901      -0.06923884       0.01091016       0.00155928      -0.00348265
Si       2.31310713       6.04211770      -0.45275533       0.00329824       0.00554128      -0.01037888
Si       3.02004190       0.39463134       8.62053243      -0.00202768       0.00272166       0.00238841
Si       0.48748496       5.22985450       8.68370291       0.00474797      -0.00291975      -0.00326402
Si       2.40785978       5.94782535       9.93963304      -0.00391580       0.00275928      -0.00282043
Si       2.38472941       2.87313927       1.74160812       0.00322379      -0.00872449       0.00008271
Si       5.01820864       0.84738770       4.70806761       0.00154375      -0.00430511       0.00238385
Si       0.73036430       1.91621100       3.19351937       0.00005235       0.00080510      -0.00105920
Si       0.02884407       0.54658939       7.36591073      -0.00098014       0.00306486       0.00563628
Si       3.66052919       4.72567023       8.38587568      -0.01709672       0.00776616       0.00846954
Si       3.08744186       4.84330928       6.10694188      -0.00207946      -0.00093442      -0.00540095
Si       4.49038973       2.76692812       5.95023547      -0.00201551      -0.00083790      -0.00598937
Si       4.31847833       6.56584094       2.79041824      -0.00526899       0.00462702      -0.00774875
Si       6.14240101       7.70345947       1.72009038      -0.00128699      -0.00649340       0.00574451
Si       4.77687706       6.31453632       5.16489040      -0.00569391      -0.00717561       0.01138897
Si       4.21784257       7.25063019      -1.17314709      -0.00762150      -0.00319469      -0.00206798
Si       1.72092844       3.25908998       7.96156588      -0.00440668       0.00851456      -0.00368053
Si       0.92326443       7.93222140      -0.00859553       0.00928453      -0.00569800       0.00386440
Si       2.80830415       5.16433297       1.64393390       0.01314144       0.00215815       0.00388604
Si       1.13254761       2.76652347      -0.34186062       0.01075521      -0.00532391       0.00041823
Si      -1.41577189       2.03637293       2.15903806      -0.00077392      -0.00086810       0.00048553
Si       2.95577645       8.54712183       2.61866656       0.01038852       0.00077030      -0.00001784
24
Lattice="5.497022921886471 -0.8592162129721945 -0.5731168771880645 -0.5588812415183992 8.971946009756913 -0.7128690379097029 -0.27938173365644503 -0.3449935524862682 12.708578786285871" Properties=species:S:1:pos:R:3:forces:R:3 unique_starting_index=298 config_type=initial n_minim_iter=6 energy=-3904.4035590148674 stress="-6.532002441715488e-05 4.8550143747518535e-05 -5.482959362265352e-05 4.8550143747518535e-05 3.160918067353945e-05 -8.830159073781188e-06 -5.482959362265352e-05 -8.830159073781188e-06 3.483601959849347e-05" free_energy=-3904.4035590148674 pbc="T T T"
Si       6.23944963       4.41116857       5.75172510      -0.01337971       0.00321396       0.00209933
Si       2.34096113       0.78377316      -0.56373221      -0.00281539      -0.00200183       0.00206098
Si      -0.86365916       1.45629372      -0.06920188       0.01156408       0.00148483      -0.00270670
Si       2.31366622       6.04276001      -0.45323509       0.00518840       0.00431205      -0.00966339
Si       3.01874351       0.39490348       8.62069168      -0.00062461       0.00156068       0.00276119
Si       0.48705049       5.23002785       8.68404332       0.00422643      -0.00135257      -0.00440507
Si       2.40706895       5.94832575       9.93978466      -0.00319530       0.00357649      -0.00072680
Si       2.38464966       2.87345694       1.74140361       0.00171788      -0.00526739       0.00119090
Si       5.01726618       0.84788862       4.70779117       0.00173866      -0.00369486       0.00183955
Si       0.73013907       1.91633539       3.19357134       0.00269464       0.00072552      -0.00036950
Si       0.02804379       0.54655019       7.36642747      -0.00255935       0.00168191       0.00422303
Si       3.65954006       4.72630522       8.38592316      -0.01537510       0.00622078       0.00574404
Si       3.08690164       4.84378021       6.10681349      -0.00166457       0.00169959      -0.00561360
Si       4.48949260       2.76751204       5.94993326      -0.00108435      -0.00034875      -0.00577478
Si       4.31838262       6.56668851       2.78994179      -0.00179925       0.00371939      -0.00591220
Si       6.14243077       7.70450078       1.71943130      -0.00304273      -0.00629661       0.00494527
Si       4.77640896       6.31531122       5.16464535      -0.00745234      -0.00493224       0.01135274
Si       4.21830648       7.25149563      -1.17380459      -0.00938862      -0.00258431      -0.00163789
Si       1.72013771       3.25943027       7.96171269      -0.00368782       0.00689291      -0.00343140
Si       0.92416354       7.93266522      -0.00876534       0.01135332      -0.00319446       0.00385494
Si       2.80855289       5.16491619       1.64363530       0.01079662      -0.00059154       0.00145386
Si       1.13290448       2.76675136      -0.34204829       0.00740501      -0.00423402       0.00000413
Si      -1.41562948       2.03623943       2.15927860      -0.00113076      -0.00272525      -0.00054531
Si       2.95625471       8.54787152       2.61832194       0.01051487       0.00213573      -0.00074331
24
Lattice="5.497729787080461 -0.8590815354022548 -0.5728891544831233 -0.5588245383148078 8.971419145182097 -0.7126706550066335 -0.27898960414583435 -0.3447653823217573 12.707373506871177" Properties=species:S:1:pos:R:3:forces:R:3 unique_starting_index=298 config_type=initial n_minim_iter=7 energy=-3904.403629375527 stress="6.834465120931359e-05 6.650035945330378e-05 -2.7828036145094725e-05 6.650035945330378e-05 -6.324477681203416e-05 -4.4944342467319886e-06 -2.7828036145094725e-05 -4.4944342467319886e-06 -2.7984223120845007e-05" free_energy=-3904.403629375527 pbc="T T T"
Si       6.23984126       4.41135610       5.75152396      -0.00553226       0.00124185      -0.00058605
Si       2.34128281       0.78371187      -0.56359060       0.00722092      -0.00625327       0.00223015
Si      -0.86309698       1.45621779      -0.06938370       0.00259086       0.00150116      -0.00169069
Si       2.31437310       6.04272962      -0.45354011       0.00511481      -0.00249337      -0.00107943
Si       3.01935870       0.39521241       8.62012942      -0.00218179       0.00192380       0.00071062
Si       0.48761188       5.22977217       8.68319984      -0.01271679       0.00552975       0.00235217
Si       2.40750672       5.94848216       9.93885096      -0.00538129       0.00591017      -0.00017136
Si       2.38529403       2.87296844       1.74143604       0.00243281       0.00140064       0.00065576
Si       5.01834102       0.84773754       4.70773640       0.00065216      -0.00254110       0.00069427
Si       0.73041546       1.91626388       3.19326115       0.00116428      -0.00062322      -0.00013676
Si       0.02821785       0.54681658       7.36622955      -0.00118845      -0.00007772       0.00357154
Si       3.65950958       4.72668182       8.38567837       0.00037055      -0.00102468      -0.00095261
Si       3.08735994       4.84351423       6.10616030      -0.00678560       0.00175503      -0.00251537
Si       4.49018311       2.76755613       5.94917730      -0.00134619      -0.00009803      -0.00322303
Si       4.31890967       6.56668181       2.78968147       0.00337864       0.00131603       0.00161935
Si       6.14344119       7.70393223       1.71992689       0.00567380      -0.00463635       0.00393403
Si       4.77691938       6.31492773       5.16500705      -0.00727488       0.00061364       0.00486172
Si       4.21863127       7.25103535      -1.17345594       0.00608307      -0.00188095       0.00027646
Si       1.72039595       3.25986174       7.96081110      -0.00136591       0.00250189      -0.00269511
Si       0.92489970       7.93190833      -0.00833570      -0.00215763       0.00148420       0.00053599
Si       2.80980732       5.16475514       1.64372412       0.00472438      -0.00660921      -0.00561217
Si       1.13367002       2.76634754      -0.34191927       0.00398608      -0.00017806      -0.00017251
Si      -1.41573664       2.03594025       2.15900535       0.00278758      -0.00208155      -0.00266122
Si       2.95747987       8.54753428       2.61821399      -0.00024914       0.00331934       0.00005425
24
Lattice="5.497090626959298 -0.8596111646219748 -0.5726089049962821 -0.5596456978436596 8.97128823536289 -0.7123346124948232 -0.27790324809247335 -0.34399836964777025 12.709800004064954" Properties=species:S:1:pos:R:3:forces:R:3 unique_starting_index=298 config_type=initial n_minim_iter=8 energy=-3904.4036525276174 stress="-2.158499133505105e-05 1.5679636387865128e-05 2.1254064722935138e-05 1.5679636387865128e-05 -8.948575493137084e-05 1.9000236913402343e-05 2.1254064722935138e-05 1.9000236913402343e-05 0.0001285795057133863" free_energy=-3904.4036525276174 pbc="T T T"
Si       6.23875804       4.41114838       5.75338848      -0.00441026       0.00194162       0.00064762
Si       2.34103734       0.78332975      -0.56349246       0.00744419      -0.00510874       0.00250262
Si      -0.86279751       1.45622045      -0.06946413       0.00027834       0.00083640       0.00091537
Si       2.31372431       6.04249974      -0.45329286       0.00303814      -0.00649113       0.00199105
Si       3.01960970       0.39550890       8.62211800      -0.00228765       0.00221669       0.00357441
Si       0.48757335       5.23013678       8.68523444      -0.01393164       0.00553932       0.00121716
Si       2.40717601       5.94899932       9.94116337      -0.00604690       0.00604832       0.00222990
Si       2.38505206       2.87266278       1.74221234       0.00299551       0.00277133      -0.00199283
Si       5.01826669       0.84737119       4.70927453      -0.00051615      -0.00195048       0.00161697
Si       0.73043755       1.91624784       3.19400275       0.00025100      -0.00128066       0.00050634
Si       0.02866971       0.54732675       7.36811633      -0.00134499      -0.00028457      -0.00047625
Si       3.65894283       4.72698721       8.38794339       0.00177760      -0.00082815      -0.00297820
Si       3.08672199       4.84330998       6.10776758      -0.00672869       0.00202336       0.00187293
Si       4.48970210       2.76749261       5.95059066      -0.00151274      -0.00403053      -0.00490387
Si       4.31787171       6.56647466       2.79100033       0.00320817      -0.00077754       0.00587848
Si       6.14222555       7.70329021       1.72137254       0.00734239      -0.00394955      -0.00057682
Si       4.77586306       6.31476406       5.16699723      -0.00653780       0.00322690       0.00093514
Si       4.21735811       7.25047912      -1.17284822       0.00864019      -0.00171458      -0.00334039
Si       1.72031156       3.26032694       7.96248142      -0.00087628       0.00172332      -0.00119043
Si       0.92418674       7.93150027      -0.00763949      -0.00375956       0.00261490       0.00315087
Si       2.80948521       5.16444744       1.64443159       0.00345653      -0.00643902      -0.00943535
Si       1.13357424       2.76606297      -0.34174245       0.00714237       0.00144720      -0.00011232
Si      -1.41557010       2.03596784       2.15931319       0.00448761      -0.00119290      -0.00419431
Si       2.95680240       8.54728924       2.61931192      -0.00210940       0.00365847       0.00216190
24
Lattice="5.497309869449718 -0.8603398977594214 -0.5725794025009863 -0.5604998643587847 8.972910102002858 -0.7113006725207072 -0.27794588932790976 -0.3428231143605888 12.70664234582599" Properties=species:S:1:pos:R:3:forces:R:3 unique_starting_index=298 config_type=initial n_minim_iter=9 energy=-3904.4037173370098 stress="5.926654524441126e-06 8.455613034883593e-06 8.68416822801018e-06 8.455613034883593e-06 1.4571344394987493e-05 7.234158991517541e-05 8.68416822801018e-06 7.234158991517541e-05 -4.6386359806042856e-05" free_energy=-3904.4037173370098 pbc="T T T"
Si       6.23717485       4.41228212       5.75228050      -0.00363779       0.00328181      -0.00065164
Si       2.34188017       0.78260894      -0.56342154       0.00606802      -0.00295814       0.00595739
Si      -0.86181798       1.45625462      -0.06953016      -0.00120804       0.00033421      -0.00087578
Si       2.31414331       6.04358803      -0.45313853      -0.00227851      -0.00699616       0.00307459
Si       3.01950412       0.39644610       8.62019053      -0.00643957       0.00172080      -0.00155465
Si       0.48588554       5.23193244       8.68374196      -0.01513754       0.00817031       0.00141811
Si       2.40540711       5.95193739       9.93864269      -0.00274310       0.00353608       0.00272342
Si       2.38558874       2.87278287       1.74237915       0.00453022       0.00594731      -0.00490746
Si       5.01935745       0.84690872       4.70891844      -0.00866917       0.00090401      -0.00054979
Si       0.73039109       1.91629350       3.19321031       0.00181662      -0.00233462       0.00185926
Si       0.02820259       0.54846813       7.36811351       0.00006141      -0.00224573      -0.00827345
Si       3.65752641       4.72914638       8.38632142       0.00182203      -0.00580120       0.00219713
Si       3.08492319       4.84357880       6.10645596      -0.00590476       0.00892288      -0.00088200
Si       4.48885567       2.76834923       5.94830786       0.00274793      -0.00692074      -0.00044689
Si       4.31693264       6.56800182       2.79150640       0.00583062      -0.00033789       0.00038090
Si       6.14229089       7.70428750       1.72221021       0.00745577      -0.00679929       0.00169887
Si       4.77415099       6.31662994       5.16697008      -0.00444847      -0.00044218       0.00550542
Si       4.21720349       7.25149612      -1.17149392       0.01035548      -0.00123687      -0.00719017
Si       1.71916742       3.26223168       7.96000898       0.00189594       0.00059143       0.00100683
Si       0.92371700       7.93213057      -0.00621605      -0.00308413       0.00462349      -0.00129967
Si       2.81032489       5.16489978       1.64364781       0.00353382      -0.01246365      -0.00462299
Si       1.13459559       2.76608062      -0.34145457       0.00804937      -0.00131858      -0.00122845
Si      -1.41571076       2.03581496       2.15838745       0.00505096       0.00689940      -0.00235703
Si       2.95690253       8.54884612       2.61882623      -0.00566711       0.00492334       0.00901804
24
Lattice="5.497528016115253 -0.860467674061593 -0.5725245853353765 -0.560883535595107 8.972936021655409 -0.7127386646358075 -0.27809584568675344 -0.3448280014799 12.707024132609911" Properties=species:S:1:pos:R:3:forces:R:3 unique_starting_index=298 config_type=initial n_minim_iter=10 energy=-3904.4037297545883 stress="2.003631005250916e-05 -1.4384553586069353e-05 2.7369890254508093e-06 -1.4384553586069353e-05 4.289887816607113e-06 -3.245840395973113e-05 2.7369890254508093e-06 -3.245840395973113e-05 -1.873079876797938e-05" free_energy=-3904.4037297545883 pbc="T T T"
Si       6.23690368       4.41112215       5.75163438      -0.00407303       0.00349346      -0.00047268
Si       2.34208845       0.78248493      -0.56358564       0.00543465      -0.00489019       0.00668359
Si      -0.86173341       1.45623579      -0.06978990      -0.00078191       0.00049970      -0.00142029
Si       2.31410758       6.04349766      -0.45420594      -0.00225731      -0.00756120       0.00411371
Si       3.01943955       0.39500206       8.62033185      -0.00653964       0.00370776       0.00173312
Si       0.48533120       5.23050907       8.68315423      -0.01530374       0.00899574       0.00045465
Si       2.40491181       5.95037568       9.93783305      -0.00241131       0.00293598       0.00415940
Si       2.38566020       2.87234307       1.74197103       0.00311307       0.00400662      -0.00493775
Si       5.01956030       0.84585101       4.70895833      -0.00840857      -0.00147652      -0.00171064
Si       0.73032442       1.91563632       3.19295664       0.00214650      -0.00128444       0.00177949
Si       0.02803015       0.54733239       7.36845689      -0.00064226      -0.00248411      -0.01065627
Si       3.65719494       4.72771029       8.38574461       0.00172280      -0.00507742       0.00007734
Si       3.08450248       4.84231143       6.10576267      -0.00436047       0.00973331      -0.00052847
Si       4.48871652       2.76718650       5.94779561       0.00263435      -0.00473513       0.00106091