12
Lattice="4.25178 3.8856365087124513e-16 1.7898984015737583e-16 -1.025675138790989 6.7502913776048254 1.6855298604909076e-15 -0.35109134823193167 -0.4401557691741789 8.089209531991326" Properties=species:S:1:pos:R:3:forces:R:3 unique_starting_index=44 config_type=initial n_minim_iter=1 energy=-1921.2000655636048 stress="-0.4321296113413762 -0.19659175609506424 -0.28671443087585063 0.01827063350511315 -0.07794471900445896 0.044961262107902654" pbc="T T T"
Si      -0.47942992       2.71851394       6.83127274     -18.40857185       9.84367394      -1.30076472
Si       0.03606287       3.79180642       2.85375745      -5.84937124      -0.81565725       4.45310711
Si       0.07347655       4.85392495       5.38874341       3.12701766       0.82629243      -4.03723902
Si       1.52730063       3.25707285       3.86210330       6.99224013      -2.49876602       4.13103010
Si       3.13067447       4.78817897       7.00218560      -0.29477057       8.03499488      -1.64148932
Si       2.38486625       1.26249752       5.79059674       6.07861057      -2.00438319      -5.52488079
Si       2.82122449       4.06041971       0.21454525     -24.80638271      -9.92833593      -8.24473711
Si      -0.17739385       4.39787398       1.15033818      18.85782184       8.83258301       7.49778922
Si       0.89195741       1.89473356       6.80516724      17.84452836       0.07740404       8.78066194
Si       3.87144575       0.91022260       2.34072845       0.41581279       0.69199590      -0.45071520
Si       0.30256068       0.51675547       5.81048730      -5.41633586      -9.20977839      -8.48173917
Si       1.62480647       0.04015885       7.45636236       1.45940087      -3.85002343       4.81897696
12
Lattice="4.2946604553310594 -0.004472381174049049 0.007759513064918755 -1.0431199014667747 6.782254682359377 -0.004757750975277755 -0.3394063799247583 -0.445258599387742 8.142796856510524" Properties=species:S:1:pos:R:3:forces:R:3 unique_starting_index=44 config_type=initial n_minim_iter=2 energy=-1923.1399454372618 stress="-0.3959703011200819 -0.17794945044140142 -0.2583800848369225 0.017379748703921994 -0.07086227002400282 0.03930978531208799" pbc="T T T"
Si      -0.47651827       2.72952653       6.87473709     -16.86544774       8.88201577      -1.41738917
Si       0.03705621       3.80781547       2.87171394      -5.09961690      -0.95430835       4.37905242
Si       0.07926132       4.87383473       5.42239592       2.98049968       0.73524507      -3.72159300
Si       1.54703349       3.26846524       3.88971615       6.34104635      -2.23864192       3.75739247
Si       3.16995973       4.80460678       7.05246444      -0.16639828       7.70129969      -1.65989270
Si       2.41877138       1.26308783       5.83253843       5.83146179      -1.93335944      -5.17509348
Si       2.84329171       4.07494349       0.21855726     -22.88269361      -9.23215367      -7.21359661
Si      -0.17980436       4.41857525       1.15657693      17.12112731       8.16156477       6.66281763
Si       0.91318352       1.89956042       6.85233407      16.32337466       0.75191681       8.51532848
Si       3.91384666       0.90938358       2.36299660       0.36087938       0.73379415      -0.45663715
Si       0.31512501       0.51539314       5.84878102      -5.18862338      -8.85037614      -8.16310154
Si       1.65490746       0.03505861       7.50960818       1.24439073      -3.75699673       4.49271264
12
Lattice="4.895137179130716 -0.06627536715327349 0.12036789857050427 -1.286096304382671 7.207497440036049 -0.07521928682696107 -0.16835012026311744 -0.5187955901656784 8.862939323565795" Properties=species:S:1:pos:R:3:forces:R:3 unique_starting_index=44 config_type=initial n_minim_iter=3 energy=-1938.418477370088 stress="-0.08656926376786998 -0.044949206444348924 -0.06771853866158298 0.008300907443412076 -0.009098941759999488 0.009194720375492436" pbc="T T T"
Si      -0.43061432       2.87163560       7.45517725      -6.46004910       2.71625461      -1.54713742
Si       0.05451340       4.01813831       3.11122263       0.13223767      -1.59956845       1.84835042
Si       0.16647615       5.13432597       5.87163885       1.48780934       0.21724362      -0.60819067
Si       1.82824828       3.41593875       4.26230371       0.66235622      -0.14226960       1.12703958
Si       3.72741593       5.01677194       7.73099194       0.87469494       4.09398439      -2.44866342
Si       2.89991905       1.26504905       6.40004639       3.53021168      -0.75374487      -2.36106778
Si       3.15097166       4.26624563       0.27443055      -8.37727170      -3.89241053      -1.39853414
Si      -0.21028855       4.69279892       1.23797477       5.45646651       3.24815946       1.81423570
Si       1.21884193       1.95873981       7.48895470       6.70841391       3.47280760       4.94714693
Si       4.50992249       0.89451698       2.66925506      -0.74120445       0.68418799       1.60526183
Si       0.49562610       0.49214166       6.36267638      -3.41990332      -5.63577125      -4.05817490
Si       2.08360483      -0.03963353       8.22918691       0.14623831      -2.40887298       1.07973388
12
Lattice="5.170426053674107 -0.0979774273524213 0.15541810066595257 -1.40283684557237 7.422521180374545 -0.12584037399923856 -0.12111561342988714 -0.5802291852720233 9.25079652540232" Properties=species:S:1:pos:R:3:forces:R:3 unique_starting_index=44 config_type=initial n_minim_iter=4 energy=-1941.097508099089 stress="-0.026139193194890824 -0.012180088593600499 -0.03076247727590884 0.005627673876381726 0.0062044541476747985 0.007721716145934124" pbc="T T T"
Si      -0.44611064       2.92371176       7.75649659      -3.77105914       0.77158461      -0.51250797
Si       0.05245862       4.11264147       3.22974912       0.68307276      -0.87515726       0.59185766
Si       0.18379457       5.24967792       6.09883283       0.57944124       0.40564074       0.09008120
Si       1.93743700       3.47983076       4.44313003      -0.39606020      -0.25562756       0.62262829
Si       3.95375627       5.10683785       8.05630451       0.69272187       3.05748591      -1.88612464
Si       3.10286741       1.24779359       6.68387146       2.50095627      -0.64155882      -0.74463474
Si       3.27936086       4.36014893       0.27726169      -4.92889928      -2.82867888      -0.93954899
Si      -0.22800552       4.82924839       1.27011002       2.81508311       2.06641790       0.91708872
Si       1.33966032       1.97491729       7.82508153       4.01857751       2.66607592       3.57869814
Si       4.77120351       0.88063077       2.81164646      -0.18483858       0.47531896       1.18154978
Si       0.54897454       0.45640494       6.62953464      -2.19726400      -3.84839952      -2.67857138
Si       2.25098380      -0.10305695       8.60321872       0.18826845      -0.99310201      -0.22051609
12
Lattice="5.33012466733196 -0.1454885115536845 0.12396866150550642 -1.516792073677467 7.542007128011449 -0.1715228885768223 -0.18921829672993182 -0.6471848721814442 9.593081740861827" Properties=species:S:1:pos:R:3:forces:R:3 unique_starting_index=44 config_type=initial n_minim_iter=5 energy=-1942.1426691394565 stress="-0.0008784833602318305 0.015178679056893178 0.0036245114868255516 0.006190127373638269 0.007151796687908706 0.002881859267935857" pbc="T T T"
Si      -0.56596125       2.92348512       8.01904613      -2.63136655       0.21357713      -0.00220965
Si      -0.00618780       4.14657566       3.32164313       0.11578821      -0.21375167       0.12832944
Si       0.09562890       5.28548604       6.28410499       0.06215900       0.74230690       0.39301546
Si       1.92847336       3.48314104       4.56965211       0.53081362      -1.15682055      -0.10561200
Si       3.96824581       5.10595408       8.27725437       0.42723293       2.40480394      -1.11402955
Si       3.14878451       1.19245468       6.89373266       1.75513474      -0.49236699      -0.16769367
Si       3.31232367       4.38215165       0.22811975      -3.39036885      -2.42559830      -1.02915507
Si      -0.27727271       4.89983331       1.28925702       1.81533624       1.71006828       1.14988545
Si       1.32342827       1.95038838       8.10371160       3.10247906       1.79643082       2.94092418
Si       4.88831784       0.83528931       2.87839130      -0.40047184       0.48114961      -0.07859719
Si       0.50054435       0.40078364       6.85210360      -1.68217537      -2.92675250      -2.35778730
Si       2.25765845      -0.18368212       8.90043692       0.29543882      -0.13304668       0.24292991
12
Lattice="5.33499682656692 -0.16025064742063985 0.08331054326088798 -1.5414043469035694 7.421822445393914 -0.21236790772514821 -0.2654463638793675 -0.6985971734523457 9.560995131407076" Properties=species:S:1:pos:R:3:forces:R:3 unique_starting_index=44 config_type=initial n_minim_iter=6 energy=-1942.6159787920378 stress="-0.002613108561267098 0.003952026313134401 -0.004563848656293265 0.003051676062489102 0.006707321792605032 0.0033020525344714434" pbc="T T T"
Si      -0.65341338       2.82530509       7.97041324      -2.30462076       0.06054804       0.07403084
Si      -0.04609782       4.05478554       3.27979400       0.34620909      -0.00589678       0.31787731
Si       0.02756273       5.15831446       6.22256561       0.09877870       0.83401236       0.44913288
Si       1.88460300       3.38491862       4.51185320       0.38123769      -0.94043561       0.08130132
Si       3.88945031       4.96286996       8.17279072       0.47997695       2.30590278      -1.08353613
Si       3.10007437       1.11558198       6.83329135       1.44702043      -0.61046130      -0.11517587
Si       3.28453645       4.28972664       0.16630046      -3.16100432      -2.18375349      -1.29092079
Si      -0.29587815       4.81580778       1.25639342       1.63575148       1.83688554       0.99019796
Si       1.26668829       1.86577918       8.05972032       3.08710452       2.19266066       3.01701824
Si       4.86516185       0.78928451       2.82280905      -0.45359686      -0.01982860      -0.06178009
Si       0.43656421       0.33816011       6.80877857      -1.77887567      -3.13151664      -2.34647821
Si       2.18947729      -0.24640552       8.84998173       0.22201874      -0.33811696      -0.03166747
12
Lattice="5.353656806703119 -0.18136676179402136 0.03827504120903732 -1.5794305388747385 7.39045821147828 -0.23153682539554413 -0.35048335791383245 -0.7304663024500552 9.624433792980021" Properties=species:S:1:pos:R:3:forces:R:3 unique_starting_index=44 config_type=initial n_minim_iter=7 energy=-1943.054472623682 stress="0.003173533250158424 0.005370537462431781 0.0014719109585086916 0.001765724704152585 0.00488117968584261 0.001182840845995354" pbc="T T T"
Si      -0.75451368       2.78385360       8.01276335      -1.88334640       0.01574068       0.15872177
Si      -0.09314734       4.02121778       3.28471132       0.35227305       0.14887097       0.34488674
Si      -0.05289578       5.11105363       6.24052438       0.04971672       0.93496032       0.54240409
Si       1.83664871       3.33840893       4.50943007       0.71634212      -1.03284658      -0.03721734
Si       3.80703507       4.89993349       8.16210358       0.41692035       2.05514300      -0.87511158
Si       3.05152481       1.06809257       6.84310098       1.08877035      -0.67582578      -0.07045240
Si       3.25751575       4.24578791       0.11457449      -2.69507552      -1.91916192      -1.36921084
Si      -0.32221343       4.79417905       1.25098336       1.32886325       1.83446491       0.96381052
Si       1.20561161       1.82757503       8.10470425       2.82393758       2.10329471       2.76888053
Si       4.85019916       0.75476492       2.79416681      -0.72035878      -0.22418202      -0.20112791
Si       0.36515008       0.29664926       6.83398094      -1.70982952      -2.93822261      -2.28158549
Si       2.11876655      -0.28933293       8.88587768       0.23178680      -0.30223568       0.05600192
12
Lattice="5.320380729730277 -0.19072461318565678 -0.011528168153374832 -1.586260097011407 7.316327575295804 -0.24333993091180192 -0.44151975699676144 -0.7532541689800338 9.602831989714348" Properties=species:S:1:pos:R:3:forces:R:3 unique_starting_index=44 config_type=initial n_minim_iter=8 energy=-1943.560938341817 stress="0.0013324035072387885 -0.002288154508980687 -0.003983272505689987 0.0003030303540647069 0.0036131602581218666 0.0010904452487221416" pbc="T T T"
Si      -0.85174609       2.73101554       7.98767288      -1.53006427       0.04341433       0.19215429
Si      -0.13247859       3.96880018       3.26381078       0.52805411       0.21138813       0.41339097
Si      -0.12740059       5.04236794       6.20786422       0.07573796       0.97395684       0.55233898
Si       1.77857724       3.27787755       4.46706115       0.65331595      -0.78506082       0.13889550
Si       3.69240458       4.82651678       8.07745072       0.39517239       1.88767555      -0.78640560
Si       2.97154475       1.02348773       6.79062868       0.75655929      -0.80412322      -0.10804698
Si       3.20379812       4.18388686       0.05842404      -2.34764686      -1.62976003      -1.48150146
Si      -0.33477944       4.75029618       1.23914730       1.18781542       1.84807567       0.83646590
Si       1.13576382       1.78974091       8.08314501       2.49553873       2.10648716       2.56097327
Si       4.78456445       0.72669482       2.73630433      -0.72554705      -0.51564163      -0.18437954
Si       0.28187103       0.25428145       6.79407787      -1.60895447      -2.84815328      -2.01465069
Si       2.02059542      -0.32154917       8.84208419       0.12001880      -0.48825870      -0.11923465
12
Lattice="5.304061623848565 -0.20328960031488197 -0.0568147493295858 -1.6022720315630437 7.360790895329665 -0.23850749840024174 -0.5250312735054772 -0.7622188578957276 9.700878904487963" Properties=species:S:1:pos:R:3:forces:R:3 unique_starting_index=44 config_type=initial n_minim_iter=9 energy=-1944.0213862769629 stress="0.008233663402992494 0.005950137947377145 0.007528063242947198 -0.00029264408200780083 0.000765829565243361 -0.002178529893075661" pbc="T T T"
Si      -0.94610083       2.74468598       8.07241001      -1.21777529       0.09381875       0.18525436
Si      -0.16915437       3.99034695       3.29701126       0.41929563       0.24868303       0.32589429
Si      -0.19947452       5.07425308       6.26973352       0.03288814       1.00165871       0.60473807
Si       1.72905832       3.28312567       4.49427774       1.15077486      -0.93310691      -0.16339888
Si       3.59457775       4.85534628       8.11217868       0.28298541       1.55511080      -0.46871525
Si       2.90535836       1.01209118       6.82997877       0.45656047      -0.82118708      -0.08919562
Si       3.15691892       4.19027416       0.01545617      -1.78717973      -1.42946873      -1.35664972
Si      -0.34931531       4.78971700       1.25662244       0.72717336       1.70170100       0.80212401
Si       1.07674790       1.80547483       8.17314009       2.00367776       1.54141979       2.07549414
Si       4.73499203       0.71543965       2.72023719      -0.89815903      -0.35066496      -0.20098580
Si       0.20410326       0.23143456       6.84068924      -1.30528500      -2.28940489      -1.70760591
Si       1.93633262      -0.33674216       8.91050124       0.13504344      -0.31855952      -0.00695369
12
Lattice="5.243199987771056 -0.18639294133616377 -0.06194210664842665 -1.5607643245685099 7.2954946121125746 -0.2317895968015766 -0.5315098391322718 -0.7530540462689834 9.600235934202923" Properties=species:S:1:pos:R:3:forces:R:3 unique_starting_index=44 config_type=initial n_minim_iter=10 energy=-1944.228837735687 stress="-0.000840487363545564 -0.0064970484957067795 -0.006796724354482847 9.902483313044824e-05 0.0031164428393680673 -0.0002613153112699728" pbc="T T T"
Si      -0.94214670       2.72386476       7.99145765      -1.16123431       0.13700689       0.12735398
Si      -0.15589418       3.95932674       3.26584563       0.52930352       0.19541617       0.36268484
Si      -0.18809719       5.03890005       6.20932289       0.12304088       0.94903725       0.51932186
Si       1.72199433       3.25867259       4.44609041       0.69198353      -0.56420111       0.23380699
Si       3.56157861       4.83616981       8.02262818       0.26825868       1.60776458      -0.56327548
Si       2.87136866       1.01150475       6.75589391       0.45526873      -0.88048520      -0.18657743
Si       3.12464809       4.15979828       0.00688513      -1.81608574      -1.34265933      -1.47215455
Si      -0.32825617       4.75669977       1.24917649       0.76326082       1.60858098       0.62730499
Si       1.07229258       1.80266857       8.09778320       1.89509937       1.63068645       2.03701442
Si       4.67562118       0.72329386       2.68629313      -0.48690600      -0.43895348      -0.03923159
Si       0.18905494       0.22434311       6.76124369      -1.23154470      -2.34098524      -1.41047803
Si       1.90492934      -0.32579179       8.81565284      -0.03044478      -0.56120798      -0.23576999
12
Lattice="5.2469973772145835 -0.18567667350087327 -0.07544739854179507 -1.560543210435587 7.3343847000906885 -0.23015160280821126 -0.5575920061107205 -0.7576015657374404 9.65589816132488" Properties=species:S:1:pos:R:3:forces:R:3 unique_starting_index=44 config_type=initial n_minim_iter=11 energy=-1944.3526602898862 stress="0.0032824796197147947 -0.0005381712238792719 -0.00023243692678364552 -2.756026268267507e-05 0.0018709814730405287 -0.0013247526475189926" pbc="T T T"
Si      -0.96796795       2.73861495       8.03908394      -1.12412198       0.13249489       0.11499642
Si      -0.16258780       3.98087993       3.28524000       0.46527942       0.19959119       0.32396356
Si      -0.20417091       5.06824120       6.24567730       0.08705031       0.97168145       0.54541706
Si       1.71413966       3.27499275       4.46723792       0.92475300      -0.68437603       0.02622274
Si       3.54369888       4.86750648       8.05620411       0.23218007       1.47477961      -0.42347177
Si       2.85721826       1.01528820       6.78622545       0.38180421      -0.84060487      -0.12927223
Si       3.12131798       4.18041788      -0.00581971      -1.62291616      -1.30837383      -1.40806062
Si      -0.32914109       4.78621185       1.25807344       0.63194871       1.60150788       0.66716633
Si       1.05762046       1.81600396       8.14667571       1.76301642       1.38103243       1.87117830
Si       4.67018063       0.72760300       2.68961366      -0.61156082      -0.35834370      -0.08024176
Si       0.16752490       0.21973840       6.79493159      -1.12806017      -2.13646929      -1.32452963
Si       1.88272165      -0.32864488       8.86005035       0.00062699      -0.43291972      -0.18336841
12
Lattice="5.230960824489621 -0.17926690133654818 -0.08437110849540017 -1.5464982402783427 7.3361110380487204 -0.22771450035283253 -0.573909116332191 -0.7580034368341072 9.658952927626888" Properties=species:S:1:pos:R:3:forces:R:3 unique_starting_index=44 config_type=initial n_minim_iter=12 energy=-1944.4636640343604 stress="0.002951203252357401 -0.0007889063065520428 -0.0005292922306503965 2.796558670351047e-05 0.001793196551062874 -0.0014111491347964568" pbc="T T T"
Si      -0.98029627       2.73999215       8.04291727      -1.08745004       0.14347068       0.08746866
Si      -0.16138071       3.98330837       3.28720703       0.45393999       0.18710271       0.30957359
Si      -0.20842763       5.07369679       6.24900675       0.09541532       0.96648883       0.53861623
Si       1.70871172       3.27681416       4.46535498       0.93112089      -0.64659978       0.01973392
Si       3.52514382       4.87928783       8.04996956       0.20411471       1.41598589      -0.37796518
Si       2.83944302       1.01726127       6.78248901       0.34636106      -0.83309387      -0.13662380
Si       3.11116513       4.18321918      -0.01581081      -1.52878641      -1.25582343      -1.39373027
Si      -0.32260969       4.79272423       1.26078601       0.57069927       1.56859138       0.64252280
Si       1.04840419       1.82204053       8.15282825       1.66487439       1.27782065       1.77893314
Si       4.64986049       0.73305765       2.68210301      -0.57321983      -0.33500106      -0.04850623
Si       0.15160226       0.21477517       6.79193541      -1.05539568      -2.05008088      -1.21214344
Si       1.86104822      -0.32710043       8.85821136      -0.02167369      -0.43886112      -0.20787941
12
Lattice="5.048609739565637 -0.09269133019001183 -0.19425877632074776 -1.3650581597097904 7.381348520793428 -0.20528855743443888 -0.776880393979032 -0.7743565122051947 9.735948501583593" Properties=species:S:1:pos:R:3:forces:R:3 unique_starting_index=44 config_type=initial n_minim_iter=13 energy=-1945.425170376012 stress="-0.0008756318420394815 0.0003422834025051326 -0.00024085573283011872 0.00014429869328827613 -0.003595675069093464 -0.004084870175806263" pbc="T T T"
Si      -1.12836043       2.75860000       8.12021103      -0.53185812       0.28100361      -0.20496109
Si      -0.13993410       4.02491218       3.32072587       0.13839514       0.16788659       0.00200606
Si      -0.25121784       5.15583429       6.31151518       0.04735359       0.93708284       0.49901798
Si       1.65360914       3.31048251       4.45572078       1.13561847      -0.21946579      -0.15349412
Si       3.31709471       5.04245712       8.00177701      -0.22911370       0.76235181      -0.01921253
Si       2.62957624       1.04278490       6.76180607      -0.02716343      -0.75675028      -0.20077553
Si       3.00672368       4.23513320      -0.14420021      -0.20189380      -0.34291522      -0.65197730
Si      -0.23642292       4.89181480       1.29493578      -0.05202110       1.08292567       0.42232728
Si       0.93788042       1.89884622       8.25895136       0.51300909       0.03804192       0.76862980
Si       4.41604098       0.80737667       2.60179867      -0.29567899      -0.21760641       0.19736402
Si      -0.04071760       0.14612176       6.78476206      -0.25072956      -1.32066678      -0.27210232
Si       1.59890383      -0.31463240       8.86986101      -0.24591760      -0.41188797      -0.38682224
12
Lattice="5.093020446401605 0.11679521641158193 -0.002003467619634923 -1.043182551999333 7.304985416384907 -0.26643579628870706 -0.4364595470088347 -0.8076688087371624 9.739516147691065" Properties=species:S:1:pos:R:3:forces:R:3 unique_starting_index=44 config_type=initial n_minim_iter=14 energy=-1945.4786108598355 stress="0.014550834031498821 0.001478823504678693 -0.0008808756363835482 0.00805393773870574 0.015265832224222758 0.004259966907750867" pbc="T T T"
Si      -0.71278902       2.71207686       8.09228330      -0.19792599      -0.55913291      -0.80306169
Si       0.18408907       4.01316961       3.32129316      -0.15388619      -0.41463476       0.20204721
Si       0.23821059       5.16134506       6.33606245       0.55077745       0.73760374       0.10687674
Si       2.05178238       3.36161139       4.52204218       0.63562110      -0.51255033      -0.29361236
Si       3.89710664       5.19066134       8.14689218      -0.78739705       0.58110383       0.20033135
Si       2.97445845       1.12041366       6.87689528       0.99334026      -0.44180267      -0.35337324
Si       3.22520085       4.33787814      -0.06153571       0.11214549      -0.02731254      -0.53194607
Si       0.03820003       4.90564276       1.30014222      -0.38429222       1.50285731      -0.15568002
Si       1.38456399       1.92933043       8.35229440       0.08251810       0.45121591       0.89364768
Si       4.59321877       0.97897884       2.78774362      -0.42447952       0.07248853       0.68184632
Si       0.22383677       0.09566274       6.79773821      -0.22797029      -0.62386244       0.51051146
Si       1.94326008      -0.26410275       8.94555489      -0.19845114      -0.76597366      -0.45758737
12
Lattice="4.948619887487615 0.07809074385570584 -0.155432517041937 -1.0697969121174662 7.296668618236511 -0.355316675420677 -0.7124347727421478 -0.9541857765323607 9.788522204195411" Properties=species:S:1:pos:R:3:forces:R:3 unique_starting_index=44 config_type=initial n_minim_iter=15 energy=-1945.827118241326 stress="-0.004059822390797831 -0.006221930314533485 -0.0010177264745028069 -0.002059468343844983 -0.0006795183811524478 -0.0007601155224993008" pbc="T T T"
Si      -0.96338821       2.58036383       8.08214165      -0.36125328       0.14602394      -0.72940373
Si       0.04162987       3.94588369       3.25997832      -0.13172758       0.23698052      -0.05691680
Si      -0.00148541       5.05114300       6.25980450       0.38589126       0.70654362       0.46160165
Si       1.83219057       3.26320424       4.41451364       0.89859225      -0.17561630       0.00735137
Si       3.48883330       5.02305289       7.96673184      -0.57854363       0.42986704      -0.08189516
Si       2.67991434       0.98512408       6.78342416       0.18295987      -0.56876677      -0.37105006
Si       3.09917269       4.30261948      -0.23273436       0.04992646      -0.05577931      -0.52487319
Si      -0.04780530       4.88115992       1.21986910      -0.19690540       1.17811505       0.30736179
Si       1.07590787       1.78551895       8.30602741       0.45540058      -0.02618676       0.67774628
Si       4.36731982       0.89801415       2.64716152      -0.33599360      -0.28675668       0.49120269
Si       0.00848781      -0.01686319       6.80997925      -0.01405548      -0.76698300       0.14776327
Si       1.61793564      -0.42244118       8.90988888      -0.35429144      -0.81744135      -0.32888811
12
Lattice="4.98149003924677 0.08433384322612941 -0.15047450720882122 -1.0678145324124828 7.368793356095064 -0.3327614649019521 -0.7063624881228551 -0.9310401238898354 9.800954612155698" Properties=species:S:1:pos:R:3:forces:R:3 unique_starting_index=44 config_type=initial n_minim_iter=16 energy=-1945.8832925944926 stress="0.0031276767246431634 0.0019973636387669116 0.0048519107074359 -0.001239790310564091 0.0004082745527401094 0.00022125942324751027" pbc="T T T"
Si      -0.95843481       2.63465079       8.09831981      -0.37350877       0.08780200      -0.69408198
Si       0.05032422       3.99886291       3.27807368      -0.09381974       0.01881022      -0.03854133
Si       0.01523953       5.12811663       6.28955009       0.33100933       0.82351666       0.48757160
Si       1.85976639       3.31324232       4.43433319       0.81588402      -0.25104601      -0.13786271
Si       3.52491326       5.10844228       7.99959351      -0.62401102       0.33336273      -0.05983642
Si       2.70860499       1.01895920       6.79843780       0.29003019      -0.47018898      -0.25269511
Si       3.12567264       4.34959679      -0.21928248       0.16553426      -0.07800879      -0.48841073
Si      -0.04136091       4.94153113       1.23950701      -0.20190678       1.19543068       0.26554982
Si       1.09825927       1.83327853       8.33130472       0.43443296      -0.17442786       0.63745605
Si       4.39845555       0.91965669       2.66256945      -0.44665822      -0.21456549       0.41485344
Si       0.01660710       0.00213321       6.82275298      -0.01795755      -0.63788042       0.14766007
Si       1.63685464      -0.39846639       8.92336242      -0.27902867      -0.63280474      -0.28166271
12
Lattice="4.966138436046764 0.08302190216616005 -0.1518382485356962 -1.0661940879591483 7.3540480397382675 -0.3216896153692021 -0.7075535929893229 -0.917075965768383 9.753190281150859" Properties=species:S:1:pos:R:3:forces:R:3 unique_starting_index=44 config_type=initial n_minim_iter=17 energy=-1945.914157617828 stress="-0.00025932872543814924 -0.0016782196629804781 -0.0006046609941831211 -0.00019716152590984167 0.000671653685411583 -0.0008108257076056595" pbc="T T T"
Si      -0.96033123       2.64002438       8.06044944      -0.30578403       0.07828906      -0.70831202
Si       0.04764429       3.99503417       3.26710310      -0.06975256       0.00391816      -0.03455606
Si       0.01287278       5.12828878       6.26729019       0.38237939       0.77420207       0.44125680
Si       1.85467205       3.31108916       4.41567176       0.76707155      -0.24369975      -0.10930923
Si       3.50753485       5.10851024       7.96577409      -0.63148088       0.33782110      -0.08978406
Si       2.69858968       1.02330901       6.76501513       0.24170727      -0.48149368      -0.28287113
Si       3.11576833       4.34007099      -0.21626100       0.09963846      -0.05506766      -0.49128569
Si      -0.04356885       4.93714425       1.24033419      -0.21088528       1.19297883       0.29045535
Si       1.09283006       1.83889913       8.29568384       0.38801116      -0.13019695       0.62981284
Si       4.38185142       0.91933932       2.65085709      -0.37592757      -0.18054801       0.46557583
Si       0.01386427       0.00830670       6.79089125       0.01090383      -0.64922921       0.20080101
Si       1.62754759      -0.38911411       8.87857506      -0.29588136      -0.64697398      -0.31178364
12
Lattice="4.96730751686477 0.08625759319502999 -0.15466967880699642 -1.0613390013548314 7.363218855130408 -0.32022314643131766 -0.7133720254985266 -0.9170532131602191 9.758176103040809" Properties=species:S:1:pos:R:3:forces:R:3 unique_starting_index=44 config_type=initial n_minim_iter=18 energy=-1945.935066323684 stress="0.00040991807191715745 -0.000653265964243985 0.00044231296225413015 -0.0002699204360951348 0.00035986093577584027 -0.0007434449377836976" pbc="T T T"
Si      -0.96374643       2.64475623       8.06297520      -0.30363778       0.08197320      -0.70543536