18
Lattice="8.069576369713062 -0.6053834034130591 -0.9601548503965565 -3.0080713046849215 7.512393684950924 -0.9601548503965793 -3.008071304683158 -4.104861925872638 6.364594628408192" Properties=species:S:1:pos:R:3:forces:R:3 unique_starting_index=454 config_type=initial n_minim_iter=1 energy=-2931.2263870509555 stress="-2.0345310836132803e-05 1.7988169468956942e-06 2.8529884542530188e-06 1.7988169468956942e-06 -1.920881076260097e-05 3.893219903354354e-06 2.8529884542530188e-06 3.893219903354354e-06 -1.5488754859380967e-05" free_energy=-2931.2263870509555 pbc="T T T"
Si      -2.80207660       1.56261755       2.78856442      -0.00341669      -0.00123359      -0.00078950
Si       2.33410838       3.46506661      -0.78405984      -0.00014708       0.00085230      -0.00361535
Si       2.60101233      -2.11689830       2.61208250       0.00085701      -0.00331239      -0.00145342
Si      -0.82855345       3.53180726       0.25946950      -0.00135570       0.00121300      -0.00262297
Si       3.61734502       0.11608038       0.35892655       0.00156503      -0.00196696      -0.00196748
Si      -0.97896817      -1.17817391       3.29863843      -0.00234704      -0.00216318      -0.00003623
Si      -1.20039393      -2.38597592       7.19310260       0.00673039       0.00209404       0.00513194
Si      -1.91355414       7.29368238       1.41952783      -0.00003063       0.00159205       0.00857230
Si       7.53132137       1.12031132       0.94797285       0.00152732       0.00754072       0.00410179
Si       4.79047676      -2.07168209       3.50980690       0.00496527      -0.00068039      -0.00212363
Si      -3.41849538       1.46675978       5.07166479      -0.00214448      -0.00386886       0.00317170
Si       2.42838759       5.79096618      -0.35626235      -0.00304317       0.00424578      -0.00152940
Si       2.24165612       1.02136867       4.13986254       0.00160363      -0.00197973      -0.00043168
Si       0.29867080       2.68134052       3.99097565      -0.00237084      -0.00079163       0.00065557
Si       2.46682648       3.13013188       2.70623713      -0.00004069       0.00166889      -0.00197242
Si       1.78331042      -0.86161296       5.62593626       0.00073940      -0.00215753      -0.00171531
Si      -1.35878057       4.45516779       3.72544319      -0.00228005      -0.00157151      -0.00068969
Si       4.65753742       3.34151492       1.64783339      -0.00081169       0.00051900      -0.00268621
