14
Lattice="7.827625853930428 0.12018322543418167 1.987118091214377 0.2761037542996004 8.068885571286135 -1.0404372267138489 -1.8278869645913125 -0.904425472548077 6.465798557646278" Properties=species:S:1:pos:R:3:forces:R:3 unique_starting_index=20 config_type=initial n_minim_iter=1 energy=-2275.32389861306 stress="-4.7794650143320206e-05 -2.5776094223336892e-06 -2.9057167789220577e-05 -2.5776094223336892e-06 -4.30893565532346e-05 -2.847303334270216e-05 -2.9057167789220577e-05 -2.847303334270216e-05 6.129587810602682e-05" free_energy=-2275.32389861306 pbc="T T T"
Si       4.73454986       4.39840689       7.24753402       0.00063626      -0.00171852       0.01806312
Si       6.87541800       3.06108685       1.54463613      -0.02286703       0.01500818      -0.00809080
Si       1.54129278       2.88623643       0.16494541      -0.00063626       0.00171852      -0.01806312
Si      -0.59957536       4.22355648       5.86784329       0.02286703      -0.01500818       0.00809080
Si       5.80957744       4.56988188       4.95558566      -0.02881667      -0.03957859      -0.02214747
Si       5.79372376       2.46238418       3.74964948      -0.02851351      -0.01770913       0.01635307
Si       0.46626520       2.71476144       2.45689376       0.02881668       0.03957859       0.02214747
Si       0.48211888       4.82225915       3.66282995       0.02851350       0.01770913      -0.01635307
Si       2.31266614       4.62528001       1.76972337      -0.02904388       0.00662739       0.01136729
Si       1.41790906       2.80592932       4.90530219       0.00940465       0.00486982      -0.02625376
Si       3.96317651       2.65936332       5.64275605       0.02904388      -0.00662739      -0.01136729
Si       4.85793358       4.47871400       2.50717723      -0.00940465      -0.00486982       0.02625376
Si       4.18089334       5.34320189       0.14885605      -0.00388398       0.03340578      -0.00560838
Si       2.09494931       1.94144143       7.26362338       0.00388398      -0.03340578       0.00560838
14
Lattice="7.830280076297102 0.12068649747753195 1.9877879906590934 0.2761270427141793 8.070843430415183 -1.0385857503653082 -1.82728422610354 -0.9035633581563427 6.462881278224718" Properties=species:S:1:pos:R:3:forces:R:3 unique_starting_index=20 config_type=initial n_minim_iter=2 energy=-2275.3240921492243 stress="0.0003467528567497975 -1.3805563909591376e-05 0.00010661845294227193 -1.3805563909591376e-05 4.699345135830769e-05 3.421483414530647e-05 0.00010661845294227193 3.421483414530647e-05 -6.344880200614226e-05" free_energy=-2275.3240921492243 pbc="T T T"
Si       4.73731164       4.40088853       7.24667851      -0.00273833      -0.00168098       0.01700293
Si       6.87743358       3.06249039       1.54570125      -0.01745242       0.01545900      -0.00614055
Si       1.54181126       2.88707804       0.16540500       0.00273833       0.00168098      -0.01700293
Si      -0.59831069       4.22547618       5.86638227       0.01745242      -0.01545900       0.00614055
Si       5.81182758       4.57148412       4.95523999      -0.01994987      -0.03887774      -0.02167556
Si       5.79572511       2.46353020       3.74993616      -0.02529053      -0.01506780       0.01579307
Si       0.46729531       2.71648245       2.45684353       0.01994987       0.03887774       0.02167556
Si       0.48339778       4.82443637       3.66214736       0.02529053       0.01506780      -0.01579307
Si       2.31331907       4.62694484       1.77044099      -0.01972933       0.00238749       0.00792345
Si       1.41937929       2.80762150       4.90382505       0.01327636       0.00804406      -0.01764584
Si       3.96580383       2.66102173       5.64164253       0.01972933      -0.00238749      -0.00792345
Si       4.85974360       4.48034507       2.50825847      -0.01327637      -0.00804406       0.01764584
Si       4.18217635       5.34518556       0.15040015      -0.00144972       0.02273433      -0.00461715
Si       2.09694654       1.94278101       7.26168337       0.00144972      -0.02273433       0.00461715
14
Lattice="7.8261449002630545 0.12157893134895416 1.9868170015265505 0.27652407070933127 8.07296792527394 -1.0367205632014165 -1.8265264288447784 -0.9027830261518206 6.4600871504141395" Properties=species:S:1:pos:R:3:forces:R:3 unique_starting_index=20 config_type=initial n_minim_iter=3 energy=-2275.3243172237785 stress="-0.0007133651180319929 2.143969065218927e-05 0.00014104173011295166 2.143969065218927e-05 -0.00012192314552345008 0.0001228381852549808 0.00014104173011295166 0.0001228381852549808 -0.0008493956689194127" free_energy=-2275.3243172237785 pbc="T T T"
Si       4.73495279       4.40368749       7.24488433      -0.00483461       0.00402369       0.01447387
Si       6.87336489       3.06451914       1.54523644      -0.01755324       0.00726950      -0.00435882
Si       1.54118975       2.88807634       0.16529926       0.00483461      -0.00402369      -0.01447387
Si      -0.59722235       4.22724469       5.86494715       0.01755324      -0.00726950       0.00435882
Si       5.80818865       4.57288994       4.95323788      -0.01602301      -0.03027172      -0.01398527
Si       5.79195707       2.46477271       3.74917194      -0.01490127      -0.02270167       0.00898906
Si       0.46795390       2.71887389       2.45694571       0.01602302       0.03027172       0.01398527
Si       0.48418547       4.82699112       3.66101165       0.01490127       0.02270167      -0.00898906
Si       2.31158140       4.62888926       1.77079351      -0.02222408       0.00347630       0.00318843
Si       1.41900971       2.80954896       4.90155963       0.00446658       0.00478797      -0.01163153
Si       3.96456115       2.66287457       5.63939008       0.02222408      -0.00347630      -0.00318843
Si       4.85713283       4.48221487       2.50862396      -0.00446658      -0.00478797       0.01163153
Si       4.18023002       5.34790367       0.15104509      -0.01034544       0.02131496      -0.00593573
Si       2.09591252       1.94386016       7.25913849       0.01034544      -0.02131496       0.00593573
14
Lattice="7.8237880802134425 0.1226449692172921 1.985215668669703 0.2776308173917165 8.078208605276622 -1.036557484692145 -1.8285291078155381 -0.9028590117766928 6.464452923687572" Properties=species:S:1:pos:R:3:forces:R:3 unique_starting_index=20 config_type=initial n_minim_iter=4 energy=-2275.324737441544 stress="-9.514215616162164e-05 4.099738253299371e-05 -2.3782099040936307e-05 4.099738253299371e-05 0.00028508143038643647 7.905250362384581e-05 -2.3782099040936307e-05 7.905250362384581e-05 5.940759625431636e-05" free_energy=-2275.324737441544 pbc="T T T"
Si       4.73177096       4.40776280       7.24899161      -0.00972390      -0.00252236       0.00573908
Si       6.87040150       3.06825321       1.54359524      -0.02181261       0.00324537       0.00575259
Si       1.54111883       2.89023177       0.16411950       0.00972390       0.00252236      -0.00573908
Si      -0.59751171       4.22974135       5.86951587       0.02181261      -0.00324537      -0.00575259
Si       5.80410944       4.57471113       4.95331176      -0.00854839      -0.02604346       0.00030428
Si       5.78804202       2.46634597       3.75052217      -0.00933744      -0.01091700      -0.00713387
Si       0.46878035       2.72328343       2.45979935       0.00854839       0.02604346      -0.00030428
Si       0.48484777       4.83164860       3.66258894       0.00933744       0.01091700       0.00713387
Si       2.30935568       4.63268299       1.77211108       0.00053872      -0.00860947      -0.01780777
Si       1.41783446       2.81240627       4.90287298      -0.00016883       0.01725564       0.01401240
Si       3.96353411       2.66531158       5.64100003      -0.00053872       0.00860947       0.01780777
Si       4.85505533       4.48558829       2.51023813       0.00016883      -0.01725564      -0.01401240
Si       4.17959915       5.35364322       0.14990629      -0.02088479      -0.02408173      -0.00552301
Si       2.09329064       1.94435134       7.26320481       0.02088479       0.02408173       0.00552301
14
Lattice="7.825482735576036 0.12092285578871988 1.9847887872304208 0.2766750758626091 8.070757530822032 -1.0388758224415617 -1.8290712510794742 -0.9036440639621904 6.4644719462829325" Properties=species:S:1:pos:R:3:forces:R:3 unique_starting_index=20 config_type=initial n_minim_iter=5 energy=-2275.3248664079824 stress="0.00010719455175945637 -1.6265528574677758e-08 -4.9712743660919636e-05 -1.6265528574677758e-08 -3.782708126862697e-05 -3.743218680878831e-05 -4.9712743660919636e-05 -3.743218680878831e-05 -9.225345015101732e-05" free_energy=-2275.3248664079824 pbc="T T T"
Si       4.73189960       4.40076675       7.24755138      -0.01220547       0.00925907       0.00747371
Si       6.87091840       3.06427109       1.54228451      -0.01565095      -0.00535684       0.01000941
Si       1.54118696       2.88726958       0.16283353       0.01220547      -0.00925907      -0.00747371
Si      -0.59783184       4.22376523       5.86810040       0.01565095       0.00535684      -0.01000941
Si       5.80409635       4.56717678       4.95112422      -0.00104196      -0.01091817       0.01164221
Si       5.78831805       2.46171667       3.74962569      -0.00996506      -0.02200209      -0.01411427
Si       0.46899021       2.72085954       2.45926069       0.00104196       0.01091817      -0.01164221
Si       0.48476851       4.82631966       3.66075923       0.00996506       0.02200209       0.01411427
Si       2.30873352       4.62745458       1.77060339       0.00965124      -0.00031326      -0.01346033
Si       1.41779028       2.80836829       4.90146672      -0.00243213       0.00915436       0.01722385
Si       3.96435304       2.66058174       5.63978153      -0.00965124       0.00031326       0.01346033
Si       4.85529628       4.47966803       2.50891820       0.00243213      -0.00915436      -0.01722385
Si       4.17958548       5.34826145       0.14802889      -0.01731594      -0.01601998       0.00272882
Si       2.09350108       1.93977487       7.26235602       0.01731594       0.01601998      -0.00272882
14
Lattice="7.824483764723365 0.12041722774367014 1.9887341724847343 0.2755057218604298 8.068439707262495 -1.0383870598445122 -1.8260509770335551 -0.9025700202205045 6.4664963441980605" Properties=species:S:1:pos:R:3:forces:R:3 unique_starting_index=20 config_type=initial n_minim_iter=6 energy=-2275.324913340526 stress="-5.781519689146233e-05 -4.2346793383402775e-05 0.00028541050192451307 -4.2346793383402775e-05 -6.313408231337088e-05 -3.3798747366032705e-05 0.00028541050192451307 -3.3798747366032705e-05 0.0001615645671422215" free_energy=-2275.324913340526 pbc="T T T"
Si       4.73305895       4.40002200       7.25334319      -0.00696466       0.01090242       0.00440213
Si       6.86915426       3.06308477       1.54606849      -0.01399365      -0.00727039       0.00584996
Si       1.54087956       2.88626492       0.16350027       0.00696466      -0.01090242      -0.00440213
Si      -0.59521575       4.22320215       5.87077497       0.01399365       0.00727039      -0.00584996
Si       5.80400755       4.56528186       4.95600183      -0.00031523      -0.00766736       0.00623538
Si       5.78781227       2.46039367       3.75369963      -0.00302685      -0.01848318      -0.01400209
Si       0.46993096       2.72100505       2.46084163       0.00031523       0.00766736      -0.00623538
Si       0.48612624       4.82589325       3.66314383       0.00302685       0.01848318       0.01400209
Si       2.30838073       4.62619088       1.77257361       0.00923332       0.00013135      -0.01251227
Si       1.41919852       2.80826693       4.90454979      -0.00334498       0.01003684       0.01769201
Si       3.96555778       2.66009604       5.64426985      -0.00923332      -0.00013135       0.01251228
Si       4.85473999       4.47801999       2.51229367       0.00334498      -0.01003684      -0.01769201
Si       4.17783707       5.34640702       0.15023989      -0.01545832      -0.01375284       0.00253974
Si       2.09610144       1.93987989       7.26660357       0.01545832       0.01375284      -0.00253974
14
Lattice="7.823311224750337 0.12148636080255606 1.985716562178288 0.27616858504485836 8.067381985384223 -1.0351758369294644 -1.828737582076946 -0.8997833270704518 6.467683935579543" Properties=species:S:1:pos:R:3:forces:R:3 unique_starting_index=20 config_type=initial n_minim_iter=7 energy=-2275.325121254319 stress="-3.508819497858177e-05 -4.384320373871288e-06 2.624220098936327e-05 -4.384320373871288e-06 -0.0001523278703461964 0.00013021685475471766 2.624220098936327e-05 0.00013021685475471766 0.00010401692586098941" free_energy=-2275.325121254319 pbc="T T T"
Si       4.72940462       4.40326254       7.25471195      -0.00471681       0.01271438      -0.00455260
Si       6.86714545       3.06373599       1.54494256      -0.00482393      -0.01146419       0.01025629
Si       1.54133760       2.88582248       0.16351271       0.00471681      -0.01271438       0.00455260
Si      -0.59640322       4.22534903       5.87328210       0.00482393       0.01146419      -0.01025629
Si       5.80124468       4.56597937       4.95617847       0.00298410      -0.00933743       0.00468373
Si       5.78521347       2.46077272       3.75239264      -0.00450044      -0.01794726      -0.00191269
Si       0.46949755       2.72310565       2.46204619      -0.00298410       0.00933743      -0.00468373
Si       0.48552876       4.82831230       3.66583202       0.00450044       0.01794726       0.00191269
Si       2.30759978       4.62667228       1.77328085       0.00330469      -0.00198414      -0.01263642
Si       1.41717597       2.81079793       4.90617582      -0.00597938       0.00726781       0.00626858
Si       3.96314245       2.66241274       5.64494381      -0.00330469       0.00198414       0.01263642
Si       4.85356626       4.47828709       2.51204884       0.00597938      -0.00726781      -0.00626858
Si       4.17682943       5.34585805       0.15074406      -0.01215858      -0.00464107      -0.00677994
Si       2.09391280       1.94322697       7.26748060       0.01215858       0.00464107       0.00677994
14
Lattice="7.8213014440109445 0.1205190673571774 1.98141642774352 0.2766209330820235 8.075798635803345 -1.0394222979772836 -1.8315793272505811 -0.9041661960428923 6.467440144905864" Properties=species:S:1:pos:R:3:forces:R:3 unique_starting_index=20 config_type=initial n_minim_iter=8 energy=-2275.3253079437727 stress="-5.5107616207707045e-05 -5.884064158714673e-05 -0.0001432500148007212 -5.884064158714673e-05 4.24216624175434e-05 -8.280988320182599e-05 -0.0001432500148007212 -8.280988320182599e-05 -6.58924765461074e-05" free_energy=-2275.3253079437727 pbc="T T T"
Si       4.72430986       4.40441183       7.24924659       0.00134097      -0.00369028       0.00132409
Si       6.86333447       3.06575693       1.54028960       0.00642689       0.00274859       0.00589429
Si       1.54203319       2.88773968       0.16018769      -0.00134097       0.00369028      -0.00132409
Si      -0.59699142       4.22639458       5.86914468      -0.00642689      -0.00274859      -0.00589429
Si       5.79711530       4.56524326       4.94983276       0.01033195      -0.00730578       0.00904509
Si       5.78100151       2.45864505       3.74676196      -0.00522530      -0.00481956      -0.00185570
Si       0.46922775       2.72690824       2.45960151      -0.01033196       0.00730578      -0.00904509
Si       0.48534154       4.83350646       3.66267231       0.00522530       0.00481957       0.00185570
Si       2.30629047       4.63019194       1.76811735       0.00120607       0.00004986      -0.00252816
Si       1.41462028       2.81208321       4.90350678      -0.01616369       0.00609440      -0.01948708
Si       3.96005258       2.66195957       5.64131693      -0.00120607      -0.00004986       0.00252816
Si       4.85172277       4.48006830       2.50592749       0.01616370      -0.00609440       0.01948708
Si       4.17435070       5.35041534       0.14558211      -0.00515719       0.00315222       0.00161531
Si       2.09199235       1.94173617       7.26385216       0.00515719      -0.00315222      -0.00161531
14
Lattice="7.821847443273085 0.12371583348204805 1.9828413695604026 0.2793451302714755 8.074212406887389 -1.0377469210762225 -1.830966983682437 -0.9032565993081927 6.467652316736138" Properties=species:S:1:pos:R:3:forces:R:3 unique_starting_index=20 config_type=initial n_minim_iter=9 energy=-2275.325361398019 stress="3.2246415262690234e-07 3.426130870762264e-05 -2.705806237532997e-05 3.426130870762264e-05 -7.646032141423186e-06 5.647451693391927e-06 -2.705806237532997e-05 5.647451693391927e-06 -1.0328707921344268e-05" free_energy=-2275.325361398019 pbc="T T T"
Si       4.72697967       4.40693652       7.25188000      -0.00124251      -0.00108088      -0.00349814
Si       6.86455709       3.06804347       1.54229880       0.01247195      -0.00193554       0.00617764
Si       1.54324592       2.88773512       0.16086676       0.00124251       0.00108088       0.00349814
Si      -0.59433150       4.22662817       5.87044796      -0.01247195       0.00193554      -0.00617764
Si       5.79956750       4.56698708       4.95226554       0.01007401      -0.00764729       0.00574276
Si       5.78223802       2.46062319       3.74851623       0.00005820      -0.00547781       0.00195309
Si       0.47065809       2.72768456       2.46048122      -0.01007401       0.00764729      -0.00574276
Si       0.48798757       4.83404845       3.66423053      -0.00005820       0.00547781      -0.00195309
Si       2.30819482       4.63055791       1.76948303      -0.00052961      -0.00114500      -0.00483709
Si       1.41624333       2.81342289       4.90466855      -0.00832101       0.00432138      -0.01654700
Si       3.96203077       2.66411373       5.64326373       0.00052961       0.00114500       0.00483709
Si       4.85398226       4.48124875       2.50807822       0.00832101      -0.00432138       0.01654700
Si       4.17605478       5.35099402       0.14734874      -0.00534916       0.00386174       0.00003156
Si       2.09417081       1.94367762       7.26539802       0.00534916      -0.00386174      -0.00003156
14
Lattice="7.822029738029829 0.12256489876420155 1.984246123177893 0.2774253781366599 8.072825831265778 -1.0354844695569079 -1.8297642215560792 -0.900888568833859 6.467698214825442" Properties=species:S:1:pos:R:3:forces:R:3 unique_starting_index=20 config_type=initial n_minim_iter=10 energy=-2275.3254186846734 stress="5.9196799094332066e-05 -3.258851945676493e-05 0.000168835360754414 -3.258851945676493e-05 -1.0112383465115548e-05 7.940938252927109e-05 0.000168835360754414 7.940938252927109e-05 8.117127510608856e-05" free_energy=-2275.3254186846734 pbc="T T T"
Si       4.72682387       4.40748112       7.25464750      -0.00302097       0.00033033      -0.00404600
Si       6.86419777       3.06658980       1.54483497       0.01022382      -0.00119240       0.00314639
Si       1.54286703       2.88702104       0.16181236       0.00302097      -0.00033034       0.00404600
Si      -0.59450687       4.22791236       5.87162490      -0.01022382       0.00119240      -0.00314640
Si       5.79960190       4.56539704       4.95521803       0.01016730      -0.00409520       0.00123110
Si       5.78171633       2.45921846       3.75042508      -0.00002436      -0.00376093       0.00531891
Si       0.47008899       2.72910512       2.46124184      -0.01016730       0.00409520      -0.00123110
Si       0.48797456       4.83528371       3.66603479       0.00002436       0.00376093      -0.00531891
Si       2.30731702       4.62991969       1.77084111       0.00479321      -0.00192194      -0.00321718
Si       1.41578293       2.81477166       4.90516650      -0.00295437       0.00406050      -0.00473935
Si       3.96237388       2.66458248       5.64561876      -0.00479321       0.00192194       0.00321718
Si       4.85390797       4.47973050       2.51129337       0.00295437      -0.00406050       0.00473935
Si       4.17412894       5.34963108       0.14949970       0.00150859       0.00081663      -0.00354229
Si       2.09556195       1.94487108       7.26696017      -0.00150859      -0.00081663       0.00354229
14
Lattice="7.8212600770134495 0.1251559441638074 1.981163009119143 0.2810148832005178 8.074950456570276 -1.0377241541524695 -1.8323089103910175 -0.9036874816677766 6.467388170811919" Properties=species:S:1:pos:R:3:forces:R:3 unique_starting_index=20 config_type=initial n_minim_iter=11 energy=-2275.3255156925866 stress="2.332206314949796e-06 4.689068401832555e-05 4.764158700977323e-05 4.689068401832555e-05 4.202710540213474e-06 -2.1115236746105305e-05 4.764158700977323e-05 -2.1115236746105305e-05 6.922216032270736e-06" free_energy=-2275.3255156925866 pbc="T T T"
Si       4.72543581       4.40837887       7.25047318      -0.01238433      -0.00508677       0.00283736
Si       6.86531406       3.06938637       1.54232828       0.00793440       0.00338588      -0.00028428
Si       1.54453024       2.88804005       0.16035385       0.01238434       0.00508677      -0.00283736
Si      -0.59534801       4.22703255       5.86849875      -0.00793439      -0.00338588       0.00028428
Si       5.80065790       4.56539727       4.95184010       0.00176810      -0.00027894       0.00446191
Si       5.78050947       2.45927036       3.74697866      -0.00388160      -0.00446645       0.00340178
Si       0.46930815       2.73102165       2.45898692      -0.00176810       0.00027894      -0.00446191
Si       0.48945658       4.83714855       3.66384836       0.00388160       0.00446645      -0.00340178
Si       2.30872916       4.63116175       1.76736043       0.00502801       0.00225349       0.00130371
Si       1.41399061       2.81565833       4.90144620       0.00878333      -0.00265440       0.00270890
Si       3.96123689       2.66525716       5.64346660      -0.00502801      -0.00225349      -0.00130372
Si       4.85597544       4.48076059       2.50938082      -0.00878333       0.00265440      -0.00270890
Si       4.17489619       5.35246670       0.14635835       0.00450143       0.00038338       0.00181145
Si       2.09506986       1.94395221       7.26446868      -0.00450143      -0.00038338      -0.00181145
14
Lattice="7.820904822402261 0.12258500250492359 1.9794588839158982 0.2783669700813919 8.074754898786267 -1.0368783614059582 -1.8333618213450873 -0.9023495283250343 6.4674068177028" Properties=species:S:1:pos:R:3:forces:R:3 unique_starting_index=20 config_type=initial n_minim_iter=12 energy=-2275.325541423506 stress="-1.7680499682197878e-05 -3.93184400495038e-05 -5.6829366177092494e-05 -3.93184400495038e-05 4.533635387600651e-06 5.301186790850739e-06 -5.6829366177092494e-05 5.301186790850739e-06 -1.3449892483102254e-05" free_energy=-2275.325541423506 pbc="T T T"
Si       4.72196652       4.40736561       7.24972514      -0.00907567      -0.00413080       0.00332360
Si       6.86435427       3.06717077       1.54138426       0.00369013       0.00472651       0.00102091
Si       1.54394345       2.88762476       0.16026220       0.00907567       0.00413080      -0.00332360
Si      -0.59844430       4.22781961       5.86860308      -0.00369013      -0.00472651      -0.00102091
Si       5.79838353       4.56347705       4.95123495       0.00153659       0.00053781       0.00427049
Si       5.77864327       2.45714221       3.74597545      -0.00905551      -0.00304282       0.00477643
Si       0.46752644       2.73151332       2.45875239      -0.00153659      -0.00053781      -0.00427049
Si       0.48726670       4.83784816       3.66401189       0.00905551       0.00304282      -0.00477643
Si       2.30693610       4.63055937       1.76711531       0.00586346       0.00242908       0.00224435
Si       1.41191996       2.81585360       4.90095824       0.00368326      -0.00157986       0.00294346
Si       3.95897387       2.66443101       5.64287203      -0.00586346      -0.00242908      -0.00224435
Si       4.85399002       4.47913677       2.50902910      -0.00368326       0.00157986      -0.00294346
Si       4.17288858       5.35104023       0.14605085       0.00679910       0.00057066      -0.00151415
Si       2.09302139       1.94395014       7.26393649      -0.00679910      -0.00057066       0.00151415
14
Lattice="7.822523245378009 0.12400173483442539 1.978672741925804 0.28000721668465406 8.0737154846997 -1.036887460753234 -1.8343150636384125 -0.9026973197607249 6.4664913028655056" Properties=species:S:1:pos:R:3:forces:R:3 unique_starting_index=20 config_type=initial n_minim_iter=13 energy=-2275.3256186849053 stress="-4.371479158462035e-06 -8.17946284272132e-06 -2.3564915742095143e-05 -8.17946284272132e-06 -1.1015464907701953e-05 1.874048386547125e-05 -2.3564915742095143e-05 1.874048386547125e-05 4.663019296165572e-06" free_energy=-2275.3256186849053 pbc="T T T"
Si       4.72175908       4.40697818       7.24857158      -0.00289989       0.00042692       0.00248244
Si       6.86749818       3.06846160       1.54127250       0.00384955       0.00132050       0.00445921
Si       1.54645632       2.88804172       0.15970500       0.00289989      -0.00042692      -0.00248244
Si      -0.59928278       4.22655830       5.86700408      -0.00384955      -0.00132050      -0.00445921
Si       5.80105591       4.56282479       4.95098518      -0.00209567       0.00075449       0.00166408
Si       5.77887967       2.45645894       3.74557276      -0.00721505       0.00082661       0.00177291
Si       0.46715949       2.73219511       2.45729140       0.00209567      -0.00075449      -0.00166408
Si       0.48933573       4.83856096       3.66270382       0.00721505      -0.00082661      -0.00177291
Si       2.30898392       4.63052977       1.76630007       0.00189864       0.00399593      -0.00157250
Si       1.41255507       2.81599353       4.89940849       0.00375097      -0.00020268       0.00309088
Si       3.95923148       2.66449013       5.64197652      -0.00189864      -0.00399593       0.00157250
Si       4.85566033       4.47902637       2.50886810      -0.00375097       0.00020268      -0.00309088
Si       4.17490262       5.35128107       0.14557511       0.00238649      -0.00017074       0.00100974
Si       2.09331278       1.94373883       7.26270148      -0.00238649       0.00017074      -0.00100974
