16
Lattice="5.5698000000000025 8.925854492551256e-16 4.437342591868191e-31 1.9329408930512721 5.773776432420134 9.133854907458503e-16 2.5813597914174533 1.2561007858924345 10.132611227508622" Properties=species:S:1:pos:R:3:forces:R:3 unique_starting_index=3 config_type=initial n_minim_iter=1 energy=-2546.1091293653435 stress="-0.384599626989523 -0.2597324437181541 -0.45969823838242135 -0.09847963096965381 0.0007295203306391393 -0.03674067011604328" pbc="T T T"
Si       5.62560067       5.40530905       5.45642331      -0.43048623       1.84295599       0.54753978
Si       5.37503942       3.19514580       9.61367360      -8.22895308       9.64546396      25.73715961
Si       1.49338123       2.61866335       2.45609430       5.30928890     -16.41408320      16.28522890
Si       5.37267351       2.44196229       0.92141204       0.13314292      16.11260224       4.40851196
Si       6.12247124       0.79226786       4.21771766     -22.59904622      -7.60014706      -3.15256353
Si       7.09747320       1.94706173       5.40192506      -0.14241404      14.36094695      -1.45653164
Si       3.91767968       3.07926551       2.40920463      -2.37249106      -0.54387809       0.95491810
Si       6.67159099       3.71354858       1.35610816      -1.29697734      22.59393558     -15.67324600
Si       2.82550049       2.08221471       6.33007427       8.39512291      -7.49020612     -12.21826971
Si       5.61339469       1.66022820       5.92652884     -23.21017673      -2.97387110      11.54251818
Si       7.45246449       4.23153427       6.40622591       0.42506623      -0.80249424       0.27184322
Si       2.11999978       1.14235139       4.15229646      31.49663992      -5.38525601     -16.22570586
Si       3.83904446       6.43069628       7.65414818      -0.55583532      -0.56878002       0.24964574
Si       3.32078218       2.66901358       7.73402659       8.90806130       8.74150281      22.73567147
Si       5.77389882       2.65588687       8.16031264       7.00767920      -9.73924981     -26.53919391
Si       5.14014776       0.93340082       0.43941588      -2.83862136     -21.77944189      -7.46752631
16
Lattice="5.640045508209556 0.006738357866650426 -0.00012340909283821308 1.9643039917648855 5.8252225413327805 0.01870355816948014 2.615210653328488 1.302805938264674 10.289607904827253" Properties=species:S:1:pos:R:3:forces:R:3 unique_starting_index=3 config_type=initial n_minim_iter=2 energy=-2551.320553530955 stress="-0.3354241247997829 -0.2173846882555463 -0.39692592943210014 -0.08007616428386657 0.005008644236344818 -0.03004508728775728" pbc="T T T"
Si       5.70292502       5.47599061       5.55628240      -0.38467072       1.70255250       0.61235974
Si       5.44564896       3.26101811       9.77168524      -7.43347683       8.51984548      22.69414354
Si       1.51586479       2.64906758       2.50329180       4.75753098     -14.66748337      14.48695526
Si       5.44338219       2.47384982       0.94358521       0.04798468      14.16150785       4.04278777
Si       6.19826268       0.81933722       4.28350827     -20.04245092      -6.40231162      -2.25079904
Si       7.18920869       1.99119546       5.48950110      -0.03937023      12.38976348      -2.05268515
Si       3.97052050       3.11796258       2.45558499      -2.20012256      -0.65661688       0.49284934
Si       6.76006617       3.75988109       1.38690753      -1.18169441      20.01193384     -14.14689755
Si       2.86436333       2.12313708       6.43109683       7.73957680      -6.68096402     -10.47519543
Si       5.68371657       1.70008339       6.02244054     -20.98829786      -2.85291549      10.35899338
Si       7.55147421       4.29725974       6.51654414       0.47679304      -0.68877936       0.01532364
Si       2.15121570       1.16756938       4.21699827      28.12859544      -4.51263314     -14.28938143
Si       3.89501586       6.51482995       7.79052489      -0.51892850      -0.46992606       0.22766640
Si       3.36662407       2.72173280       7.86169280       7.97198121       7.64460654      19.93987529
Si       5.85045917       2.71096628       8.28930979       6.03801026      -8.50518370     -23.09740198
Si       5.20580399       0.94678569       0.44820149      -2.37146037     -18.99339604      -6.55859380
16
Lattice="6.244966359896356 0.06304401533186575 -0.008866549009922344 2.232603128065908 6.244712587762356 0.17339939663644857 2.892357607696515 1.6927175522803122 11.641331158688194" Properties=species:S:1:pos:R:3:forces:R:3 unique_starting_index=3 config_type=initial n_minim_iter=3 energy=-2576.5777173826195 stress="-0.0864992660554794 -0.040647600869071994 -0.11023778674930906 -0.025696940241782446 -0.009766527522969182 -0.017948858367254683" pbc="T T T"
Si       6.35960709       6.05803866       6.40742965      -0.42667015       0.78709560       0.28874622
Si       6.03902258       3.80838407      11.12867420      -2.86179967       3.05568847       6.96637074
Si       1.70537777       2.89876593       2.90764640       2.88387569      -6.75666855       8.12707036
Si       6.05035599       2.73657449       1.12679577      -0.99374350       6.35695318       2.72254037
Si       6.84382149       1.04469251       4.84302071      -9.14759604      -2.39663620       0.56180965
Si       7.97136754       2.35752518       6.23431069      -0.58184476       5.23308798      -3.16289930
Si       4.42107607       3.43602814       2.84826522      -0.29159851       0.19195993       0.94106588
Si       7.51911684       4.14082054       1.64043655      -0.88079523       6.67957684      -6.18394345
Si       3.19026758       2.46202236       7.29774299       5.86566377      -2.68094954      -2.28103725
Si       6.27913099       2.03101767       6.84281595     -10.42711133      -1.80602700       4.07683465
Si       8.39406939       4.84005217       7.45591769       0.12709794       0.26128221       0.33054810
Si       2.41550420       1.37698599       4.77105938      12.39374785      -1.36520483      -8.58640317
Si       4.36441567       7.20773074       8.95862849      -0.72688886      -0.06003267       0.17329849
Si       3.75042186       3.15977705       8.95942387       3.58841944       2.94774901       8.47916071
Si       6.49775313       3.16714506       9.39225380       1.98716737      -2.61563422      -7.69206707
Si       5.77012752       1.05644752       0.51534139      -0.50792399      -7.83224022      -4.76109494
16
Lattice="6.593939368840972 0.13808900387916925 0.033783487771865094 2.431503840085339 6.436259650882976 0.3055565702544519 3.1486047268426134 1.9694555696919505 12.523497428215455" Properties=species:S:1:pos:R:3:forces:R:3 unique_starting_index=3 config_type=initial n_minim_iter=4 energy=-2582.7200974744833 stress="-0.026856425633063858 -0.0035816064873932588 -0.04063230001452351 -0.018392125065013625 -0.007776106987422433 -0.008130139936703074" pbc="T T T"
Si       6.82594936       6.40105916       7.01177481      -0.25157350       0.33095055       1.01863809
Si       6.48722582       4.17422408      12.04483896      -0.50675778       0.74600898       2.16567027
Si       1.85826052       3.03379542       3.19118166       2.37156237      -4.53390679       6.73320410
Si       6.42571113       2.90903685       1.30045017      -0.06240484       3.19867308       0.57663526
Si       7.25198920       1.23068956       5.25458902      -5.43500908      -1.57218237       0.60610500
Si       8.48300144       2.62733583       6.76895717      -0.91720870       2.98896239      -2.26143341
Si       4.72580838       3.62643314       3.14171193      -0.67423836       0.17015231       0.86667296
Si       7.99632934       4.37524536       1.86696642      -1.10664582       3.48219799      -3.32487662
Si       3.45479991       2.68371714       7.87877611       4.78984500      -1.30380596       0.13299152
Si       6.67797437       2.27148511       7.41735001      -6.27090488      -1.74729520       1.87730021
Si       8.96734095       5.19244004       8.12876757       0.82285469       0.75386504       0.36473635
Si       2.61987220       1.51997712       5.13547903       6.35519155      -0.02399467      -6.09741570
Si       4.74882275       7.59923154       9.75123354      -0.40592663       0.23911330      -0.19624316
Si       4.06129734       3.44515730       9.69678783       1.45631717       1.80384114       4.31405981
Si       6.96133121       3.48106814      10.14695068       0.41896311      -0.45083683      -3.01736170
Si       6.10623928       1.14702204       0.59866023      -0.58406429      -4.08174295      -3.75868299
16
Lattice="6.815114231368746 0.20742143798220072 0.10514990610008139 2.580131781900365 6.498357330479307 0.49449539745224325 3.3965756761739483 2.297974287510708 13.238573195783466" Properties=species:S:1:pos:R:3:forces:R:3 unique_starting_index=3 config_type=initial n_minim_iter=5 energy=-2584.9994629929174 stress="-0.008532516868572525 0.01511087578837053 -0.004485084547921678 -0.009206078710867788 -0.0017977877611517143 -0.001139099619055054" pbc="T T T"
Si       7.18583277       6.66315563       7.58958228       0.03720722       0.20759049       1.17599691
Si       6.86233727       4.53929428      12.82841700      -0.14063820      -0.15503039       1.03179417
Si       1.98977552       3.12998846       3.46604974       2.01446283      -3.61998621       4.66522368
Si       6.68199134       3.02798204       1.50199479       0.72864659       1.85676671       0.19010131
Si       7.53895300       1.42628939       5.62501418      -3.60713272      -0.74346896       1.13701160
Si       8.85566691       2.88966544       7.25258415      -0.77395306       1.67769657      -1.95337297
Si       4.94831562       3.76469851       3.43643274      -0.70602949       0.04676692       0.45647521
Si       8.32143541       4.52943215       2.13270310      -1.58896481       1.74848929      -2.45373634
Si       3.69030808       2.90942578       8.37729773       3.52447552      -0.51223087       0.76254028
Si       6.97485427       2.51539084       7.92078334      -3.82210977      -1.84839859       1.34762835
Si       9.40099081       5.49769745       8.75489914       1.15228577       0.64328931       0.39356749
Si       2.79388684       1.67051400       5.43649885       3.50496507       0.80200941      -4.24131969
Si       5.07798317       7.90756098      10.47080027      -0.32449929       0.23120184      -0.19734776
Si       4.33216372       3.73218705      10.32794247       0.38638326       0.84701700       1.80936324
Si       7.32908131       3.79916401      10.80309663      -0.17151317       0.32776280      -1.16092372
Si       6.32394996       1.21580699       0.70181525      -0.21358575      -1.50947531      -2.96300176
16
Lattice="6.911087159422204 0.21997348268932432 0.129009628746363 2.626449907716208 6.354609320888589 0.6024818148843342 3.4872914261710677 2.4465491366923007 13.381219190995123" Properties=species:S:1:pos:R:3:forces:R:3 unique_starting_index=3 config_type=initial n_minim_iter=6 energy=-2586.037626496679 stress="-0.003947106000523057 0.011899117158527253 0.0004976398139336196 -0.00781792642776172 -0.0005032297465047433 -7.54816776793644e-05" pbc="T T T"
Si       7.31872477       6.63281645       7.77211368       0.13085884       0.43822278       1.10080465
Si       7.00283362       4.63578372      13.01640672      -0.21681187      -0.18755312       0.51738895
Si       2.04085716       3.10107898       3.56491459       2.00382177      -3.38563179       4.44887235
Si       6.78779257       2.99947980       1.58000035       0.78437658       1.76808051       0.29024543
Si       7.64775066       1.49002633       5.71465688      -2.70713349      -0.53985578       1.08917151
Si       9.00221124       2.95251640       7.36698709      -0.60732109       1.20357610      -1.39012603
Si       5.03004580       3.73646433       3.53467018      -0.56368765       0.26234301       0.68578239
Si       8.44359557       4.47524619       2.22936308      -1.66032322       1.24937269      -2.16650218
Si       3.78650642       2.97146314       8.49768672       2.78027988      -0.33163434       0.42190393
Si       7.08298287       2.58171161       8.04237577      -3.02062062      -1.78023316       1.09504470
Si       9.57167637       5.51934261       8.93191330       1.14877225       0.68864011       0.49576933
Si       2.86642505       1.71837219       5.49058387       2.49943893       0.68793839      -3.82110596
Si       5.18998766       7.88403044      10.68043454      -0.20251319       0.22056126      -0.02438961
Si       4.43126918       3.80929162      10.48233873       0.08148292       0.61130421       1.25747206
Si       7.46862202       3.88498349      10.95607731      -0.10603342       0.29184189      -0.91890006
Si       6.41440794       1.20456409       0.72843929      -0.34458662      -1.19697275      -3.08143146
16
Lattice="7.0307136345306 0.22151069426340494 0.14937633826010568 2.6695585330863563 6.061359905058419 0.8231351174124141 3.580130992221267 2.7581768570306453 13.44914420731127" Properties=species:S:1:pos:R:3:forces:R:3 unique_starting_index=3 config_type=initial n_minim_iter=7 energy=-2587.604255369966 stress="-0.000367595847266941 0.0004428067534236351 0.0026987682854860834 -0.0015335952273056337 -0.0023715925035383196 -0.00028969249183396334" pbc="T T T"
Si       7.46345163       6.56746945       8.01465691       0.41556625       0.73352594       0.59667587
Si       7.15172026       4.83047897      13.17249215      -0.39419659       0.06612707      -0.33420897
Si       2.10715652       3.04501970       3.72077765       1.30760990      -2.82746125       3.63920496
Si       6.91814313       2.92585556       1.70039028       0.37273041       1.56609190       0.50298991
Si       7.76132380       1.60407023       5.78218953      -1.55999714      -0.56029423       0.95212301
Si       9.16763742       3.05997996       7.45655073      -0.03686871       0.76002283      -0.90856465
Si       5.11752155       3.67352008       3.67496767      -0.18542142       0.33390348       0.95229136
Si       8.57241063       4.33969376       2.36767305      -1.49877659       0.98004971      -2.05786383
Si       3.90503336       3.10079034       8.59842307       2.05082170      -0.00955457      -0.14581154
Si       7.18740838       2.70444053       8.13955481      -2.10849592      -1.32353520       0.82623398
Si       9.77100782       5.55085276       9.13198688       0.86591918       0.65055276       0.67817238
Si       2.95733388       1.81222247       5.49834702       1.65022649      -0.15485146      -1.97023653
Si       5.29984314       7.84269120      10.94148071      -0.05150954       0.49633623       0.55537302
Si       4.53430351       3.96943856      10.62104717      -0.35789593       0.08486391       0.87889769
Si       7.62169708       4.05273309      11.07313288      -0.04759432       0.03238590      -0.84929550
Si       6.51978761       1.15865832       0.73751719      -0.42211779      -0.82816303      -3.31598117
16
Lattice="7.047555318654661 0.237314857206413 0.2413179471857481 2.691786204364626 6.059140628961945 0.9055718821375381 3.7587612207009 2.8525012568874843 13.327605229252292" Properties=species:S:1:pos:R:3:forces:R:3 unique_starting_index=3 config_type=initial n_minim_iter=8 energy=-2588.598161949224 stress="0.004937451120664181 0.005312502500271097 0.00562800469799484 -0.00016202339041424267 -0.0021030669921028294 -0.00019762750807271595" pbc="T T T"
Si       7.59410016       6.63439991       8.07300228       0.43797895       0.63830638       0.69145718
Si       7.33004737       4.92522638      13.11623865      -0.44589264       0.09028350      -0.27439053
Si       2.18266965       3.05076061       3.77755821       0.42124253      -1.69973344       1.59741041
Si       6.96491394       2.96494186       1.80864693      -0.07343414       0.51895501       0.34953575
Si       7.82724539       1.65266770       5.82816257      -1.28573671      -0.33008785       0.71367012
Si       9.28264030       3.12969011       7.48522648       0.25209276       0.65790507      -0.41508914
Si       5.17636249       3.70818625       3.74143467       0.12098368       0.32668068       1.01388275
Si       8.59981202       4.36736790       2.45507908      -0.85611509       0.71759403      -1.01316424
Si       4.05635906       3.16301609       8.55442410       1.96282521      -0.05894884      -0.64145534
Si       7.27320027       2.75636233       8.14951102      -1.84359665      -1.05096099       0.70207318
Si       9.92653834       5.63260592       9.19582322       0.81807341       0.61502881       0.61823889
Si       3.05832025       1.84608029       5.44285229       1.58228338      -0.70364278      -1.00687158
Si       5.45622749       7.91907278      10.93963334      -0.08823088       0.41415903       0.59062560
Si       4.67607358       4.04698573      10.57967353      -0.38449514       0.14192592       1.00752302
Si       7.77890157       4.13409283      11.03745780      -0.24168817       0.02603280      -0.95641841
Si       6.53323096       1.15524384       0.76466555      -0.37629051      -0.30349734      -2.97702766
16
Lattice="6.885854183313108 0.24158247160215882 0.30544439275148927 2.6400934172746604 5.911463031650064 0.9130461099442936 3.801441404391304 2.7960909577113435 13.013696187087055" Properties=species:S:1:pos:R:3:forces:R:3 unique_starting_index=3 config_type=initial n_minim_iter=9 energy=-2589.27194431289 stress="-0.001029469658496728 0.00016807715676117564 -0.00682089825819472 -0.000972820981026794 -0.0014664002853746801 -0.003179819637943375" pbc="T T T"
Si       7.50540727       6.49301374       7.95205481       0.14046851       0.31519112       0.66939004
Si       7.28183121       4.82134249      12.84093973      -0.90457693       0.15396216       0.36040734
Si       2.17568599       2.96896455       3.72018966       0.22361855      -1.12782527       1.07055191
Si       6.82119386       2.90759440       1.83893031      -0.77804514       0.66280068       0.65193032
Si       7.68467976       1.62438924       5.76083914      -1.86948807      -0.18615595       0.54145146
Si       9.14379726       3.07512383       7.37784895       0.44371346       1.10256521       0.14210252
Si       5.09659295       3.63133034       3.71245299       0.50623884       0.28041802       0.82162990
Si       8.41251714       4.27483054       2.46551873      -0.26744013       1.81131056      -1.78542021
Si       4.07247364       3.09509456       8.36315215       2.78284576      -0.51421163      -1.05750747
Si       7.15799112       2.69392465       8.01302041      -2.42861126      -0.67825912       0.87837901
Si       9.79922429       5.52045857       9.06690955       0.37271404       0.60058542       0.31000520
Si       3.06071841       1.80000230       5.31557139       2.53545716      -1.66464191      -0.50947324
Si       5.43792873       7.74159846      10.71955634      -0.47278071       0.15060389       0.92665672
Si       4.66714257       3.96374172      10.36331762       0.04112069       0.49289103       1.50871795
Si       7.70178788       4.04679125      10.81134978      -0.15623840      -0.19672285      -1.60993179
Si       6.37995597       1.12429929       0.76600283      -0.16899638      -1.20251135      -2.91888967
16
Lattice="6.900319217055105 0.2772247507437697 0.3275554040145047 2.68206092177121 5.92508089712649 0.937709463925777 3.856407836273794 2.842697534335899 13.181318640609064" Properties=species:S:1:pos:R:3:forces:R:3 unique_starting_index=3 config_type=initial n_minim_iter=10 energy=-2589.588688362194 stress="0.003929991389041583 0.005287571025093507 0.0014041421785840342 -0.000279231138030436 -0.001992295399462524 -0.0022345146691747806" pbc="T T T"
Si       7.57781079       6.54835331       8.07787297       0.15344138       0.34108317       0.65778044
Si       7.35005019       4.88527993      13.01977553      -0.80859081       0.03190162       0.17598585
Si       2.20749814       2.98440650       3.77830324       0.12922160      -1.06196335       0.79196976
Si       6.85154101       2.94820714       1.88610822      -0.73202569       0.43678941       0.52401455
Si       7.71232686       1.67466494       5.85320384      -1.53904149      -0.10278667       0.66936095
Si       9.19911229       3.14095721       7.49533267       0.38727751       0.87538999       0.04715244
Si       5.13943862       3.66630722       3.77929978       0.48884647       0.32988383       0.94346919
Si       8.45722952       4.32609090       2.51392966      -0.26900726       1.44189208      -1.38988211
Si       4.13239043       3.13101336       8.47166516       2.57731637      -0.44627421      -0.79017677
Si       7.19353028       2.74444997       8.13297689      -2.10836366      -0.67418501       0.82750682
Si       9.87382141       5.59089304       9.20932828       0.38719446       0.64980431       0.34053571
Si       3.10227757       1.82097044       5.38539966       2.12585089      -1.47044264      -0.36966514
Si       5.51758613       7.79146650      10.87510594      -0.36461604       0.30673942       0.67822453
Si       4.72531766       4.01213745      10.51210025      -0.16755157       0.28085394       1.10162948
Si       7.76405340       4.10556394      10.95538081      -0.11250718      -0.11570990      -1.44539573
Si       6.39701578       1.15047204       0.77562711      -0.14744498      -0.82297599      -2.76250996
16
Lattice="6.862647404104399 0.2969048905328793 0.34792208259080804 2.689388175807849 5.888336604243829 0.9445046825665335 3.8804380297895635 2.8418599731151453 13.166575382849766" Properties=species:S:1:pos:R:3:forces:R:3 unique_starting_index=3 config_type=initial n_minim_iter=11 energy=-2589.8325943419004 stress="0.004539050786488625 0.005494091233669804 -0.00013322104859555433 -0.0005924096902774806 -0.0022243850529638644 -0.002802388405618919" pbc="T T T"
Si       7.58007661       6.52871883       8.08863398       0.13795768       0.29127525       0.63445363
Si       7.35706349       4.87945425      13.01666640      -0.82682172      -0.00629306       0.28234466
Si       2.21598779       2.96847211       3.78040898       0.10199637      -0.93522294       0.67364892
Si       6.82467511       2.94970474       1.90594921      -0.86867847       0.46864171       0.56959208
Si       7.68349020       1.68965822       5.86730609      -1.56175218      -0.04472776       0.66306350
Si       9.17987196       3.15342990       7.50964366       0.37812533       0.89847448       0.15184245
Si       5.13561324       3.65871360       3.79258676       0.58001038       0.28643076       0.88680967
Si       8.42910756       4.32376057       2.52966405      -0.16247768       1.64040222      -1.56413028
Si       4.15367462       3.12442037       8.46438270       2.62384769      -0.57586460      -0.72807543
Si       7.17494807       2.74935692       8.14091329      -2.19241578      -0.60006529       0.86743030
Si       9.86382187       5.58732755       9.22360396       0.27758400       0.68765745       0.27824650
Si       3.11430547       1.81632924       5.38192637       2.22171336      -1.59425153      -0.26367366
Si       5.54131007       7.75743103      10.87385846      -0.43833116       0.28163213       0.67123453
Si       4.74081653       4.00496927      10.51089670      -0.12124785       0.30860770       1.09917761
Si       7.76262232       4.10391692      10.95019692      -0.02574352      -0.15476246      -1.56472188
Si       6.36420840       1.15701391       0.77977982      -0.12376645      -0.95193407      -2.65724261
16
Lattice="6.717951309113014 0.37930203616094516 0.42660290064972545 2.724587590230693 5.768042980130419 0.9850363337331611 3.975096469634112 2.8708676310455514 13.226016337427161" Properties=species:S:1:pos:R:3:forces:R:3 unique_starting_index=3 config_type=initial n_minim_iter=12 energy=-2590.735729340384 stress="0.003665434130874525 0.00659271593576459 -0.003350854431835026 -0.0015699597922683186 -0.0019641018971630355 -0.002912507621198835" pbc="T T T"
Si       7.59529336       6.48982752       8.20319009       0.14975038       0.17283688       0.45638095
Si       7.39033871       4.89748837      13.12173088      -0.74409615      -0.11546269       0.54536243
Si       2.25113089       2.92588551       3.82143269      -0.01200430      -0.47642059       0.21516477
Si       6.72440381       2.97178615       1.99889985      -1.19145040       0.46188033       0.63718690
Si       7.57711238       1.76778116       5.96989984      -1.43054447       0.02572255       0.57027028
Si       9.10820448       3.22891037       7.63117926       0.44438503       0.92155835       0.30209394
Si       5.12517739       3.64900554       3.87622919       0.70588136       0.17647895       0.78676596
Si       8.32795618       4.33792634       2.61386404       0.23336487       2.20639559      -1.98367664
Si       4.23340713       3.12515899       8.51444917       2.37066024      -0.81851937      -0.29668831
Si       7.10950014       2.79602171       8.24163212      -2.31141496      -0.56215055       1.00299008
Si       9.82871448       5.61127638       9.35931783      -0.03996140       0.83906648       0.15157829
Si       3.15888629       1.81667800       5.41906441       2.49092626      -1.79965754       0.11185535
Si       5.64067006       7.66983720      10.96902101      -0.62803864       0.18082881       0.63719344
Si       4.80552085       4.00901134      10.59844035      -0.07058949       0.33205926       0.90892155
Si       7.76210977       4.13308751      11.02778735       0.24802001      -0.28366537      -1.71503546
Si       6.23955557       1.19311372       0.80781575      -0.21488833      -1.26095108      -2.33036353
16
Lattice="6.6895972201043845 0.4004078940885046 0.44539661657020857 2.736626393591342 5.732100479883028 1.004076268634426 4.000905007890968 2.8932043045899594 13.29630036441879" Properties=species:S:1:pos:R:3:forces:R:3 unique_starting_index=3 config_type=initial n_minim_iter=13 energy=-2590.974967201766 stress="0.003354183577099572 0.007658098424074738 -0.0023505387186504205 -0.0014667274389527057 -0.0017069369132871838 -0.002278364767952467" pbc="T T T"
Si       7.60666532       6.48331358       8.26821692       0.16372140       0.15990849       0.39875588
Si       7.40532382       4.91444310      13.20466056      -0.67110848      -0.21083091       0.56739696
Si       2.26141505       2.91774603       3.84791368      -0.03037217      -0.37867946       0.14812727
Si       6.70582437       2.97652764       2.03063037      -1.20004575       0.43598611       0.62345387
Si       7.55878474       1.79387527       6.01816840      -1.34329414       0.06508516       0.58618596
Si       9.10007989       3.25514263       7.69299648       0.47341226       0.86125421       0.24803142
Si       5.12852500       3.64743268       3.91444800       0.67703227       0.18002035       0.80090994
Si       8.31362523       4.34119868       2.64499680       0.30301570       2.31763220      -2.02979783
Si       4.25586366       3.13340891       8.56486742       2.26120849      -0.84427590      -0.18826838
Si       7.09951792       2.81603410       8.30080223      -2.24929320      -0.54995499       1.01770514
Si       9.82873912       5.62394519       9.43266394      -0.09686360       0.88429480       0.13701540
Si       3.17378692       1.82236146       5.45275356       2.45782732      -1.76474475       0.19498066
Si       5.66955893       7.65341457      11.04312411      -0.65371682       0.16891716       0.61772159
Si       4.82566264       4.01998182      10.66534977      -0.08478910       0.27086280       0.81041912
Si       7.76976189       4.15053824      11.09216186       0.26448312      -0.28635654      -1.65378211
Si       6.21483790       1.20137366       0.81686053      -0.27121730      -1.30911873      -2.27885488
16
Lattice="6.628556118968954 0.4372982247049034 0.48325205975428714 2.753684040357044 5.626228088277916 1.0416343476682377 4.049801452613145 2.927340195939043 13.419675029018055" Properties=species:S:1:pos:R:3:forces:R:3 unique_starting_index=3 config_type=initial n_minim_iter=14 energy=-2591.521226043556 stress="0.002077894230811027 0.01001332507889775 -0.002170315599700361 -0.0013670016288825167 -0.000791879765703512 -0.000961306023620187" pbc="T T T"
Si       7.62051092       6.43420605       8.38896045       0.17380892       0.12870988       0.27521787
Si       7.42828681       4.92385001      13.35489191      -0.53511746      -0.26635588       0.60165439
Si       2.27829291       2.88592903       3.89589689      -0.08030942      -0.19292710       0.03941588
Si       6.66072908       2.96681840       2.09320937      -1.16991860       0.24901978       0.59494560
Si       7.51610891       1.83591064       6.10865660      -1.21219961       0.15392945       0.55246879
Si       9.07767924       3.28952128       7.80807491       0.52319410       0.77533027       0.18233417
Si       5.13031896       3.62366534       3.98841016       0.55988098       0.22349936       0.80590509
Si       8.27718163       4.32178104       2.70228138       0.51224834       2.63548874      -2.17153976
Si       4.29875776       3.13473621       8.65575446       2.15842619      -0.99472890      -0.04625268
Si       7.07180246       2.84089735       8.41021575      -2.08775586      -0.50042340       1.05325578
Si       9.81890422       5.61854010       9.56880776      -0.31276801       1.03727362       0.13682479
Si       3.20367379       1.82458351       5.51449559       2.43726887      -1.70423993       0.33773364
Si       5.71770847       7.58028142      11.17857101      -0.66489877       0.03433649       0.61249652
Si       4.86108626       4.02281721      10.78631888      -0.05985230       0.12272430       0.68411921
Si       7.77839357       4.16371559      11.20474799       0.19915250      -0.24566679      -1.52500985
Si       6.15881870       1.20620994       0.83023562      -0.44115986      -1.45596991      -2.13356943
16