18
Lattice="5.387570000000001 9.880760529343078e-17 -3.704485189853774e-16 -0.776231091035323 6.266335913930095 -4.20335795280715e-32 7.6821257700823e-16 9.516095131008777e-17 11.1724" Properties=species:S:1:pos:R:3:forces:R:3 unique_starting_index=242 config_type=initial n_minim_iter=1 energy=-2867.838190360779 stress="-0.2444599552343446 -0.374119071865125 -0.4376663463176161 -2.4649194632640754e-12 -2.89953050383834e-12 0.0261072453917429" pbc="T T T"
Si       1.73382649       3.56842326       0.49483565      -0.01001380      18.76553540      -5.67480800
Si       0.18372742       2.69791265       6.08103565       0.01001380     -18.76553540      -5.67480800
Si       2.87751242       2.69791265      10.67756435       0.01001380     -18.76553540       5.67480800
Si       4.42761149       3.56842326       5.09136435      -0.01001380      18.76553540       5.67480800
Si       4.21599015       1.97868329       1.97371954      -0.59370136       0.25851865      -0.75184352
Si       3.08913376       4.28765262       7.55991954       0.59370136      -0.25851865      -0.75184352
Si       0.39534876       4.28765262       9.19868046       0.59370136      -0.25851865       0.75184352
Si       1.52220515       1.97868329       3.61248046      -0.59370136       0.25851865       0.75184352
Si       4.06594169       4.56830175       0.03650135      -5.07498832      13.50212091       8.38336620
Si       3.23918222       1.69803416       5.62270135       5.07498832     -13.50212091       8.38336620
Si       0.54539722       1.69803416      11.13589865       5.07498832     -13.50212091      -8.38336620
Si       1.37215669       4.56830175       5.54969865      -5.07498832      13.50212091      -8.38336620
Si       3.69406126       2.53094362       4.11897563      -7.62989657      -9.48725491     -19.24311460
Si       3.61106265       3.73539229       9.70517563       7.62989657       9.48725491     -19.24311460
Si       0.91727765       3.73539229       7.05342437       7.62989657       9.48725491      19.24311460
Si       1.00027626       2.53094362       1.46722437      -7.62989657      -9.48725491      19.24311460
Si      -0.38811555       3.13316795      -0.00000000       0.00000000      -0.00000000      -0.00000000
Si       2.30566946       3.13316795       5.58620000      -0.00000000      -0.00000000       0.00000000
18
Lattice="5.4374791852366675 -0.005367523944875196 -4.1776798563753327e-16 -0.7896649340060125 6.356164480974102 -3.04769237868002e-16 6.898931694669704e-16 -4.582038403612204e-16 11.358365471812117" Properties=species:S:1:pos:R:3:forces:R:3 unique_starting_index=242 config_type=initial n_minim_iter=2 energy=-2873.557974045073 stress="-0.20913530383478174 -0.3226791256705101 -0.36931114744743077 2.735920440227568e-12 4.6687345522014885e-12 0.027035814933497954" pbc="T T T"
Si       1.74633023       3.61931243       0.50249530      -0.54805786      16.92944590      -4.72808812
Si       0.18274443       2.73416828       6.18167804       0.54805786     -16.92944590      -4.72808812
Si       2.90148403       2.73148452      10.85587017       0.54805786     -16.92944590       4.72808812
Si       4.46506982       3.61662867       5.17668743      -0.54805786      16.92944590       4.72808812
Si       4.25301483       2.00262970       2.00649582      -0.52022277       0.47204305      -0.43653897
Si       3.11353902       4.34548349       7.68567856       0.52022277      -0.47204305      -0.43653897
Si       0.39479942       4.34816725       9.35186965       0.52022277      -0.47204305       0.43653897
Si       1.53427523       2.00531346       3.67268692      -0.52022277       0.47204305       0.43653897
Si       4.09854277       4.63054413       0.03796121      -4.51221666      12.14716683       7.63500329
Si       3.26801107       1.71756906       5.71714394       4.51221666     -12.14716683       7.63500329
Si       0.54927148       1.72025282      11.32040426       4.51221666     -12.14716683      -7.63500329
Si       1.37980318       4.63322789       5.64122153      -4.51221666      12.14716683      -7.63500329
Si       3.72499154       2.56227084       4.18557996      -6.77452472      -8.34524253     -17.29524418
Si       3.64156231       3.78584235       9.86476270       6.77452472       8.34524253     -17.29524418
Si       0.92282271       3.78852611       7.17278551       6.77452472       8.34524253      17.29524418
Si       1.00625195       2.56495460       1.49360278      -6.77452472      -8.34524253      17.29524418
Si      -0.39483247       3.17808224      -0.00000000      -0.00000000       0.00000000      -0.00000000
Si       2.32390713       3.17539848       5.67918274      -0.00000000       0.00000000       0.00000000
18
Lattice="5.847157386843661 -0.06198522412846935 -8.138147869569486e-16 -0.9145432159459913 7.117850750475347 -2.8610480898024315e-15 3.378100613552252e-17 -5.099969391204946e-15 12.91169918981712" Properties=species:S:1:pos:R:3:forces:R:3 unique_starting_index=242 config_type=initial n_minim_iter=3 energy=-2901.1664088874636 stress="-0.06062426576813995 -0.11405719526198793 -0.08473569308034301 7.038767548517468e-13 1.1745731468346346e-12 0.0147101871002732" pbc="T T T"
Si       1.83993089       4.04765169       0.56630291       1.62492668       8.76938571      -3.14616461
Si       0.16910458       3.03920645       7.02215250      -1.62492668      -8.76938571      -3.14616461
Si       3.09268328       3.00821383      12.34539628      -1.62492668      -8.76938571       3.14616461
Si       4.76350959       4.01665908       5.88954669       1.62492668       8.76938571       3.14616461
Si       4.55229663       2.19675122       2.28044425      -0.36505294       0.51087514       0.40352695
Si       3.30389624       4.82812169       8.73629384       0.36505294      -0.51087514       0.40352695
Si       0.38031754       4.85911430      10.63125494       0.36505294      -0.51087514      -0.40352695
Si       1.62871794       2.22774383       4.17540535      -0.36505294       0.51087514      -0.40352695
Si       4.35515437       5.14973220       0.05108472      -2.74680144       5.43351859       3.12670150
Si       3.50103850       1.87514071       6.50693431       2.74680144      -5.43351859       3.12670150
Si       0.57745981       1.90613332      12.86061447       2.74680144      -5.43351859      -3.12670150
Si       1.43157567       5.18072482       6.40476488      -2.74680144       5.43351859      -3.12670150
Si       3.97277989       2.81927671       4.74001834      -2.22858692      -4.61405809      -9.42677281
Si       3.88341298       4.20559620      11.19586794       2.22858692       4.61405809      -9.42677281
Si       0.95983428       4.23658882       8.17168085       2.22858692       4.61405809       9.42677281
Si       1.04920120       2.85026932       1.71583125      -2.22858692      -4.61405809       9.42677281
Si      -0.45727161       3.55892537      -0.00000000      -0.00000000       0.00000000      -0.00000000
Si       2.46630709       3.52793276       6.45584959       0.00000000       0.00000000      -0.00000000
18
Lattice="6.130352693322649 -0.13951066531509584 -1.009335508258711e-15 -1.045516077194252 7.7891965220238735 -3.889127530056899e-15 -2.0655353684490528e-16 -7.078524513838239e-15 13.790442032129263" Properties=species:S:1:pos:R:3:forces:R:3 unique_starting_index=242 config_type=initial n_minim_iter=4 energy=-2910.112940541349 stress="-0.018413299584268777 -0.06150019294325483 -0.019899251579233883 4.965947025964118e-12 -1.483784582019602e-12 0.012019390297559001" pbc="T T T"
Si       1.88181524       4.41821390       0.59834596       1.39388732       5.01584473      -2.70947133
Si       0.13784503       3.30122729       7.49356698      -1.39388732      -5.01584473      -2.70947133
Si       3.20302138       3.23147196      13.19209607      -1.39388732      -5.01584473       2.70947133
Si       4.94699158       4.34845856       6.29687505       1.39388732       5.01584473       2.70947133
Si       4.74471737       2.34566223       2.43647991       0.07768442       0.42926478       0.54383081
Si       3.40529560       5.23426829       9.33170093      -0.07768442      -0.42926478       0.54383080
Si       0.34011925       5.30402362      11.35396212      -0.07768442      -0.42926478      -0.54383080
Si       1.67954102       2.41541757       4.45874110       0.07768442       0.42926478      -0.54383080
Si       4.49748037       5.58510027       0.06101955      -2.14685237       2.78292615       2.04564978
Si       3.65253259       1.99483025       6.95624057       2.14685237      -2.78292615       2.04564978
Si       0.58735625       2.06458558      13.72942248       2.14685237      -2.78292615      -2.04564978
Si       1.43230402       5.65485560       6.83420146      -2.14685237       2.78292615      -2.04564978
Si       4.12659869       3.02271031       5.04314318      -1.51822394      -2.68953792      -6.36251894
Si       4.02341427       4.55722021      11.93836419       1.51822394       2.68953792      -6.36251894
Si       0.95823793       4.62697554       8.74729886       1.51822394       2.68953792       6.36251894
Si       1.06142234       3.09246565       1.85207784      -1.51822394      -2.68953792       6.36251894
Si      -0.52275804       3.89459826      -0.00000000       0.00000000       0.00000000      -0.00000000
Si       2.54241831       3.82484293       6.89522102      -0.00000000      -0.00000000      -0.00000000
18
Lattice="6.339345968095107 -0.2971526550500028 -1.1707095279296698e-15 -1.2589823967993656 8.716554277195678 -4.115609400752469e-15 -3.0488143649741027e-16 -8.108636804683674e-15 14.28776782012994" Properties=species:S:1:pos:R:3:forces:R:3 unique_starting_index=242 config_type=initial n_minim_iter=5 energy=-2914.8445309599724 stress="0.020785866531086262 -0.005963629125898242 0.01599403111996169 -1.830590904246363e-12 -1.3025270941795832e-12 0.0013179500895743662" pbc="T T T"
Si       1.84753610       4.91011365       0.60832526       1.07655089       2.09189113      -1.51526715
Si       0.06315449       3.65786430       7.75220917      -1.07655089      -2.09189114      -1.51526715
Si       3.23282747       3.50928797      13.67944256      -1.07655089      -2.09189114       1.51526715
Si       5.01720909       4.76153732       6.53555865       1.07655089       2.09189114       1.51526715
Si       4.85045261       2.51015338       2.52667495       0.51517342       0.53994343       0.16992092
Si       3.39958395       5.76067191       9.67055886      -0.51517342      -0.53994343       0.16992092
Si       0.22991097       5.90924824      11.76109287      -0.51517342      -0.53994343      -0.16992092
Si       1.68077962       2.65872971       4.61720896       0.51517342       0.53994343      -0.16992092
Si       4.51201769       6.14249836       0.07197727      -0.75109598      -0.05812560       1.19829906
Si       3.73801886       2.12832693       7.21586118       0.75109598       0.05812560       1.19829906
Si       0.56834588       2.27690326      14.21579055       0.75109598       0.05812560      -1.19829906
Si       1.34234471       6.29107469       7.07190664      -0.75109598      -0.05812560      -1.19829906
Si       4.19111459       3.26587494       5.19777732      -1.49367941      -0.92399044      -3.58646955
Si       4.05892196       5.00495035      12.34166123       1.49367941       0.92399044      -3.58646955
Si       0.88924898       5.15352668       9.08999050       1.49367941       0.92399044       3.58646955
Si       1.02144161       3.41445127       1.94610659      -1.49367941      -0.92399044       3.58646955
Si      -0.62949120       4.35827714      -0.00000000      -0.00000000       0.00000000      -0.00000000
Si       2.54018179       4.20970081       7.14388391      -0.00000000      -0.00000000      -0.00000000
18
Lattice="6.1082760662660744 -0.3095094067520058 -1.4043512013295407e-15 -1.2400625340351878 8.812294046021764 -6.3635889820082836e-15 -8.281759381780225e-16 -1.2487223454379518e-14 13.8839502192964" Properties=species:S:1:pos:R:3:forces:R:3 unique_starting_index=242 config_type=initial n_minim_iter=6 energy=-2916.100882820759 stress="0.010879262845625935 -0.01587835756279576 0.01074142257771932 6.393533586166452e-13 -1.1508892576664874e-12 0.0018985262454948918" pbc="T T T"
Si       1.76723888       4.96927267       0.58562723       1.28073095       2.52589353      -1.39519612
Si       0.04683662       3.68826667       7.52760234      -1.28073095      -2.52589353      -1.39519612
Si       3.10097465       3.53351196      13.29832299      -1.28073095      -2.52589353       1.39519612
Si       4.82137692       4.81451797       6.35634788       1.28073095       2.52589353       1.39519612
Si       4.66652455       2.53241965       2.45588042       0.19189619       0.65062015       0.26507572
Si       3.25582702       5.81561028       9.39785553      -0.19189619      -0.65062015       0.26507572
Si       0.20168898       5.97036498      11.42806980      -0.19189619      -0.65062015      -0.26507572
Si       1.61238652       2.68717436       4.48609469       0.19189619       0.65062015      -0.26507573
Si       4.32548286       6.20215913       0.07429628      -0.93540014       0.62212051       1.31476064
Si       3.59686871       2.14587080       7.01627139       0.93540014      -0.62212051       1.31476065
Si       0.54273068       2.30062551      13.80965394       0.93540014      -0.62212051      -1.31476064
Si       1.27134482       6.35691383       6.86767883      -0.93540014       0.62212051      -1.31476064
Si       4.02329609       3.29140934       5.03784233      -1.09178942      -1.01770920      -3.43080736
Si       3.89905548       5.05662059      11.97981744       1.09178942       1.01770920      -3.43080736
Si       0.84491745       5.21137529       8.84610789       1.09178942       1.01770920       3.43080736
Si       0.96915805       3.44616404       1.90413278      -1.09178942      -1.01770920       3.43080736
Si      -0.62003127       4.40614702      -0.00000000       0.00000000      -0.00000000       0.00000000
Si       2.43410677       4.25139232       6.94197511       0.00000000       0.00000000       0.00000000
18
Lattice="5.989194872520545 -0.33494813833212733 -1.6932266472281188e-15 -1.2524935766689664 9.075381018595799 -8.742174970661776e-15 -1.4085731436142508e-15 -1.7481707915261897e-14 13.614013943552461" Properties=species:S:1:pos:R:3:forces:R:3 unique_starting_index=242 config_type=initial n_minim_iter=7 energy=-2917.0997261953253 stress="0.009389277771955654 -0.011486679189972268 0.009853229088278825 -1.5708735189996199e-12 -1.6794290720327964e-12 0.0017917022513305068" pbc="T T T"
Si       1.71467032       5.12312045       0.56903687       1.36319712       2.28735637      -1.07803907
Si       0.02743355       3.78478649       7.37604384      -1.36319712      -2.28735637      -1.07803907
Si       3.02203098       3.61731242      13.04497708      -1.36319712      -2.28735638       1.07803907
Si       4.70926775       4.95564639       6.23797011       1.36319712       2.28735638       1.07803907
Si       4.56432163       2.59777183       2.40912118       0.05011535       0.80487776       0.22429123
Si       3.16697710       5.97518698       9.21612816      -0.05011535      -0.80487776       0.22429123
Si       0.17237966       6.14266105      11.20489276      -0.05011535      -0.80487776      -0.22429123
Si       1.56972420       2.76524590       4.39788579       0.05011536       0.80487776      -0.22429123
Si       4.21114801       6.37688510       0.07775615      -0.88026460       0.72368610       1.31308001
Si       3.52015072       2.19607371       6.88476312       0.88026460      -0.72368610       1.31308001
Si       0.52555329       2.36354778      13.53625779       0.88026460      -0.72368610      -1.31308001
Si       1.21655057       6.54435917       6.72925082      -0.88026460       0.72368610      -1.31308001
Si       3.92721693       3.37303987       4.92709724      -0.72944512      -0.77530785      -2.67651106
Si       3.80408180       5.19991894      11.73410421       0.72944512       0.77530785      -2.67651106
Si       0.80948437       5.36739301       8.68691670       0.72944512       0.77530785       2.67651106
Si       0.93261950       3.54051393       1.87990973      -0.72944512      -0.77530785       2.67651106
Si      -0.62624679       4.53769051      -0.00000000       0.00000000      -0.00000000      -0.00000000
Si       2.36835065       4.37021644       6.80700697      -0.00000000      -0.00000000      -0.00000000
18
Lattice="5.591192510191127 -0.43109837118325245 -1.8412008084548273e-15 -1.3069834207549171 9.898489103704135 -8.946565715143038e-15 -1.5440577589182635e-15 -2.1105628290761088e-14 12.653892200790207" Properties=species:S:1:pos:R:3:forces:R:3 unique_starting_index=242 config_type=initial n_minim_iter=8 energy=-2918.7961098446244 stress="-0.00545720225569462 0.0013585127419273493 -0.004484596549285621 -2.096683669956294e-12 2.1772159937813757e-12 -0.008047747498769848" pbc="T T T"
Si       1.53271733       5.61079984       0.51386598       1.64345835       1.26619517      -0.51243775
Si      -0.04410450       4.07214007       6.84081208      -1.64345835      -1.26619517      -0.51243775
Si       2.75149176       3.85659088      12.14002622      -1.64345835      -1.26619517       0.51243775
Si       4.32831359       5.39525066       5.81308012       1.64345835       1.26619517       0.51243775
Si       4.21649848       2.79724411       2.24234819      -0.40137232       0.95146291       0.16586447
Si       2.86330686       6.45459743       8.56929429       0.40137232      -0.95146291       0.16586447
Si       0.06771061       6.67014661      10.41154401       0.40137232      -0.95146291      -0.16586447
Si       1.42090223       3.01279330       4.08459791      -0.40137232       0.95146291      -0.16586447
Si       3.81855153       6.91714179       0.09059136      -0.02376925       0.21995854       1.71307937
Si       3.26125382       2.33469975       6.41753746       0.02376925      -0.21995854       1.71307937
Si       0.46565756       2.55024894      12.56330084       0.02376925      -0.21995854      -1.71307937
Si       1.02295527       7.13269098       6.23635474      -0.02376925       0.21995854      -1.71307937
Si       3.60416131       3.61396308       4.54227580       0.55090157      -0.00257758      -1.65151992
Si       3.47564403       5.63787846      10.86922190      -0.55090157       0.00257758      -1.65151992
Si       0.68004778       5.85342764       8.11161640      -0.55090157       0.00257758       1.65151992
Si       0.80856506       3.82951227       1.78467030       0.55090157      -0.00257758       1.65151992
Si      -0.65349171       4.94924455      -0.00000000       0.00000000      -0.00000000       0.00000000
Si       2.14210455       4.73369536       6.32694610      -0.00000000      -0.00000000      -0.00000000
18
Lattice="5.725622402246964 -0.17078059168725893 -2.059141323427539e-15 -1.0235736480907993 9.784357611279802 -1.5814631980880236e-14 -2.844992267681412e-15 -3.268758795191535e-14 12.923510032536402" Properties=species:S:1:pos:R:3:forces:R:3 unique_starting_index=242 config_type=initial n_minim_iter=9 energy=-2919.0437201435047 stress="0.015124046308311961 0.012124284021401612 0.013613622995371565 1.851678720006327e-12 -4.1833149154419194e-12 0.005890390394744436" pbc="T T T"
Si       1.76482392       5.67026727       0.52026180       0.48996307       0.75976855      -0.32545516
Si       0.07441363       4.02870003       6.98201682      -0.48996307      -0.75976855      -0.32545516
Si       2.93722484       3.94330974      12.40324823      -0.48996307      -0.75976855       0.32545516
Si       4.62763512       5.58487698       5.94149321       0.48996307       0.75976855       0.32545516
Si       4.41432904       2.99280000       2.29159990       0.20072248       0.94354015      -0.04334507
Si       3.15053092       6.53538672       8.75335492      -0.20072248      -0.94354015      -0.04334507
Si       0.28771972       6.62077702      10.63191013      -0.20072248      -0.94354015       0.04334507
Si       1.55151784       3.07819029       4.17015511       0.20072248       0.94354015       0.04334507
Si       4.14171420       7.05938759       0.10774286      -0.64024388      -0.50267104       0.78695252
Si       3.42314576       2.46879912       6.56949787       0.64024388       0.50267104       0.78695252
Si       0.56033456       2.55418942      12.81576718       0.64024388       0.50267104      -0.78695253
Si       1.27890300       7.14477789       6.35401216      -0.64024388      -0.50267104      -0.78695253
Si       3.82000777       3.75997224       4.62438428      -0.26863054       0.04927805      -0.61738709
Si       3.74485219       5.76821447      11.08613929       0.26863054      -0.04927805      -0.61738709
Si       0.88204099       5.85360477       8.29912576       0.26863054      -0.04927805       0.61738709
Si       0.95719657       3.84536254       1.83737074      -0.26863054       0.04927805       0.61738709
Si      -0.51178682       4.89217880      -0.00000000       0.00000000       0.00000000      -0.00000000
Si       2.35102438       4.80678851       6.46175502       0.00000000      -0.00000000      -0.00000000
18
Lattice="5.5812039589059 -0.23558317087673242 -2.5072429503104968e-15 -1.0781386270052338 9.595746055475967 -1.895037015280988e-14 -3.4388787463684565e-15 -3.840829736161337e-14 12.62584582871312" Properties=species:S:1:pos:R:3:forces:R:3 unique_starting_index=242 config_type=initial n_minim_iter=10 energy=-2919.3826206308167 stress="-0.003103578883545037 -0.008626562220111702 -0.0064159311801203775 2.619561911387415e-12 -3.799831745722264e-13 0.0006190568158539311" pbc="T T T"
Si       1.67424511       5.53700547       0.50726975       0.78997184       1.52971227      -0.42509863
Si       0.03821824       3.94094899       6.82019267      -0.78997184      -1.52971227      -0.42509863
Si       2.82882022       3.82315741      12.11857608      -0.78997184      -1.52971227       0.42509863
Si       4.46484709       5.41921388       5.80565316       0.78997184       1.52971227       0.42509863
Si       4.27753525       2.88398527       2.23868363      -0.19877196       0.74902950      -0.04074907
Si       3.01613207       6.35838602       8.55160655       0.19877196      -0.74902950      -0.04074907
Si       0.22553009       6.47617761      10.38716219       0.19877196      -0.74902950       0.04074907
Si       1.48693327       3.00177686       4.07423928      -0.19877196       0.74902950       0.04074907
Si       3.97649795       6.86239200       0.10770096      -0.22229160       0.59058782       1.52337969
Si       3.31716936       2.37997930       6.42062388       0.22229160      -0.59058782       1.52337969
Si       0.52656739       2.49777088      12.51814486       0.22229160      -0.59058782      -1.52337969
Si       1.18589597       6.98018358       6.20522195      -0.22229160       0.59058782      -1.52337969
Si       3.69101541       3.63756404       4.51595787       0.58927998      -0.12511776      -1.54187491
Si       3.60265190       5.60480725      10.82888079      -0.58927998       0.12511776      -1.54187490
Si       0.81204992       5.72259884       8.10988796      -0.58927998       0.12511776       1.54187490
Si       0.90041343       3.75535563       1.79696504       0.58927998      -0.12511776       1.54187491
Si      -0.53906931       4.79787302      -0.00000000       0.00000000      -0.00000000      -0.00000000
Si       2.25153267       4.68008144       6.31292291      -0.00000000       0.00000000      -0.00000000
18
Lattice="5.600359016731023 -0.24179722191386752 -3.0005763452732143e-15 -1.0881260763784093 9.687561431766985 -2.3666559027659675e-14 -4.4151997016677116e-15 -4.709756858924175e-14 12.714839753440026" Properties=species:S:1:pos:R:3:forces:R:3 unique_starting_index=242 config_type=initial n_minim_iter=11 energy=-2919.5097647030016 stress="0.0022177287104318223 0.0001966178671443701 0.0012630282066077342 -4.6438127377109066e-12 -1.1504777993219772e-12 0.0008915976098735544" pbc="T T T"
Si       1.67740235       5.59405598       0.50995590       0.80193151       1.15678973      -0.44145383
Si       0.03465108       3.97260683       6.86737578      -0.80193151      -1.15678974      -0.44145383
Si       2.83483059       3.85170822      12.20488385      -0.80193151      -1.15678973       0.44145383
Si       4.47758186       5.47315737       5.84746397       0.80193151       1.15678973       0.44145383
Si       4.28971089       2.91120302       2.25437786      -0.12472676       0.82602158      -0.02075232
Si       3.02270156       6.41366257       8.61179774       0.12472676      -0.82602158      -0.02075232
Si       0.22252205       6.53456118      10.46046189       0.12472676      -0.82602158       0.02075232
Si       1.48953138       3.03210164       4.10304202      -0.12472676       0.82602158       0.02075232
Si       3.98501776       6.92697048       0.11164722      -0.29875548       0.15071675       1.26507730
Si       3.32739469       2.39789511       6.46906710       0.29875548      -0.15071675       1.26507730
Si       0.52721518       2.51879372      12.60319254       0.29875548      -0.15071675      -1.26507730
Si       1.18483826       7.04786909       6.24577266      -0.29875548       0.15071675      -1.26507730
Si       3.70224327       3.66885891       4.54456302       0.38550715      -0.06182567      -1.18497299
Si       3.61016918       5.65600668      10.90198290      -0.38550715       0.06182567      -1.18497299
Si       0.80998967       5.77690529       8.17027673      -0.38550715       0.06182567       1.18497299
Si       0.90206376       3.78975752       1.81285686       0.38550715      -0.06182567       1.18497299
Si      -0.54406304       4.84378071      -0.00000000      -0.00000000       0.00000000      -0.00000000
Si       2.25611647       4.72288210       6.35741988      -0.00000000       0.00000000       0.00000000
18
Lattice="5.587282681470556 -0.2480516419833817 -3.564080096294776e-15 -1.0935166400493088 9.686714740191075 -2.9549630290989566e-14 -5.5337475514903895e-15 -5.779814786136831e-14 12.697636647937756" Properties=species:S:1:pos:R:3:forces:R:3 unique_starting_index=242 config_type=initial n_minim_iter=12 energy=-2919.575512372094 stress="0.0013076783540581732 5.409966918767016e-05 0.0006786351436789346 -4.100146552156661e-12 5.377421802794846e-12 0.0004982919099763572" pbc="T T T"
Si       1.66996434       5.59511343       0.50837433       0.82852669       1.13329581      -0.44580251
Si       0.03016036       3.96757548       6.85719265      -0.82852669      -1.13329581      -0.44580251
Si       2.82380170       3.84354966      12.18926232      -0.82852669      -1.13329581       0.44580251
Si       4.46360568       5.47108761       5.84044399       0.82852669       1.13329581       0.44580251
Si       4.27678553       2.90883559       2.25128578      -0.16276749       0.81149466      -0.02838141
Si       3.01062186       6.40580168       8.60010411       0.16276749      -0.81149466      -0.02838141
Si       0.21698052       6.52982750      10.44635086       0.16276749      -0.81149466       0.02838141
Si       1.48314418       3.03286142       4.09753254      -0.16276749       0.81149466       0.02838141
Si       3.96934126       6.92161514       0.11405124      -0.28068502       0.15613589       1.26547192
Si       3.31806612       2.39302213       6.46286957       0.28068502      -0.15613589       1.26547192
Si       0.52442478       2.51704795      12.58358541       0.28068502      -0.15613589      -1.26547192
Si       1.17569992       7.04564096       6.23476708      -0.28068502       0.15613589      -1.26547192
Si       3.69111055       3.66360576       4.53602096       0.44362523      -0.06429815      -1.17393212
Si       3.59629683       5.65103151      10.88483928      -0.44362524       0.06429814      -1.17393212
Si       0.80265549       5.77505733       8.16161569      -0.44362523       0.06429815       1.17393212
Si       0.89746921       3.78763158       1.81279736       0.44362523      -0.06429814       1.17393212
Si      -0.54675832       4.84335737      -0.00000000      -0.00000000       0.00000000       0.00000000
Si       2.24688302       4.71933155       6.34881832       0.00000000      -0.00000000      -0.00000000
18
Lattice="5.567658706186812 -0.25694326164947684 -4.279409877572034e-15 -1.1010311848072798 9.68698827523738 -3.696776396515905e-14 -6.928464465635733e-15 -7.133282097630973e-14 12.674087400284622" Properties=species:S:1:pos:R:3:forces:R:3 unique_starting_index=242 config_type=initial n_minim_iter=13 energy=-2919.730202430475 stress="0.000440690454290396 0.0007186967241545587 0.0005364121821886403 7.170748830147485e-12 -2.4835443518701393e-12 3.004522750848473e-05" pbc="T T T"
Si       1.66043049       5.60195681       0.50513221       0.85499051       1.03604438      -0.45421246
Si       0.02236768       3.95655983       6.84217591      -0.85499051      -1.03604438      -0.45421246
Si       2.80619703       3.82808820      12.16895519      -0.85499051      -1.03604438       0.45421246
Si       4.44425985       5.47348517       5.83191149       0.85499051       1.03604438       0.45421246
Si       4.25702142       2.90934288       2.24696413      -0.21960241       0.78742607      -0.05516570
Si       2.99343546       6.39223049       8.58400783       0.21960241      -0.78742607      -0.05516570
Si       0.20960611       6.52070213      10.42712327       0.21960241      -0.78742607       0.05516570
Si       1.47319206       3.03781451       4.09007957      -0.21960241       0.78742607       0.05516570
Si       3.94575610       6.91583613       0.12036655      -0.26512605       0.11767117       1.21876760