18
Lattice="8.070353281405444 -0.6257177549663835 -0.992405695338128 -3.0276951793430666 7.507009171204918 -0.9924056953380378 -3.0276951793411233 -4.131640977219165 6.345833167998455" Properties=species:S:1:pos:R:3:forces:R:3 unique_starting_index=454 config_type=initial n_minim_iter=1 energy=-2931.0697701717445 stress="-0.0014239914701744646 -0.0005397588475335905 -0.0008560724885347735 -0.0005397588475335905 -0.0017650159283381177 -0.0011682101148753326 -0.0008560724885347735 -0.0011682101148753326 -0.002881266057347569" free_energy=-2931.0697701717445 pbc="T T T"
Si      -2.77859132       1.39540025       2.75316365      -0.20742976       0.09926881       0.01796306
Si       2.16758363       3.44518454      -0.82456428       0.15714218       0.08858454      -0.14374696
Si       2.63221619      -2.08241157       2.44593984       0.03713378      -0.20580323       0.09731488
Si      -0.97172692       3.47015519       0.28820272       0.15066677      -0.03148807       0.08084496
Si       3.60168491       0.20886617       0.23136960      -0.07541100       0.01510236       0.15592620
Si      -0.88577486      -1.29888137       3.25539572       0.03711701       0.16973139       0.00643932
Si      -1.24169438      -2.38784269       7.15124683      -0.01736461      -0.26868893       0.04561328
Si      -1.90289322       7.27313509       1.36544206      -0.25097788       0.08318648      -0.06830780
Si       7.50851707       1.06979508       0.92824492       0.15492490       0.03073100      -0.22277729
Si       4.76418671      -2.03267317       3.50133297       0.09905461      -0.20765757      -0.03753199
Si      -3.37337900       1.46485500       5.05599463      -0.22785045      -0.04761750       0.01260473
Si       2.41298083       5.75852844      -0.32471723       0.02322991       0.11121813      -0.20355105
Si       2.24069322       1.00160303       4.11943086       0.11504525       0.06043134       0.00010533
Si       0.28011330       2.66586734       3.97596694       0.02296917      -0.05504344       0.11545563
Si       2.45766210       3.12622701       2.67959454      -0.05940577       0.10188271       0.05457319
Si       1.64204183      -0.90112676       5.52939062       0.21830939      -0.01159356      -0.04572414
Si      -1.35390450       4.43125541       3.55153621      -0.07681663      -0.12949112       0.16497076
Si       4.63326691       3.18569777       1.57056001      -0.10033686       0.19724669      -0.03017212
18
Lattice="8.079464310361935 -0.6238641843831227 -0.989465881038576 -3.0286722300915425 7.516255356601505 -0.9894658810384862 -3.0286722300895983 -4.132974276204069 6.355443410780029" Properties=species:S:1:pos:R:3:forces:R:3 unique_starting_index=454 config_type=initial n_minim_iter=2 energy=-2931.0734503749895 stress="0.0016325408793209572 -7.503473676098034e-05 -0.00011900715703990617 -7.503473676098034e-05 0.0015851332702310893 -0.00016239906954195553 -0.00011900715703990617 -0.00016239906954195553 0.0014299574259089556" free_energy=-2931.0734503749895 pbc="T T T"
Si      -2.77994283       1.39938865       2.75957252      -0.22982926       0.10987741       0.01130791
Si       2.17179389       3.45100496      -0.82188027       0.17400546       0.09040957      -0.16300495
Si       2.63649800      -2.08247627       2.45230140       0.03379430      -0.23034880       0.10401817
Si      -0.97063293       3.47531471       0.29202726       0.16511026      -0.00907766       0.07702083
Si       3.60627523       0.21119739       0.23536196      -0.05839235       0.00280445       0.17279606
Si      -0.88493467      -1.29746868       3.26169992       0.02026377       0.17955443       0.02501192
Si      -1.23902966      -2.38555283       7.16620065      -0.00289152      -0.23387367       0.07071430
Si      -1.90151243       7.28523533       1.37480359      -0.22213949       0.09536499      -0.03557150
Si       7.51963934       1.07610318       0.93675749       0.15785071       0.04683337      -0.18054239
Si       4.77215763      -2.03055542       3.51165801       0.07092005      -0.20831513      -0.02054497
Si      -3.37376071       1.47061981       5.06787940      -0.22000246      -0.02063945      -0.00445802
Si       2.41859286       5.76866050      -0.31835537       0.04659081       0.08909292      -0.19682147
Si       2.24745236       1.00867542       4.13266854       0.09328636       0.03434895      -0.03807467
Si       0.28482112       2.67411498       3.98941141       0.00465273      -0.07716233       0.07318608
Si       2.46410851       3.13535185       2.69168264      -0.07497978       0.07414402       0.01457985
Si       1.64850829      -0.89606322       5.54366697       0.21992740      -0.03524970      -0.03085380
Si      -1.35102406       4.44082142       3.56463060      -0.09986136      -0.11366666       0.16634350
Si       4.64152092       3.19508670       1.58128326      -0.07830563       0.20590327      -0.04510686
18
Lattice="8.047615660098103 -0.6121644601056758 -0.9709097941852787 -3.0079221408212105 7.489410359543027 -0.9709097941851912 -3.00792214081928 -4.1046583744927005 6.339220219458677" Properties=species:S:1:pos:R:3:forces:R:3 unique_starting_index=454 config_type=initial n_minim_iter=3 energy=-2931.0834879497484 stress="-0.0027461585798092044 0.001340480691612852 0.0021260395208244657 0.001340480691612852 -0.0018992308723671985 0.002901227331495216 0.0021260395208244657 0.002901227331495216 0.0008729547747982066" free_energy=-2931.0834879497484 pbc="T T T"
Si      -2.76541488       1.40395308       2.76072954      -0.21260480       0.11061859       0.02327824
Si       2.17177005       3.44548431      -0.80764104       0.16952366       0.09403390      -0.14282333
Si       2.63124096      -2.06890138       2.45691872       0.03860034      -0.21076706       0.10984720
Si      -0.95682463       3.46605043       0.30447407       0.19326782       0.02793122       0.00414243
Si       3.59328178       0.21795520       0.25009020      -0.03158443      -0.07933490       0.17566491
Si      -0.87457673      -1.27971563       3.25870634      -0.06613568       0.18178961       0.02698837
Si      -1.21948123      -2.36096915       7.16369036      -0.01170903      -0.14080865       0.11734428
Si      -1.88395922       7.27174224       1.39722281      -0.13074113       0.12897907       0.00223899
Si       7.50148541       1.09086894       0.95785744       0.16237144       0.03901447      -0.07646728
Si       4.76350661      -2.00920187       3.52057524       0.04100859      -0.14570987      -0.00986615
Si      -3.35079305       1.47944913       5.07008417      -0.15129488      -0.00683803      -0.00857394
Si       2.42009349       5.76006213      -0.29524373       0.03905431       0.05534361      -0.13572862
Si       2.25496649       1.02652061       4.14683583       0.02090297       0.00981176      -0.09576521
Si       0.29957394       2.68149215       4.00683430       0.00305939      -0.09627649      -0.02063150
Si       2.46669901       3.14405036       2.71389188      -0.09272614      -0.00737142      -0.03243001
Si       1.66137243      -0.87105795       5.55047445       0.17841250      -0.05978459      -0.01102491
Si      -1.33105534       4.43842877       3.58543003      -0.11075106      -0.07552351       0.13250346
Si       4.63322421       3.20595650       1.60678038      -0.03865387       0.17489229      -0.05869693
18
Lattice="8.067796235708354 -0.6198089991172656 -0.9830342448550919 -3.0212906166407265 7.506350798230486 -0.9830342448550108 -3.021290616638799 -4.1229012091333015 6.349279034062999" Properties=species:S:1:pos:R:3:forces:R:3 unique_starting_index=454 config_type=initial n_minim_iter=4 energy=-2931.118274825082 stress="-0.0008684421124866225 0.00034662822138384374 0.0005497619466200288 0.00034662822138384374 -0.0006494392912347907 0.0007502138878525201 0.0005497619466200288 0.0007502138878525201 6.740634731957e-05" free_energy=-2931.118274825082 pbc="T T T"
Si      -2.79363217       1.40997064       2.76099665       0.02173040       0.17146162       0.02653555
Si       2.18600802       3.45654303      -0.83016840       0.15695156      -0.00725483       0.07673988
Si       2.63749709      -2.09651682       2.46246357      -0.05419654       0.00566798       0.16615066
Si      -0.95162094       3.47096010       0.30205942       0.14595107      -0.04527944      -0.13323295
Si       3.59639589       0.21299982       0.25486099      -0.08714126      -0.17433287       0.05583380
Si      -0.88023999      -1.27604752       3.26209546      -0.13998566       0.10883846      -0.09829124
Si      -1.23299989      -2.39673254       7.17063560       0.00692322       0.03251672      -0.02654313
Si      -1.91398920       7.28821017       1.37886476       0.02892087      -0.03101854       0.00335247
Si       7.52623439       1.08451008       0.92858179      -0.03828963      -0.00483540       0.01789773
Si       4.77516076      -2.04014679       3.51222751       0.01442404      -0.05603709       0.03354804
Si      -3.38381120       1.47114470       5.06810183      -0.05777920       0.03161833       0.01164149
Si       2.42212089       5.77292444      -0.32676424       0.04755459       0.03014936      -0.03610065
Si       2.25743239       1.01799238       4.13408291      -0.04428762      -0.01935549      -0.05143093
Si       0.29069903       2.67007887       4.00114032      -0.00511564      -0.02568810      -0.06553716
Si       2.45848926       3.14404288       2.70069914      -0.02295393      -0.05369618      -0.03963591
Si       1.67104790      -0.89014813       5.54267845       0.13306623      -0.03104418      -0.01018606
Si      -1.35217335       4.42989611       3.58520525      -0.06968590      -0.05985850       0.10166097
Si       4.63144928       3.21554258       1.58619437      -0.03608659       0.12814816      -0.03240256
18
Lattice="8.08679674602822 -0.6260725806871311 -0.9929684587619133 -3.032986806527803 7.522581971589893 -0.9929684587618389 -3.0329868065258783 -4.138862015803831 6.359642057029081" Properties=species:S:1:pos:R:3:forces:R:3 unique_starting_index=454 config_type=initial n_minim_iter=5 energy=-2931.1306149849447 stress="0.0008586301295354072 -0.000395121176327058 -0.0006266731300005722 -0.000395121176327058 0.0006089890093418103 -0.0008551681117193428 -0.0006266731300005722 -0.0008551681117193428 -0.00020814267610419542" free_energy=-2931.1306149849447 pbc="T T T"
Si      -2.81725238       1.42256327       2.76332925       0.15001881       0.19678798       0.02564643
Si       2.20513088       3.46672195      -0.84606292       0.14245708      -0.06408075       0.19361955
Si       2.64144282      -2.12004114       2.47483158      -0.10401677       0.12446707       0.18861959
Si      -0.94161096       3.47388914       0.29590834       0.10308469      -0.04928269      -0.20055116
Si       3.59617356       0.20295455       0.26161803      -0.07804588      -0.21693404      -0.01115656
Si      -0.88975171      -1.26855474       3.26208670      -0.18334786       0.05018568      -0.13092350
Si      -1.24383617      -2.42657212       7.17770147       0.01178468       0.15115151      -0.11475488
Si      -1.93917855       7.30291507       1.36447675       0.14058078      -0.12801683       0.00175358
Si       7.54784408       1.07997255       0.90470326      -0.16441790      -0.03958162       0.08691599
Si       4.78746606      -2.06904379       3.50812191      -0.00799042       0.02285586       0.03506350
Si      -3.41507271       1.46613439       5.06906510       0.02420119       0.03195472       0.01445283
Si       2.42676023       5.78729474      -0.35460817       0.02318031      -0.00105688       0.03573853
Si       2.25960861       1.01134539       4.12398620      -0.11176216      -0.04246660      -0.01763476
Si       0.28370524       2.66093710       3.99685348      -0.00682784       0.03554406      -0.11530472
Si       2.45187886       3.14423685       2.69034893       0.03594984      -0.10584954      -0.04592016
Si       1.68599387      -0.90666095       5.53787264       0.07442837      -0.00761215      -0.00035700
Si      -1.37242136       4.42156033       3.59150476      -0.02967871      -0.02992851       0.06181515
Si       4.62960002       3.23063239       1.56922295      -0.01959822       0.07186272      -0.00702242
18
Lattice="8.085070744138891 -0.6231072968352797 -0.9882654364175525 -3.02963933121955 7.521829376144322 -0.9882654364174823 -3.0296393312176324 -4.134293997778713 6.360990400604898" Properties=species:S:1:pos:R:3:forces:R:3 unique_starting_index=454 config_type=initial n_minim_iter=6 energy=-2931.16179228017 stress="0.0003826266397748637 -2.7452608620264413e-05 -4.354058926966017e-05 -2.7452608620264413e-05 0.00036528182685545765 -5.941618001259422e-05 -4.354058926966017e-05 -5.941618001259422e-05 0.0003085083855282959" free_energy=-2931.16179228017 pbc="T T T"
Si      -2.81352938       1.45279850       2.77041737      -0.01765847       0.11696128      -0.03725845
Si       2.23284024       3.46766097      -0.83158600       0.11684785      -0.04154815       0.00053551
Si       2.63399130      -2.11849075       2.50516872      -0.07481650      -0.04215351       0.08947363
Si      -0.91611434       3.46858202       0.28154491       0.08707832       0.16624646      -0.00827132
Si       3.58343257       0.18020268       0.27592088       0.13229381      -0.06484642       0.11654281
Si      -0.90760879      -1.24745727       3.25110613      -0.10168539       0.05919716       0.14644014
Si      -1.23831876      -2.41859642       7.17804186      -0.00739755       0.11469918      -0.06161767
Si      -1.93323533       7.29991850       1.37153848       0.11159991      -0.06745187      -0.00175183
Si       7.54319641       1.08429049       0.91204655      -0.09793617      -0.03869637       0.07693154
Si       4.79276546      -2.07415362       3.51751542      -0.00317073       0.01582484      -0.09322014
Si      -3.42154154       1.47309540       5.07628526       0.01604492      -0.08486503      -0.03861295
Si       2.43534653       5.79556473      -0.35516939      -0.08575638      -0.03041601      -0.02590720
Si       2.25736334       1.01528291       4.12649928      -0.10773562      -0.05897838      -0.02950582
Si       0.28813621       2.66361631       3.99707525      -0.02378559       0.02532169      -0.12144573
Si       2.45309888       3.14226763       2.69498515       0.03131048      -0.10309246      -0.06593638
Si       1.71277902      -0.90360223       5.54370518      -0.00606420      -0.02521582       0.04748623
Si      -1.37757323       4.41541546       3.61789638      -0.02221785       0.04861452       0.00839938
Si       4.62529247       3.25736151       1.57449721       0.05304914       0.01039887      -0.00228172
18
Lattice="8.083996398570305 -0.6215278247849855 -0.9857603499853724 -3.0278095975165273 7.521280718751735 -0.9857603499853065 -3.0278095975146155 -4.131797114077743 6.3615752550748095" Properties=species:S:1:pos:R:3:forces:R:3 unique_starting_index=454 config_type=initial n_minim_iter=7 energy=-2931.172075890411 stress="-2.6510253241187628e-05 5.8964905842345755e-06 9.351989431075526e-06 5.8964905842345755e-06 -2.278481077028807e-05 1.2761882889687676e-05 9.351989431075526e-06 1.2761882889687676e-05 -1.0590573439068469e-05" free_energy=-2931.172075890411 pbc="T T T"
Si      -2.81253544       1.47278940       2.77359397      -0.09317364       0.07128852      -0.04813676
Si       2.25160318       3.46752271      -0.82392782       0.09604405      -0.01439120      -0.08154117
Si       2.62820748      -2.11927553       2.52457610      -0.04265420      -0.11118691       0.04357314
Si      -0.89921622       3.46887005       0.27319593       0.06341353       0.24725668       0.08656135
Si       3.57861699       0.16568569       0.28693914       0.21666977       0.01993003       0.15908179
Si      -0.92000088      -1.23365073       3.24776687      -0.04626337       0.05188769       0.26041770
Si      -1.23555039      -2.41266188       7.17677616      -0.01655316       0.07333814      -0.03194429
Si      -1.92841036       7.29686781       1.37498779       0.07491799      -0.03154271      -0.00807954
Si       7.53883400       1.08581562       0.91685571      -0.05264521      -0.03399034       0.05240291
Si       4.79583951      -2.07763492       3.52048902      -0.00423836       0.00589833      -0.15765664
Si      -3.42578714       1.47496694       5.07926582       0.00690109      -0.14127883      -0.07000742
Si       2.43841004       5.79975630      -0.35702871      -0.13679541      -0.04765910      -0.06264180
Si       2.25392733       1.01614129       4.12671128      -0.09020307      -0.06099783      -0.02915750
Si       0.28998975       2.66510856       3.99444361      -0.03099258       0.01869122      -0.10675949
Si       2.45396347       3.13893736       2.69585106       0.02715896      -0.08601736      -0.06760839
Si       1.72847853      -0.90276417       5.54747852      -0.04428389      -0.02717160       0.07061653
Si      -1.38150328       4.41225784       3.63325865      -0.01256983       0.08544996      -0.01504518
Si       4.62346538       3.27324858       1.57688004       0.08526733      -0.01950469       0.00592476
18
Lattice="8.078991202680761 -0.6150235332412625 -0.97544436339094 -3.0200997021152522 7.518467303162072 -0.9754443633908875 -3.020099702113364 -4.121276068238218 6.363483783602068" Properties=species:S:1:pos:R:3:forces:R:3 unique_starting_index=454 config_type=initial n_minim_iter=8 energy=-2931.18829766187 stress="-0.000298792082650831 0.00012362991857734347 0.00019608047551697845 0.00012362991857734347 -0.00022068156535565197 0.0002675745320012 0.00019608047551697845 0.0002675745320012 3.499167302983709e-05" free_energy=-2931.18829766187 pbc="T T T"
Si      -2.81160290       1.52426794       2.78157637      -0.19273475      -0.02207381      -0.00547484
Si       2.30040968       3.46765711      -0.80569228       0.03700919       0.07715290      -0.17418858
Si       2.61363360      -2.12290151       2.57446681       0.06242092      -0.18240409      -0.02227755
Si      -0.85494187       3.48135942       0.26166812      -0.00995630       0.29389847       0.18647427
Si       3.57718943       0.13546258       0.32345788       0.28324638       0.13418540       0.15170319
Si      -0.94839014      -1.19618801       3.25406665       0.04263004       0.00302574       0.34557433
Si      -1.22530771      -2.38951224       7.17724748      -0.02601293      -0.03057060       0.04289653
Si      -1.90942141       7.29007655       1.39029591      -0.02131473       0.05336877      -0.01219849
Si       7.52663811       1.09270449       0.93794704       0.05731051      -0.00917541      -0.00909196
Si       4.80365826      -2.08009656       3.52529365      -0.03999996      -0.01324485      -0.21713171
Si      -3.43048969       1.47640785       5.08739520      -0.00058041      -0.17775755      -0.13161883
Si       2.44120058       5.80883745      -0.35717865      -0.16932608      -0.09543928      -0.10555389
Si       2.24536886       1.02094744       4.13330218      -0.03375879      -0.05655514      -0.03411250
Si       0.29715074       2.67394956       3.99122751      -0.04375902      -0.00955891      -0.05912341
Si       2.46023671       3.13194374       2.70302896       0.00406667      -0.03411855      -0.06573576
Si       1.76667128      -0.89539847       5.56633814      -0.09990659      -0.01303496       0.11337443
Si      -1.38598455       4.41261888       3.67625181       0.01766547       0.14505961      -0.04062804
Si       4.62515954       3.31383694       1.59165634       0.13300038      -0.06275776       0.03711281
18
Lattice="8.069432865675632 -0.609487084157329 -0.9666634017525139 -3.0119411463810764 7.511020690301506 -0.9666634017524679 -3.011941146379201 -4.110142773375438 6.360550001761317" Properties=species:S:1:pos:R:3:forces:R:3 unique_starting_index=454 config_type=initial n_minim_iter=9 energy=-2931.2131165600676 stress="-0.0007892763727864217 4.815362029482052e-05 7.637299942674662e-05 4.815362029482052e-05 -0.0007588524786685795 0.00010421979713732154 7.637299942674662e-05 0.00010421979713732154 -0.0006592681874723768" free_energy=-2931.2131165600676 pbc="T T T"
Si      -2.81341421       1.53278959       2.78181961      -0.02867845       0.03250474       0.10245896
Si       2.30908114       3.46751456      -0.80482966       0.03963378       0.10001744       0.02832887
Si       2.61088556      -2.12566918       2.58226083       0.08343283      -0.00371862       0.07349820
Si      -0.84590050       3.50503582       0.27654268      -0.01277238      -0.00370112      -0.08908675
Si       3.59704255       0.14209290       0.34408464       0.00031824      -0.07465295      -0.05039957
Si      -0.94804817      -1.18659820       3.28184234      -0.07128128      -0.03591262      -0.04174381
Si      -1.21793653      -2.36956110       7.17889848      -0.00347791      -0.07007868       0.04742996
Si      -1.89261740       7.28594543       1.40277258      -0.06577595       0.05332638      -0.00159353
Si       7.51763699       1.09759124       0.95666088       0.07066319       0.01867550      -0.04278618
Si       4.79998845      -2.06759140       3.51605381      -0.05614204       0.00040869      -0.02884353
Si      -3.41745992       1.46795530       5.08365346       0.01730143      -0.00300086      -0.06062756
Si       2.42921567       5.80120279      -0.34987831      -0.00807320      -0.06142716      -0.01206535
Si       2.24117526       1.02385440       4.14115557       0.01982114      -0.03403009      -0.03073706
Si       0.30118591       2.68238210       3.99179497      -0.03842017      -0.03146307      -0.00544581
Si       2.46706205       3.12970203       2.70903744      -0.01842829       0.01496507      -0.04395606
Si       1.76627429      -0.88476349       5.58383945      -0.02618912       0.03104483       0.07606806
Si      -1.37572397       4.42719264       3.68634548       0.03749181       0.07537098       0.01869707
Si       4.63596556       3.31683429       1.60879700       0.06057639      -0.00832848       0.06080410
18
Lattice="8.072772212156952 -0.6088373911060128 -0.965632970572907 -3.012327545778812 7.5144006357875535 -0.9656329705728656 -3.0123275457769423 -4.110670060136719 6.364043966354143" Properties=species:S:1:pos:R:3:forces:R:3 unique_starting_index=454 config_type=initial n_minim_iter=10 energy=-2931.215642112279 stress="3.6547905989414324e-06 -1.9171917497332832e-05 -3.0407184686123273e-05 -1.9171917497332832e-05 -8.458198503914245e-06 -4.149413110299976e-05 -3.0407184686123273e-05 -4.149413110299976e-05 -4.810675006255435e-05" free_energy=-2931.215642112279 pbc="T T T"
Si      -2.81774989       1.54428262       2.78613263      -0.00964555       0.02105489       0.08559751
Si       2.32134637       3.47169603      -0.80357693       0.02298245       0.07846629       0.03432386
Si       2.61117814      -2.13012363       2.59449040       0.06789859       0.01133407       0.05589811
Si      -0.83724161       3.51008195       0.27421356      -0.03125097      -0.00371603      -0.08349575
Si       3.59924597       0.13577668       0.35190224       0.00587034      -0.06201031      -0.06389236
Si      -0.95473475      -1.17962984       3.28539146      -0.06089833      -0.05201130      -0.03934705
Si      -1.21723716      -2.36993649       7.18348415       0.00432788      -0.05506452       0.03799414
Si      -1.89318602       7.28984438       1.40524912      -0.05381053       0.03965397       0.00513579
Si       7.52152613       1.09955327       0.95829899       0.05402149       0.02160433      -0.03330642
Si       4.80328064      -2.07127679       3.51671128      -0.05570313       0.00652802      -0.02151310
Si      -3.42196584       1.46767382       5.08576778       0.02300431       0.00263840      -0.05542659
Si       2.43030458       5.80499934      -0.35292025      -0.00441377      -0.05981083      -0.00338375
Si       2.24124029       1.02426153       4.14286927       0.01945905      -0.03805167      -0.02842634
Si       0.30155455       2.68384879       3.99270033      -0.04214589      -0.02870701      -0.00585431
Si       2.46834956       3.13017695       2.71014356      -0.01467795       0.01577010      -0.04658866
Si       1.77487610      -0.88424349       5.59092208      -0.03267558       0.03500248       0.08017609
Si      -1.37781925       4.42997994       3.69694104       0.04321956       0.08123012       0.01596276
Si       4.63925456       3.32689412       1.61231944       0.06443800      -0.01391100       0.06614605
18
Lattice="8.075537361371275 -0.6063738715884541 -0.9617257603644649 -3.010811402762094 7.51777943571413 -0.961725760364434 -3.0108114027602406 -4.108601107271871 6.368777043006781" Properties=species:S:1:pos:R:3:forces:R:3 unique_starting_index=454 config_type=initial n_minim_iter=11 energy=-2931.219622286543 stress="0.0010574015721903213 -8.523192745568709e-05 -0.00013518020581814244 -8.523192745568709e-05 0.0010035512833980033 -0.00018446906302921015 -0.00013518020581814244 -0.00018446906302921015 0.0008272870879981745" free_energy=-2931.219622286543 pbc="T T T"
Si      -2.82299479       1.56394485       2.79772803       0.03381448      -0.00810925      -0.01290295
Si       2.34167524       3.48176139      -0.79774673      -0.01791855      -0.02448936       0.02132750
Si       2.61465228      -2.13452652       2.61723046      -0.01795423       0.02978981      -0.01287936
Si      -0.82460898       3.52014430       0.26864888      -0.04163826       0.00716483      -0.03836425
Si       3.60503559       0.12425611       0.36310745       0.01937477      -0.01843082      -0.05041645
Si      -0.96746421      -1.17040314       3.29207195      -0.02341102      -0.05106216      -0.01007348
Si      -1.21369086      -2.36804094       7.19320337       0.02751023      -0.02511661       0.00570275
Si      -1.89244677       7.29691022       1.41300541      -0.03223691      -0.00290126       0.01930136
Si       7.52804108       1.10533042       0.96419920       0.00694426       0.03104401      -0.02020458
Si       4.80462628      -2.07262697       3.51691882      -0.00723611      -0.00219562       0.00544925
Si      -3.42365865       1.46748327       5.08664806       0.00008611       0.00817653      -0.00447361
Si       2.43063281       5.80651422      -0.35404906       0.00777081      -0.00513376       0.00036798
Si       2.24220697       1.02457235       4.14680754       0.02411869      -0.02961943      -0.02133157
Si       0.30155973       2.68696460       3.99531429      -0.03550894      -0.02531573       0.00350522
Si       2.47131909       3.13212881       2.71212175      -0.01344344       0.02104670      -0.03592169
Si       1.78640175      -0.87834618       5.60959104      -0.01415963       0.03921752       0.06285709
Si      -1.37566775       4.44132153       3.71650858       0.04166123       0.05744441       0.02557349
Si       4.64942124       3.34219290       1.62568861       0.04222653      -0.00150982       0.06248330
18
Lattice="8.069838326788016 -0.605920243427236 -0.9610062935326775 -3.008662118722516 7.512481761525671 -0.9610062935326467 -3.008662118720665 -4.105668160101299 6.364307053608169" Properties=species:S:1:pos:R:3:forces:R:3 unique_starting_index=454 config_type=initial n_minim_iter=12 energy=-2931.221857565101 stress="-6.946916810533214e-05 1.4177624167063107e-06 2.2486110525277767e-06 1.4177624167063107e-06 -6.857339506420057e-05 3.0684970121127317e-06 2.2486110525277767e-06 3.0684970121127317e-06 -6.564137993937948e-05" free_energy=-2931.221857565101 pbc="T T T"
Si      -2.81765524       1.55357749       2.79723635       0.03652247       0.00077940      -0.06294419
Si       2.33018099       3.48046911      -0.79618243      -0.01025851      -0.07190946       0.00450122
Si       2.61688246      -2.12822234       2.60766393      -0.06547917       0.01761637      -0.02643124
Si      -0.83450436       3.51652983       0.26838818       0.00045982       0.02048612      -0.01114936
Si       3.60456980       0.12855789       0.35349867       0.01939605      -0.01290946       0.00115747
Si      -0.96322194      -1.17944039       3.28869820      -0.01815253      -0.00525225       0.01367847
Si      -1.21199358      -2.36788603       7.19093929       0.02925752      -0.02206360      -0.01071464
Si      -1.89281034       7.29414951       1.41353183      -0.02985205      -0.01882954       0.01455720
Si       7.52551813       1.10631336       0.96336296      -0.00896257       0.02785138      -0.02452716
Si       4.79800402      -2.06623154       3.51523195       0.03172660      -0.01420284       0.00898419
Si      -3.41556545       1.46785287       5.08196139      -0.02310017      -0.00309082       0.02731011
Si       2.42854733       5.79891057      -0.34900559       0.00401123       0.03453921      -0.00894238
Si       2.24384284       1.02322457       4.14496068       0.01366652      -0.00969632      -0.01720004
Si       0.29978178       2.68480073       3.99555930      -0.01336272      -0.01987845       0.00170842
Si       2.46979130       3.13336173       2.71010948      -0.01492986       0.00961583      -0.01616382
Si       1.77627948      -0.87393759       5.60956175       0.01273438       0.03029887       0.03202961
Si      -1.36841479       4.44488352       3.70898503       0.02505553       0.01973145       0.03299958
Si       4.65063297       3.33196035       1.62965389       0.01126744       0.01691413       0.04114656
18