24
Lattice="7.762400000000002 9.934288587855268e-16 -2.5629965105318195e-15 4.888306286710582e-16 7.98321 -1.139337542249254e-15 -1.817869033233311 3.4747547869430258e-15 7.930681321778819" Properties=species:S:1:pos:R:3:forces:R:3 unique_starting_index=326 config_type=initial n_minim_iter=1 energy=-3794.479356584647 stress="-0.4796777746484645 -0.6225578189857058 -0.34464405285456157 0.01104726942067958 -0.00032893506743946534 0.24138670092148967" pbc="T T T"
Si      -1.35303072       5.03880417       6.95504256     -14.61683661      12.94538816      -0.80700322
Si       5.92696406       6.93601083       6.95504256      10.41853069     -11.17257662      -1.92715276
Si       7.29756169       2.94440583       0.97563876      14.61683661     -12.94538816       0.80700321
Si       0.01756691       1.04719917       0.97563876     -10.41853069      11.17257662       1.92715276
Si       2.98953321       2.42151915       0.90649987     -25.45634002      19.18789332     -24.33624059
Si       4.35729138       1.57008585       0.90649987      16.92399353     -22.91951836      -9.93994314
Si       2.95499776       5.56169085       7.02418145      25.45634002     -19.18789332      24.33624059
Si       1.58723959       6.41312415       7.02418145     -16.92399353      22.91951836       9.93994314
Si       6.61074439       6.18588367       1.64271137     -17.64520890      -5.38098977     -11.94006432
Si       0.39857174       5.78893133       1.64271137      25.56076356       9.88991509     -20.43568387
Si      -0.66621342       1.79732633       6.28796995      17.64520890       5.38098977      11.94006432
Si       5.54595923       2.19427867       6.28796995     -25.56076356      -9.88991509      20.43568387
Si       4.13666771       2.75038030       1.97230176       6.77319854      14.36843495      23.82160112
Si       2.72155114       1.24122470       1.97230176      -0.23998482     -11.49679991      11.61579017
Si       1.80786326       5.23282970       5.95837956      -6.77319854     -14.36843495     -23.82160112
Si       3.22297983       6.74198530       5.95837956       0.23998482      11.49679991     -11.61579017
Si      -0.38511594       3.71364959       7.08400099      12.72183539     -16.51510080       2.69247478
Si       4.89992963       0.27795541       7.08400099     -14.98269695      14.33062799       0.02277869
Si       6.32964691       4.26956041       0.84668033     -12.72183539      16.51510080      -2.69247478
Si       1.04460134       7.70525459       0.84668033      14.98269695     -14.33062798      -0.02277869
Si       5.67984270       3.27064370       5.11173968       2.44759951      17.80915877     -17.19147873
Si      -0.26086640       0.72096130       5.11173968       4.89983578     -14.87497231     -14.74647076
Si       0.26468827       4.71256630       2.81894164      -2.44759951     -17.80915877      17.19147873
Si       6.20539737       7.26224870       2.81894164      -4.89983578      14.87497231      14.74647076
24
Lattice="7.948125507269241 -0.09461664529683284 0.00015365335307712048 -0.09730811976967489 8.231817844671092 -0.004439444813658977 -1.8612069277722438 0.017747947949345037 8.06611821716855" Properties=species:S:1:pos:R:3:forces:R:3 unique_starting_index=326 config_type=initial n_minim_iter=2 energy=-3814.597978626545 stress="-0.3621746622193588 -0.4742789497113703 -0.27261960314513206 0.017120163678178445 -0.006106415833783181 0.1833508639093085" pbc="T T T"
Si      -1.44819698       5.20969653       7.07093778     -11.05568491      10.37647625      -0.49257761
Si       5.98544874       7.07473083       7.06991431       8.57005106      -9.24220574      -1.76417735
Si       7.43780744       2.94525262       0.99089465      11.05568491     -10.37647625       0.49257761
Si       0.00416172       1.08021832       0.99191811      -8.57005106       9.24220574       1.76417735
Si       3.02893351       2.46199561       0.91822108     -18.72681070      14.54118752     -20.47458663
Si       4.44418606       1.56298147       0.92018828      10.87660302     -16.39489541      -6.87268116
Si       2.96067695       5.69295354       7.14361135      18.72681070     -14.54118752      20.47458663
Si       1.54542440       6.59196767       7.14164415     -10.87660302      16.39489541       6.87268116
Si       6.69174702       6.29649517       1.66624913     -14.11100820      -4.12310846      -8.97569095
Si       0.34018390       5.96442443       1.66548207      20.67681087       8.02183722     -17.01967181
Si      -0.70213656       1.85845398       6.39558329      14.11100820       4.12310846       8.97569095
Si       5.64942656       2.19052471       6.39635036     -20.67681087      -8.02183722      17.01967181
Si       4.20283331       2.78598380       2.00696733       5.56646770      10.82093645      19.12273150
Si       2.77156688       1.24442222       2.00653855       0.50040279      -9.14108943       9.08482721
Si       1.78677715       5.36896535       6.05486509      -5.56646770     -10.82093645     -19.12273150
Si       3.21804358       6.91052693       6.05529387      -0.50040279       9.14108943      -9.08482721
Si      -0.43813339       3.82833383       7.20321279      10.11480045     -12.89500100       2.25507643
Si       5.01236743       0.22444215       7.20495468     -12.49526348      11.56068502      -0.29786031
Si       6.42774385       4.32661532       0.85861964     -10.11480045      12.89500100      -2.25507643
Si       0.97724303       7.93050700       0.85687774      12.49526348     -11.56068502       0.29786031
Si       5.77620418       3.30225549       5.19560318       1.48773792      15.32103080     -14.01759345
Si      -0.27527484       0.74221113       5.19715396       4.05809926     -12.33041865     -11.90082430
Si       0.21340628       4.85269366       2.86622924      -1.48773792     -15.32103080      14.01759345
Si       6.26488530       7.41273802       2.86467847      -4.05809926      12.33041865      11.90082430
24
Lattice="8.837066664420966 -0.5805687093591475 0.016920697410824238 -0.5970836244258266 9.4514678452799 -0.05023645112394751 -2.0522566699682763 0.08605693029411321 8.719040263820654" Properties=species:S:1:pos:R:3:forces:R:3 unique_starting_index=326 config_type=initial n_minim_iter=3 energy=-3865.0379894574744 stress="-0.09285531461237943 -0.09769650882112539 -0.07026920961765651 0.0013433909604986462 -0.013398176738987433 0.0334138128151967" pbc="T T T"
Si      -1.91134768       6.03205136       7.61478056      -3.08509889       3.36361299      -0.71561052
Si       6.25108760       7.71665070       7.61793543       2.83092990      -2.52134966      -0.49568995
Si       8.09907405       2.92490470       1.07094395       3.08509889      -3.36361299       0.71561052
Si      -0.06336123       1.24030536       1.06778908      -2.83092990       2.52134966       0.49568995
Si       3.20860552       2.65073100       0.97310629      -6.83935322       5.24829089     -11.57901601
Si       4.85488567       1.51301251       0.99150145       2.83734483      -5.45200523      -3.56854420
Si       2.97912085       6.30622506       7.71261822       6.83935322      -5.24829089      11.57901601
Si       1.33284070       7.44394356       7.69422306      -2.83734483       5.45200523       3.56854420
Si       7.05615861       6.81630462       1.77553293      -6.33964504      -0.44642900      -4.28618526
Si       0.03990220       6.81884029       1.75865562       9.56676835       4.63822081      -7.01596503
Si      -0.86843224       2.14065145       6.91019158       6.33964504       0.44642900       4.28618526
Si       6.14782417       2.13811578       6.92706889      -9.56676835      -4.63822081       7.01596503
Si       4.51165099       2.94290196       2.17527319       3.71923174       5.17613280      10.27506736
Si       3.01064447       1.24604336       2.17431864      -0.04136025      -4.85905454       3.83938113
Si       1.67607538       6.01405411       6.51045132      -3.71923174      -5.17613280     -10.27506736
Si       3.17708190       7.71091271       6.51140587       0.04136025       4.85905454      -3.83938113
Si      -0.69211044       4.36975009       7.76927038       2.76214699      -3.16725816       2.24023980
Si       5.56263728      -0.07186592       7.80041439      -2.78182960       2.46563263       0.34333384
Si       6.87983681       4.58720597       0.91645413      -2.76214699       3.16725816      -2.24023980
Si       0.62508909       9.02882198       0.88531012       2.78182960      -2.46563263      -0.34333384
Si       6.23302279       3.42746382       5.60374092      -0.79622528       7.57812103      -6.63202854
Si      -0.33592441       0.83076317       5.60852467       3.07186383      -5.64867384      -2.18755715
Si      -0.04529642       5.52949224       3.08198359       0.79622528      -7.57812103       6.63202854
Si       6.52365078       8.12619290       3.07719984      -3.07186383       5.64867384       2.18755715
24
Lattice="9.333604679910948 -0.7956639347744121 0.08839319092387117 -0.8182974699487826 10.009432703441558 -0.06333378876552646 -2.095518484981349 0.12341871690620893 9.061006905357939" Properties=species:S:1:pos:R:3:forces:R:3 unique_starting_index=326 config_type=initial n_minim_iter=4 energy=-3874.475123691924 stress="-0.04473690693685498 -0.03890761385481414 -0.03295336863727268 0.001543393940164306 -0.00745704470286192 0.014464749686530389" pbc="T T T"
Si      -2.07810039       6.41550738       7.90773657      -1.67974974       1.63978682       0.16621475
Si       6.50609331       8.02173906       7.97529487       1.80170063      -1.53903804       0.08115498
Si       8.49788912       2.92168011       1.17832973       1.67974974      -1.63978682      -0.16621475
Si      -0.08630459       1.31544842       1.11077143      -1.80170063       1.53903804      -0.08115498
Si       3.33138500       2.74422086       1.02522736      -5.11747141       3.93748966      -8.80719102
Si       5.10317633       1.49265780       1.06648341       2.71622103      -4.25082840      -2.62788758
Si       3.08840372       6.59296663       8.06083895       5.11747141      -3.93748966       8.80719102
Si       1.31661239       7.84452968       8.01958289      -2.71622103       4.25082840       2.62788758
Si       7.31528077       7.06344028       1.89585377      -3.17873467      -0.61048591      -3.29142775
Si      -0.06970935       7.21367456       1.81981020       5.03175904       3.01702557      -3.75313325
Si      -0.89549204       2.27374720       7.19021254       3.17873467       0.61048591       3.29142775
Si       6.48949808       2.12351292       7.26625610      -5.03175904      -3.01702557       3.75313325
Si       4.72166474       3.02301052       2.30885832       2.50441705       3.98551987       7.77853885
Si       3.16956498       1.24791956       2.29072590       0.18811631      -3.98252246       4.17036008
Si       1.69812399       6.31417697       6.77720798      -2.50441705      -3.98551987      -7.77853885
Si       3.25022374       8.08926793       6.79534040      -0.18811631       3.98252246      -4.17036008
Si      -0.75015624       4.62331319       8.08249541       0.71995360      -1.39971973       0.71567774
Si       5.92939583      -0.19567929       8.16565692      -1.19666031       1.66454824       0.75004342
Si       7.16994497       4.71387430       1.00357090      -0.71995360       1.39971973      -0.71567774
Si       0.49039289       9.53286678       0.92040939       1.19666031      -1.66454824      -0.75004342
Si       6.55025803       3.50014331       5.87472990      -0.37183799       3.81782368      -2.82305592
Si      -0.32092836       0.87220521       5.83376080       2.17689152      -2.95552813      -0.17422868
Si      -0.13046931       5.83704417       3.21133641       0.37183799      -3.81782368       2.82305592
Si       6.74071708       8.46498227       3.25230551      -2.17689152       2.95552813       0.17422869
24
Lattice="9.951862012471755 -1.0467813909321746 0.19459863241642295 -1.076558238161347 10.584798287208695 -0.094567359881447 -2.1317997057784597 0.15119961631524315 9.462873597957563" Properties=species:S:1:pos:R:3:forces:R:3 unique_starting_index=326 config_type=initial n_minim_iter=5 energy=-3879.5142672120037 stress="-0.008184516869072171 -0.00371255663580682 0.004077699619811664 0.006282881386699883 -0.012000391188646032 0.007000073682370095" pbc="T T T"
Si      -2.26002414       6.80167875       8.24368952      -1.08242544       0.26539549       0.57114222
Si       6.85527329       8.29662899       8.40394500       1.16116353      -0.11609706       0.33402059
Si       9.00352821       2.88753776       1.31921535       1.08242544      -0.26539549      -0.57114222
Si      -0.11176922       1.39258753       1.15895987      -1.16116353       0.11609706      -0.33402059
Si       3.48545954       2.83409551       1.08333727      -2.11533751       2.96008687      -5.75841172
Si       5.42200140       1.44681727       1.16296778      -0.16660062      -1.72997672      -1.25837802
Si       3.25804453       6.85512100       8.47956760       2.11533751      -2.96008687       5.75841172
Si       1.32150267       8.24239924       8.39993709       0.16660062       1.72997672       1.25837802
Si       7.65482189       7.28932859       2.04210530      -0.69958299      -0.65548163      -1.63307598
Si      -0.19039209       7.61759941       1.88207780       1.81744361       1.48193154      -1.94242594
Si      -0.91131782       2.39988792       7.52079957       0.69958299       0.65548163       1.63307598
Si       6.93389616       2.07161710       7.68082707      -1.81744361      -1.48193154       1.94242594
Si       4.99461202       3.08970878       2.47965544       1.30464533       1.90297874       5.01992327
Si       3.37644848       1.22951097       2.43942481       1.73319973      -2.60151200       3.21123167
Si       1.74889205       6.59950773       7.08324944      -1.30464533      -1.90297874      -5.01992327
Si       3.36705559       8.45970554       7.12348006      -1.73319973       2.60151200      -3.21123167
Si      -0.80024467       4.87025860       8.44597929      -1.04888646      -0.78467388       0.24432864
Si       6.40253052      -0.35560729       8.61413751       0.61680649       1.34959408       0.49490345
Si       7.54374874       4.81895791       1.11692558       1.04888646       0.78467388      -0.24432864
Si       0.34097355      10.04482380       0.94876736      -0.61680649      -1.34959408      -0.49490345
Si       6.96293294       3.54429742       6.20722234       1.01961381       1.80358607      -0.92225103
Si      -0.28727346       0.90222733       6.10192623      -0.02404703      -0.63164557       0.00400301
Si      -0.21942887       6.14491909       3.35568253      -1.01961381      -1.80358607       0.92225103
Si       7.03077753       8.78698919       3.46097864       0.02404703       0.63164557      -0.00400301
24
Lattice="10.119213431789332 -1.1896891076555702 0.40991868484736826 -1.2235311219631833 10.67190251635238 -0.22177637788494967 -1.9510035917965096 0.05829504173260258 9.351495382289949" Properties=species:S:1:pos:R:3:forces:R:3 unique_starting_index=326 config_type=initial n_minim_iter=6 energy=-3881.0477491031033 stress="-0.003506970558506354 -0.0008876233727657279 0.007564677751267382 0.0037937964423535846 -0.008239629648864771 0.005583209932302261" pbc="T T T"
Si      -2.19301760       6.77271369       8.07304631      -0.94474280      -0.05198203       0.48634255
Si       7.05243390       8.15082322       8.40601504       1.25440754       0.11759929       0.30599855
Si       9.13769632       2.76779476       1.46659138       0.94474280       0.05198203      -0.48634255
Si      -0.10775518       1.38968523       1.13362265      -1.25440754      -0.11759929      -0.30599854
Si       3.51871564       2.80409949       1.10420599      -0.79827109       2.43101378      -4.26822525
Si       5.51312344       1.36352242       1.24972542      -0.39295459      -1.80582886      -1.54335201
Si       3.42596307       6.73640896       8.43543170       0.79827109      -2.43101378       4.26822525
Si       1.43155527       8.17698603       8.28991227       0.39295459       1.80582886       1.54335201
Si       7.72619952       7.20806635       2.10958799      -0.32490405      -0.74124426      -1.63293679
Si      -0.23887363       7.65096427       1.78425893       1.24438656       1.22127794      -1.49847759
Si      -0.78152080       2.33244210       7.43004970       0.32490405       0.74124426       1.63293679
Si       7.18355235       1.88954418       7.75537876      -1.24438656      -1.22127794       1.49847758
Si       5.09233483       3.01635678       2.54814240       0.38448607       1.77666394       4.18539666
Si       3.47551062       1.15108252       2.48908629       1.75713124      -2.14242118       2.89374184
Si       1.85234389       6.52415167       6.99149529      -0.38448607      -1.77666394      -4.18539666
Si       3.46916809       8.38942593       7.05055140      -1.75713124       2.14242118      -2.89374184
Si      -0.68238480       4.80268535       8.32271551      -1.21573131      -0.69615549       0.51950081
Si       6.70008675      -0.55137378       8.69181216       0.66551477       1.08416264       0.62755036
Si       7.62706351       4.73782310       1.21692218       1.21573132       0.69615549      -0.51950081
Si       0.24459197      10.09188223       0.84782553      -0.66551477      -1.08416264      -0.62755036
Si       7.16760772       3.39983816       6.27069237       0.37481385       1.45504903      -0.29903215
Si      -0.16369254       0.83115441       6.04468709       0.04259089      -0.94510184       0.01332922
Si      -0.22292901       6.14067029       3.26894532      -0.37481385      -1.45504903       0.29903215
Si       7.10837126       8.70935404       3.49495060      -0.04259089       0.94510184      -0.01332922
24
Lattice="10.315253290857042 -1.4470800194395388 0.7441408928736075 -1.4882438011426762 10.747248696160051 -0.40248780477068163 -1.6554461567971843 -0.06094919155827139 9.009081145367915" Properties=species:S:1:pos:R:3:forces:R:3 unique_starting_index=326 config_type=initial n_minim_iter=7 energy=-3882.8873752380964 stress="-0.001697844724993968 0.00033187497144196876 0.008367716396067182 -0.0015336494540657089 -0.0011094192953964223 0.003878982735232648" pbc="T T T"
Si      -2.10204126       6.70952746       7.67002593      -0.77321032      -0.31353687       0.43291570
Si       7.28142312       7.86013989       8.27618399       1.24543378       0.32560266       0.14506304
Si       9.27360459       2.52969203       1.68070830       0.77321032       0.31353687      -0.43291570
Si      -0.10985978       1.37907960       1.07455024      -1.24543378      -0.32560266      -0.14506304
Si       3.53510886       2.73148860       1.12151963       0.45932416       1.66949163      -2.57182281
Si       5.61022547       1.20078146       1.36533072       0.00178539      -2.07028836      -2.41294319
Si       3.63645447       6.50773089       8.22921460      -0.45932416      -1.66949163       2.57182281
Si       1.56133787       8.03843803       7.98540352      -0.00178539       2.07028836       2.41294319
Si       7.75527294       7.00701148       2.19012199       0.07196608      -1.15248827      -1.82540526
Si      -0.34543009       7.66231069       1.60970052       0.72450167       1.23349439      -1.20993810
Si      -0.58370961       2.23220801       7.16061224      -0.07196608       1.15248827       1.82540526
Si       7.51699342       1.57690879       7.74103372      -0.72450167      -1.23349439       1.20993810
Si       5.19483400       2.86990034       2.61990267      -0.58246880       2.19376558       3.29832147
Si       3.60894659       1.00641469       2.53125741       1.01442877      -1.68065360       2.53245555
Si       1.97672933       6.36931915       6.73083157       0.58246880      -2.19376558      -3.29832147
Si       3.56261674       8.23280480       6.81947682      -1.01442877       1.68065360      -2.53245555
Si      -0.51627790       4.68638812       7.98901746      -1.19917064      -0.73991265       0.71331841
Si       7.12211280      -0.86447304       8.66309618       0.69597536       0.77534144       0.92257516
Si       7.68784124       4.55283137       1.36171677       1.19917064       0.73991265      -0.71331841
Si       0.04945053      10.10369252       0.68763806      -0.69597536      -0.77534144      -0.92257516
Si       7.42051026       3.13773359       6.26898122      -0.48898568       1.07116435       0.47430421
Si       0.02853980       0.72342996       5.84872928       0.21013825      -1.60355303       0.05702659
Si      -0.24894693       6.10148590       3.08175301       0.48898568      -1.07116435      -0.47430421
Si       7.14302353       8.51578953       3.50200495      -0.21013825       1.60355303      -0.05702659
24
Lattice="10.425873404248337 -1.6345721779386606 0.7798705091391733 -1.681069380171297 10.756865367011098 -0.3377035464124831 -1.6448479755948704 0.04731740253583927 8.657896821165407" Properties=species:S:1:pos:R:3:forces:R:3 unique_starting_index=326 config_type=initial n_minim_iter=8 energy=-3884.1998912993076 stress="-4.896668906091471e-05 -0.0008028006296989304 0.004498345660688408 0.002691937291475479 -0.004481718286785646 0.002293573640470862" pbc="T T T"
Si      -2.21693557       6.80423336       7.40586393      -0.64214806      -0.42724298       0.29229208
Si       7.24090074       7.78086443       8.06115289       0.87538650       0.46481475       0.02462362
Si       9.31689162       2.36537723       1.69419985       0.64214806       0.42724298      -0.29229208
Si      -0.14094470       1.38874617       1.03891089      -0.87538650      -0.46481475      -0.02462362
Si       3.51801240       2.68483158       1.10319611       0.51879259       1.65308411      -2.68856778
Si       5.64195525       1.08797563       1.34643766       0.10351940      -1.67639176      -2.31659278
Si       3.58194365       6.48477901       7.99686767      -0.51879259      -1.65308411       2.68856778
Si       1.45800080       8.08163496       7.75362613      -0.10351940       1.67639176       2.31659278
Si       7.70867605       6.85959091       2.19056449       0.28946452      -1.35371798      -1.60557569
Si      -0.47053433       7.68127137       1.58224418       0.65390707       1.81655415      -1.74559633
Si      -0.60872001       2.31001968       6.90949929      -0.28946452       1.35371798       1.60557569
Si       7.57049038       1.48833922       7.51781960      -0.65390707      -1.81655415       1.74559633
Si       5.18968186       2.80764126       2.59124480      -0.13383757       2.24251760       2.67899538
Si       3.64395537       0.93952589       2.48407655       0.31081428      -2.14113863       2.62642689
Si       1.91027419       6.36196933       6.50881899       0.13383757      -2.24251760      -2.67899538
Si       3.45600068       8.23008470       6.61598723      -0.31081428       2.14113863      -2.62642689
Si      -0.58576300       4.75378707       7.71404818      -1.31749338      -0.63953499       0.66214689
Si       7.22222512      -0.92036042       8.38745413       0.67852448       0.71318868       0.82134134
Si       7.68571905       4.41582352       1.38601560       1.31749338       0.63953500      -0.66214689
Si      -0.12226907      10.08997102       0.71260965      -0.67852448      -0.71318868      -0.82134134
Si       7.43874551       3.05586111       6.10369631      -0.49748589       1.58344335      -0.07968011
Si       0.03754334       0.75740341       5.63424026       0.45569615      -1.61731133       0.20436580
Si      -0.33878946       6.11374948       2.99636748       0.49748589      -1.58344334       0.07968011
Si       7.06241271       8.41220718       3.46582352      -0.45569615       1.61731133      -0.20436580
24
Lattice="10.451119406154593 -1.7159082473898217 0.9112723414777412 -1.7647191435180964 10.798308897836 -0.42978949496808255 -1.5165098157091794 -0.025114613881463188 8.521365554572787" Properties=species:S:1:pos:R:3:forces:R:3 unique_starting_index=326 config_type=initial n_minim_iter=9 energy=-3885.0236891806476 stress="0.002359241714108563 0.002000245745632952 0.006598238139270374 -0.0003459908587711978 -0.0027569948703486274 0.0025502374087505767" pbc="T T T"
Si      -2.15929722       6.76316720       7.23220205      -0.62106365      -0.45248840       0.22184653
Si       7.30982986       7.67526009       7.98999326       0.54927828       0.51465602       0.05794661
Si       9.32918766       2.29411883       1.77064635       0.62106365       0.45248840      -0.22184652
Si      -0.13993942       1.38202595       1.01285514      -0.54927829      -0.51465602      -0.05794661
Si       3.51312570       2.66740119       1.10271353       0.72346387       1.23311482      -2.06681922
Si       5.65672293       1.03088038       1.38308821       0.69734594      -1.75853135      -2.82944578
Si       3.65676474       6.38988485       7.90013487      -0.72346387      -1.23311482       2.06681922
Si       1.51316752       8.02640566       7.61976019      -0.69734594       1.75853135       2.82944578
Si       7.69544422       6.79623865       2.20403579       0.37594583      -1.51114783      -1.65519590
Si      -0.50401755       7.69870489       1.49414801       0.69381093       1.64580150      -1.58260401
Si      -0.52555377       2.26104739       6.79881261      -0.37594583       1.51114783       1.65519590
Si       7.67390800       1.35858115       7.50870039      -0.69381093      -1.64580150       1.58260401
Si       5.20607149       2.76731597       2.61117497      -0.30892938       2.39511470       2.43018442
Si       3.68281585       0.87912071       2.50142424      -0.52895838      -1.89643913       2.35541013
Si       1.96381895       6.28997007       6.39167343       0.30892938      -2.39511470      -2.43018442
Si       3.48707460       8.17816533       6.50142417       0.52895838       1.89643913      -2.35541013
Si      -0.51160510       4.69353795       7.57202107      -1.18145810      -0.74694154       0.62276677
Si       7.35845227      -1.04929790       8.37568515       0.63292401       0.68577145       0.86543634
Si       7.68149555       4.36374808       1.43082733       1.18145810       0.74694154      -0.62276677
Si      -0.18856182      10.10658394       0.62716326      -0.63292401      -0.68577145      -0.86543634
Si       7.50268475       2.96521234       6.09221892      -0.47100548       1.37067928      -0.06657661
Si       0.12182517       0.69416099       5.55607888       0.63395695      -1.67042385       0.12830328
Si      -0.33279431       6.09207369       2.91062948       0.47100548      -1.37067928       0.06657661
Si       7.04806528       8.36312505       3.44676952      -0.63395695       1.67042386      -0.12830328
24
Lattice="10.409669228270262 -1.7706883891269314 0.9633212003106977 -1.8210575665982165 10.758037568483493 -0.4262625023641587 -1.4536254104525153 -0.00878191950606999 8.380394111633873" Properties=species:S:1:pos:R:3:forces:R:3 unique_starting_index=326 config_type=initial n_minim_iter=10 energy=-3885.6241682515583 stress="0.0002685115385461019 0.0015205263137741992 0.0032218053743047507 0.0004512621759263107 -0.0034738686913396545 0.002933999655524809" pbc="T T T"
Si      -2.14292141       6.74925920       7.11251484      -0.65277415      -0.45499879       0.15950167
Si       7.27759841       7.60288063       7.92041981       0.39238497       0.51442613       0.00126648
Si       9.27790766       2.22930806       1.80493797       0.65277415       0.45499879      -0.15950167
Si      -0.14261216       1.37568663       0.99703300      -0.39238497      -0.51442613      -0.00126648
Si       3.48518375       2.63987051       1.10429470       0.52372486       1.20236041      -2.20217669
Si       5.63223897       0.98464209       1.39177996       1.15511422      -1.74971599      -3.12691715
Si       3.64980250       6.33869675       7.81315811      -0.52372486      -1.20236041       2.20217669
Si       1.50274729       7.99392517       7.52567285      -1.15511422       1.74971599       3.12691715
Si       7.63026477       6.71240401       2.22085236       0.39942872      -1.66622201      -1.67360728
Si      -0.53730237       7.67410546       1.46893344       0.77572625       1.75007257      -1.70983858
Si      -0.49527852       2.26616325       6.69660045      -0.39942872       1.66622201       1.67360728
Si       7.67228862       1.30446180       7.44851937      -0.77572625      -1.75007257       1.70983858
Si       5.17475829       2.73546077       2.61280796      -0.13169653       2.68897079       2.39486605
Si       3.67565083       0.84570376       2.49476407      -1.13809279      -2.28579376       2.51528024
Si       1.96022796       6.24310649       6.30464485       0.13169653      -2.68897079      -2.39486606
Si       3.45933542       8.13286350       6.42268874       1.13809279       2.28579376      -2.51528024
Si      -0.49181710       4.67891646       7.45703402      -1.08611032      -0.70410866       0.58009954
Si       7.38028085      -1.08037806       8.29621321       0.56362139       0.63256845       0.77920064
Si       7.62680335       4.29965080       1.46041879       1.08611032       0.70410866      -0.58009954
Si      -0.24529459      10.05894532       0.62123960      -0.56362139      -0.63256845      -0.77920064
Si       7.47875122       2.91777337       6.04800162      -0.38033926       1.54450444      -0.33689809
Si       0.15814158       0.68594161       5.47339194       0.85648754      -1.68925215      -0.20497371
Si      -0.34376496       6.06079389       2.86945119       0.38033926      -1.54450444       0.33689809
Si       6.97684467       8.29262565       3.44406087      -0.85648754       1.68925215       0.20497371
24