22
Lattice="6.7254949088238725 1.6645020983070584e-13 2.9875465941550063e-13 3.3627474544116853 10.105912664740572 1.4776708945059644e-13 3.3627474544113527 8.558485898385661e-14 13.15510368253027" Properties=species:S:1:pos:R:3:forces:R:3 unique_starting_index=358 config_type=initial n_minim_iter=1 energy=-3573.153187340297 stress="0.0048188575755335585 -3.5014312624775227e-13 -3.0195923505184465e-13 -3.5014312624775227e-13 0.007368072280230312 -5.39174099106747e-13 -3.0195923505184465e-13 -5.39174099106747e-13 -0.0036932185761653184" free_energy=-3573.153187340297 pbc="T T T"
Si       5.47106712       3.24916147      11.92310955       0.31499792      -0.26223207      -0.07099281
Si       5.47106712       6.85675117       1.23199145       0.31499791       0.26223207       0.07099281
Si       4.61717592       3.24916147       1.23199145      -0.31499791      -0.26223206       0.07099281
Si      11.34267083       6.85675117      11.92310955      -0.31499791       0.26223207      -0.07099281
Si       7.97992338       6.85675117       1.23199145      -0.31499791       0.26223207       0.07099281
Si       7.97992338       3.24916147      11.92310955      -0.31499792      -0.26223207      -0.07099281
Si       8.83381457       6.85675117      11.92310955       0.31499791       0.26223207      -0.07099281
Si       2.10831967       3.24916147       1.23199145       0.31499791      -0.26223207       0.07099281
Si       5.49380834       1.17606361      10.62397898       0.16434573      -0.10351433      -0.07559832
Si       5.49380834       8.92984903       2.53112201       0.16434573       0.10351433       0.07559832
Si       4.59443471       1.17606361       2.53112201      -0.16434573      -0.10351433       0.07559832
Si      11.31992961       8.92984903      10.62397898      -0.16434573       0.10351433      -0.07559832
Si       7.95718216       8.92984903       2.53112201      -0.16434573       0.10351433       0.07559832
Si       7.95718216       1.17606361      10.62397898      -0.16434573      -0.10351433      -0.07559832
Si       8.85655579       8.92984903      10.62397898       0.16434573       0.10351433      -0.07559832
Si       2.13106088       1.17606361       2.53112201       0.16434573      -0.10351433       0.07559832
Si       6.72549525       4.57231301       1.17552076      -0.00000000      -0.15965008       0.49755514
Si       6.72549525       5.53359963      11.97958023       0.00000000       0.15965008      -0.49755514
Si      10.08824270       4.57231301      11.97958023      -0.00000000      -0.15965008      -0.49755514
Si       3.36274779       5.53359963       1.17552076       0.00000000       0.15965008       0.49755514
Si       6.72549525      10.10591265       4.47582139      -0.00000000      -0.00000000      -0.14163557
Si       6.72549525      -0.00000001       8.67927961      -0.00000000       0.00000000       0.14163557
22
Lattice="6.688760659766548 1.6560248026789025e-13 2.969563815704991e-13 3.344380329883026 10.021636682186369 1.467151932939148e-13 3.344380329882687 8.49376855682551e-14 13.210439034148413" Properties=species:S:1:pos:R:3:forces:R:3 unique_starting_index=358 config_type=initial n_minim_iter=2 energy=-3573.202530890429 stress="-0.0022115375389862094 1.9052602510673255e-13 1.1310108944393657e-12 1.9052602510673255e-13 -0.0011098579191529952 -1.0110086470372814e-12 1.1310108944393657e-12 -1.0110086470372814e-12 -0.004786935487455779" free_energy=-3573.202530890429 pbc="T T T"
Si       5.44158270       3.22173526      11.97317204       0.33540382      -0.31300382      -0.01463500
Si       5.44158270       6.79990140       1.23726429       0.33540382       0.31300382       0.01463500
Si       4.59155896       3.22173526       1.23726429      -0.33540382      -0.31300382       0.01463500
Si      11.28031962       6.79990140      11.97317204      -0.33540382       0.31300382      -0.01463500
Si       7.93593929       6.79990140       1.23726429      -0.33540382       0.31300382       0.01463500
Si       7.93593929       3.22173526      11.97317204      -0.33540382      -0.31300382      -0.01463500
Si       8.78596303       6.79990140      11.97317204       0.33540382       0.31300382      -0.01463500
Si       2.09720237       3.22173526       1.23726429       0.33540382      -0.31300382       0.01463500
Si       5.46400925       1.16612561      10.66857096       0.11301891       0.05629485      -0.14008373
Si       5.46400925       8.85551105       2.54186537       0.11301891      -0.05629485       0.14008373
Si       4.56913241       1.16612561       2.54186537      -0.11301891       0.05629485       0.14008373
Si      11.25789307       8.85551105      10.66857096      -0.11301891      -0.05629485      -0.14008373
Si       7.91351274       8.85551105       2.54186537      -0.11301891      -0.05629485       0.14008373
Si       7.91351274       1.16612561      10.66857096      -0.11301891       0.05629485      -0.14008373
Si       8.80838958       8.85551105      10.66857096       0.11301891      -0.05629485      -0.14008373
Si       2.11962892       1.16612561       2.54186537       0.11301891       0.05629485       0.14008373
Si       6.68876100       4.53398199       1.18110057      -0.00000000      -0.21742512       0.37301257
Si       6.68876100       5.48765466      12.02933576       0.00000000       0.21742512      -0.37301257
Si      10.03314133       4.53398199      12.02933576      -0.00000000      -0.21742512      -0.37301257
Si       3.34438067       5.48765466       1.18110057      -0.00000000       0.21742512       0.37301257
Si       6.68876100      10.02163667       4.49446759      -0.00000000      -0.00000000      -0.05748817
Si       6.68876100      -0.00000001       8.71596874      -0.00000000      -0.00000000       0.05748817
22
Lattice="6.697302704999685 1.6594620250754367e-13 2.972569040949405e-13 3.3486513524995956 9.995719245726551 1.4672881421916858e-13 3.3486513524992483 8.494224579815643e-14 13.369639560506943" Properties=species:S:1:pos:R:3:forces:R:3 unique_starting_index=358 config_type=initial n_minim_iter=3 energy=-3573.2320711237085 stress="-0.0006454202002165357 -1.068995086948265e-12 -1.0886519234965942e-13 -1.068995086948265e-12 0.0007668529702699791 8.661460410167541e-13 -1.0886519234965942e-13 8.661460410167541e-13 0.0008653613062156042" free_energy=-3573.2320711237085 pbc="T T T"
Si       5.44951079       3.21252103      12.11737575       0.30316944      -0.35177558       0.13061776
Si       5.44951079       6.78319819       1.25226108       0.30316944       0.35177558      -0.13061776
Si       4.59644394       3.21252103       1.25226108      -0.30316944      -0.35177558      -0.13061776
Si      11.29374665       6.78319819      12.11737575      -0.30316944       0.35177558       0.13061776
Si       7.94509529       6.78319819       1.25226108      -0.30316944       0.35177558      -0.13061776
Si       7.94509529       3.21252103      12.11737575      -0.30316945      -0.35177558       0.13061776
Si       8.79816215       6.78319819      12.11737575       0.30316944       0.35177558       0.13061776
Si       2.10085944       3.21252103       1.25226108       0.30316944      -0.35177558      -0.13061776
Si       5.47135931       1.16315976      10.79676034       0.15837347       0.12529567      -0.18333717
Si       5.47135931       8.83255946       2.57287649       0.15837347      -0.12529567       0.18333717
Si       4.57459542       1.16315976       2.57287649      -0.15837347       0.12529567       0.18333717
Si      11.27189812       8.83255946      10.79676034      -0.15837347      -0.12529567      -0.18333717
Si       7.92324677       8.83255946       2.57287649      -0.15837347      -0.12529567       0.18333717
Si       7.92324677       1.16315976      10.79676034      -0.15837347       0.12529567      -0.18333717
Si       8.82001067       8.83255946      10.79676034       0.15837347      -0.12529567      -0.18333717
Si       2.12270796       1.16315976       2.57287649       0.15837347       0.12529567       0.18333717
Si       6.69730304       4.52165978       1.19656258       0.00000000      -0.21896458       0.13847463
Si       6.69730304       5.47405944      12.17307425      -0.00000000       0.21896458      -0.13847463
Si      10.04595440       4.52165978      12.17307425       0.00000000      -0.21896458      -0.13847463
Si       3.34865169       5.47405944       1.19656258      -0.00000000       0.21896458       0.13847463
Si       6.69730304       9.99571923       4.54839344       0.00000000      -0.00000000      -0.42898472
Si       6.69730304      -0.00000001       8.82124339       0.00000000      -0.00000000       0.42898472
22
Lattice="6.773942585560662 1.6782539783506346e-13 3.0064091909385934e-13 3.386971292780087 9.889811810292036 1.4864494637217422e-13 3.386971292779737 8.616168361230981e-14 13.396670305722234" Properties=species:S:1:pos:R:3:forces:R:3 unique_starting_index=358 config_type=initial n_minim_iter=4 energy=-3573.259480846057 stress="0.0030553396405265535 7.673970980354749e-13 -9.15070688296673e-13 7.673970980354749e-13 -0.0028423362241282294 1.1267800467378658e-12 -9.15070688296673e-13 1.1267800467378658e-12 -0.0003245443531895278" free_energy=-3573.259480846057 pbc="T T T"
Si       5.51732518       3.17262388      12.14374402       0.23877681      -0.21607881       0.16775029
Si       5.51732518       6.71718790       1.25292355       0.23877681       0.21607881      -0.16775029
Si       4.64358938       3.17262388       1.25292355      -0.23877681      -0.21607881      -0.16775029
Si      11.41753197       6.71718790      12.14374402      -0.23877681       0.21607881       0.16775029
Si       8.03056068       6.71718790       1.25292355      -0.23877681       0.21607881      -0.16775029
Si       8.03056068       3.17262388      12.14374402      -0.23877681      -0.21607881       0.16775029
Si       8.90429647       6.71718790      12.14374402       0.23877681       0.21607881       0.16775029
Si       2.13035389       3.17262388       1.25292355       0.23877681      -0.21607881      -0.16775029
Si       5.53665054       1.15267791      10.81542853       0.19461471       0.17968431      -0.24935933
Si       5.53665054       8.73713388       2.58123904       0.19461471      -0.17968431       0.24935933
Si       4.62426402       1.15267791       2.58123904      -0.19461471       0.17968431       0.24935933
Si      11.39820661       8.73713388      10.81542853      -0.19461471      -0.17968431      -0.24935933
Si       8.01123531       8.73713388       2.58123904      -0.19461471      -0.17968431       0.24935933
Si       8.01123531       1.15267791      10.81542853      -0.19461471       0.17968431      -0.24935933
Si       8.92362183       8.73713388      10.81542853       0.19461471      -0.17968431      -0.24935933
Si       2.14967925       1.15267791       2.58123904       0.19461471       0.17968431       0.24935933
Si       6.77394293       4.47004673       1.20234093      -0.00000000      -0.29579156       0.06615367
Si       6.77394293       5.41976506      12.19432664       0.00000000       0.29579156      -0.06615367
Si      10.16091422       4.47004673      12.19432664       0.00000000      -0.29579156      -0.06615367
Si       3.38697163       5.41976506       1.20234093       0.00000000       0.29579156       0.06615367
Si       6.77394293       9.88981180       4.55095977       0.00000000      -0.00000000      -0.38395265
Si       6.77394293      -0.00000001       8.84570780      -0.00000000       0.00000000       0.38395265
22
Lattice="6.738587341954507 1.670916556677998e-13 2.990440834875011e-13 3.3692936709770094 9.894659854474261 1.4780517535102495e-13 3.3692936709766554 8.575682589168046e-14 13.49267823286939" Properties=species:S:1:pos:R:3:forces:R:3 unique_starting_index=358 config_type=initial n_minim_iter=5 energy=-3573.3773474868426 stress="0.0006227149528256367 1.5609177412140635e-12 -1.5533490897000253e-14 1.5609177412140635e-12 -0.0008889877366368878 8.817446884112369e-13 -1.5533490897000253e-14 8.817446884112369e-13 -0.00012641320312687204" free_energy=-3573.3773474868426 pbc="T T T"
Si       5.50580052       3.15614903      12.23791810       0.06969470      -0.15173377       0.16355496
Si       5.50580052       6.73851079       1.25475738       0.06969470       0.15173377      -0.16355496
Si       4.60208117       3.15614903       1.25475738      -0.06969470      -0.15173377      -0.16355496
Si      11.34066851       6.73851079      12.23791810      -0.06969471       0.15173377       0.16355496
Si       7.97137484       6.73851079       1.25475738      -0.06969470       0.15173377      -0.16355496
Si       7.97137484       3.15614903      12.23791810      -0.06969470      -0.15173377       0.16355496
Si       8.87509419       6.73851079      12.23791810       0.06969471       0.15173377       0.16355496
Si       2.13650685       3.15614903       1.25475738       0.06969470      -0.15173377      -0.16355496
Si       5.51722444       1.16019630      10.88134780      -0.09868089       0.11489142      -0.14219686
Si       5.51722444       8.73446353       2.61132767      -0.09868089      -0.11489142       0.14219686
Si       4.59065725       1.16019630       2.61132767       0.09868089       0.11489142       0.14219686
Si      11.32924459       8.73446353      10.88134780       0.09868089      -0.11489142      -0.14219686
Si       7.95995092       8.73446353       2.61132767       0.09868089      -0.11489142       0.14219686
Si       7.95995092       1.16019630      10.88134780       0.09868089       0.11489142      -0.14219686
Si       8.88651811       8.73446353      10.88134780      -0.09868089      -0.11489142      -0.14219686
Si       2.14793077       1.16019630       2.61132767      -0.09868089       0.11489142       0.14219686
Si       6.73858768       4.45899496       1.22070835      -0.00000000      -0.22304294      -0.25459829
Si       6.73858768       5.43566486      12.27196713       0.00000000       0.22304294       0.25459829
Si      10.10788135       4.45899496      12.27196713      -0.00000000      -0.22304294       0.25459829
Si       3.36929401       5.43566486       1.22070835       0.00000000       0.22304294      -0.25459829
Si       6.73858768       9.89465984       4.56088877       0.00000000      -0.00000000       0.00307860
Si       6.73858768      -0.00000001       8.93178671       0.00000000       0.00000000      -0.00307860
22
Lattice="6.723400477957564 1.669410995986274e-13 2.9822119462017653e-13 3.3617002389785386 9.877658318361833 1.474700912071295e-13 3.3617002389781807 8.579091091708048e-14 13.580845799081429" Properties=species:S:1:pos:R:3:forces:R:3 unique_starting_index=358 config_type=initial n_minim_iter=6 energy=-3573.4174453391206 stress="-0.00021153099249564006 -6.646025834937028e-13 -5.889966626071663e-13 -6.646025834937028e-13 0.0004029707390305598 -3.084413057974737e-12 -5.889966626071663e-13 -3.084413057974737e-12 8.21724191191937e-05" free_energy=-3573.4174453391206 pbc="T T T"
Si       5.50511487       3.13669412      12.32534231      -0.07191637      -0.09892218       0.15627874
Si       5.50511487       6.74096417       1.25550071      -0.07191637       0.09892218      -0.15627874
Si       4.57998653       3.13669412       1.25550071       0.07191637      -0.09892218      -0.15627874
Si      11.30338701       6.74096417      12.32534231       0.07191637       0.09892218       0.15627874
Si       7.94168677       6.74096417       1.25550071       0.07191637       0.09892218      -0.15627874
Si       7.94168677       3.13669412      12.32534231       0.07191637      -0.09892218       0.15627874
Si       8.86681510       6.74096417      12.32534231      -0.07191637       0.09892218       0.15627874
Si       2.14341463       3.13669412       1.25550071      -0.07191637      -0.09892218      -0.15627874
Si       5.50789537       1.16412393      10.94294393      -0.22178057       0.06967441      -0.09624952
Si       5.50789537       8.71353436       2.63789909      -0.22178057      -0.06967442       0.09624952
Si       4.57720603       1.16412393       2.63789909       0.22178057       0.06967442       0.09624951
Si      11.30060651       8.71353436      10.94294393       0.22178057      -0.06967441      -0.09624951
Si       7.93890627       8.71353436       2.63789909       0.22178057      -0.06967441       0.09624952
Si       7.93890627       1.16412393      10.94294393       0.22178057       0.06967441      -0.09624952
Si       8.86959561       8.71353436      10.94294393      -0.22178057      -0.06967441      -0.09624952
Si       2.14619513       1.16412393       2.63789909      -0.22178057       0.06967441       0.09624952
Si       6.72340082       4.43952260       1.22925429       0.00000000      -0.18477972      -0.40714127
Si       6.72340082       5.43813569      12.35158873      -0.00000000       0.18477972       0.40714127
Si      10.08510106       4.43952260      12.35158873       0.00000000      -0.18477972       0.40714127
Si       3.36170058       5.43813569       1.22925429       0.00000000       0.18477972      -0.40714127
Si       6.72340082       9.87765830       4.57780226       0.00000000       0.00000000       0.16015352
Si       6.72340082      -0.00000001       9.00304076       0.00000000       0.00000000      -0.16015352
22
Lattice="6.691041377274791 1.6616001420923661e-13 2.96800378906108e-13 3.3455206886371545 9.76402892762161 1.4625800149090834e-13 3.345520688636779 8.478609663815825e-14 13.910627709178268" Properties=species:S:1:pos:R:3:forces:R:3 unique_starting_index=358 config_type=initial n_minim_iter=7 energy=-3573.4936411523518 stress="-0.0013384873996801106 -1.4638372313928443e-12 -2.8177326374762614e-13 -1.4638372313928443e-12 0.003546469580460713 -1.2842253212182754e-12 -2.8177326374762614e-13 -1.2842253212182754e-12 0.001068141951633761" free_energy=-3573.4936411523518 pbc="T T T"
Si       5.50677749       3.05705222      12.65535903      -0.49933737      -0.00215923       0.09584738
Si       5.50677749       6.70697668       1.25526583      -0.49933737       0.00215923      -0.09584738
Si       4.52978525       3.05705222       1.25526583       0.49933737      -0.00215923      -0.09584738
Si      11.22082662       6.70697668      12.65535903       0.49933737       0.00215923       0.09584738
Si       7.87530593       6.70697668       1.25526583       0.49933737       0.00215923      -0.09584738
Si       7.87530593       3.05705222      12.65535903       0.49933737      -0.00215923       0.09584738
Si       8.85229818       6.70697668      12.65535903      -0.49933737       0.00215923       0.09584738
Si       2.16125681       3.05705222       1.25526583      -0.49933737      -0.00215923      -0.09584738
Si       5.47844587       1.17083061      11.17515235      -0.26192920       0.00182786      -0.02154482
Si       5.47844587       8.59319830       2.73547252      -0.26192920      -0.00182786       0.02154482
Si       4.55811687       1.17083061       2.73547252       0.26192919       0.00182786       0.02154482
Si      11.24915825       8.59319830      11.17515235       0.26192919      -0.00182786      -0.02154482
Si       7.90363756       8.59319830       2.73547252       0.26192920      -0.00182786       0.02154482
Si       7.90363756       1.17083061      11.17515235       0.26192920       0.00182786      -0.02154482
Si       8.82396656       8.59319830      11.17515235      -0.26192919      -0.00182786      -0.02154482
Si       2.13292518       1.17083061       2.73547252      -0.26192919       0.00182786       0.02154482
Si       6.69104171       4.34576770       1.23664866       0.00000000      -0.08703847      -0.61413999
Si       6.69104171       5.41826120      12.67397621      -0.00000000       0.08703847       0.61413999
Si      10.03656240       4.34576770      12.67397621       0.00000000      -0.08703847       0.61413999
Si       3.34552103       5.41826120       1.23664866      -0.00000000       0.08703847      -0.61413999
Si       6.69104171       9.76402891       4.66148611      -0.00000000       0.00000000       0.27439796
Si       6.69104171      -0.00000001       9.24913876      -0.00000000      -0.00000000      -0.27439796
22
Lattice="6.703780535423283 1.6660445369438406e-13 2.9745200656525023e-13 3.3518902677114033 9.580535422774409 1.4662418767902314e-13 3.351890267711013 8.508077018270172e-14 14.166912773877788" Properties=species:S:1:pos:R:3:forces:R:3 unique_starting_index=358 config_type=initial n_minim_iter=8 energy=-3573.6823323045896 stress="0.0009983043129542044 4.4938233406338316e-13 -3.3290374038319706e-13 4.4938233406338316e-13 0.0011723603350497396 -2.9609556005850395e-12 -3.3290374038319706e-13 -2.9609556005850395e-12 -8.709437298662663e-05" free_energy=-3573.6823323045896 pbc="T T T"
Si       5.51295666       2.97470654      12.91654590      -0.33534403       0.00971752       0.04290432
Si       5.51295666       6.60582886       1.25036398      -0.33534403      -0.00971752      -0.04290432
Si       4.54271482       2.97470654       1.25036398       0.33534403       0.00971752      -0.04290432
Si      11.24649536       6.60582886      12.91654590       0.33534403      -0.00971752       0.04290432
Si       7.89460509       6.60582886       1.25036398       0.33534403      -0.00971752      -0.04290432
Si       7.89460509       2.97470654      12.91654590       0.33534403       0.00971752       0.04290432
Si       8.86484692       6.60582886      12.91654590      -0.33534403      -0.00971752       0.04290432
Si       2.16106639       2.97470654       1.25036398      -0.33534403       0.00971752      -0.04290432
Si       5.47177283       1.16406922      11.35545296       0.14668518       0.08576521      -0.10647907
Si       5.47177283       8.41646618       2.81145692       0.14668518      -0.08576521       0.10647907
Si       4.58389864       1.16406922       2.81145692      -0.14668518       0.08576521       0.10647907
Si      11.28767918       8.41646618      11.35545296      -0.14668518      -0.08576521      -0.10647907
Si       7.93578891       8.41646618       2.81145692      -0.14668518      -0.08576521       0.10647907
Si       7.93578891       1.16406922      11.35545296      -0.14668518       0.08576521      -0.10647907
Si       8.82366310       8.41646618      11.35545296       0.14668518      -0.08576521      -0.10647907
Si       2.11988257       1.16406922       2.81145692       0.14668518       0.08576521       0.10647907
Si       6.70378087       4.23006874       1.20578612      -0.00000000      -0.06635600      -0.22481557
Si       6.70378087       5.35046666      12.96112376      -0.00000000       0.06635600       0.22481557
Si      10.05567114       4.23006874      12.96112376      -0.00000000      -0.06635600       0.22481557
Si       3.35189061       5.35046666       1.20578612      -0.00000000       0.06635600      -0.22481556
Si       6.70378087       9.58053541       4.75047999      -0.00000000       0.00000000      -0.08442916
Si       6.70378087      -0.00000001       9.41642989       0.00000000       0.00000000       0.08442916
22
Lattice="6.686116073628398 1.5558978440677337e-13 2.942449901381344e-13 3.3430580368139493 9.362613184974805 1.5149994885161328e-13 3.3430580368135465 8.797896614189476e-14 14.595970772339307" Properties=species:S:1:pos:R:3:forces:R:3 unique_starting_index=358 config_type=initial n_minim_iter=9 energy=-3573.749473936943 stress="0.0010489757991605643 3.834583382404255e-13 3.4645985459948603e-13 3.834583382404255e-13 0.001854768455336491 2.2440265646525858e-12 3.4645985459948603e-13 2.2440265646525858e-12 0.0013752475840579403" free_energy=-3573.749473936943 pbc="T T T"
Si       5.49970831       2.86859759      13.34701339      -0.33563868      -0.07511745      -0.06443527
Si       5.49970831       6.49401557       1.24895439      -0.33563868       0.07511745       0.06443527
Si       4.52946648       2.86859759       1.24895439       0.33563868      -0.07511745       0.06443527
Si      11.21558255       6.49401557      13.34701339       0.33563868       0.07511745      -0.06443527
Si       7.87252451       6.49401557       1.24895439       0.33563868       0.07511745       0.06443527
Si       7.87252451       2.86859759      13.34701339       0.33563868      -0.07511745      -0.06443527
Si       8.84276635       6.49401557      13.34701339      -0.33563868       0.07511745      -0.06443527
Si       2.15665027       2.86859759       1.24895439      -0.33563868      -0.07511745       0.06443527
Si       5.44574286       1.16065136      11.65890975       0.39107246       0.25237562      -0.03118563
Si       5.44574286       8.20196180       2.93705804       0.39107246      -0.25237562       0.03118563
Si       4.58343192       1.16065136       2.93705804      -0.39107246       0.25237562       0.03118563
Si      11.26954800       8.20196180      11.65890975      -0.39107246      -0.25237562      -0.03118563
Si       7.92648996       8.20196180       2.93705804      -0.39107246      -0.25237562       0.03118563
Si       7.92648996       1.16065136      11.65890975      -0.39107246       0.25237562      -0.03118563
Si       8.78880090       8.20196180      11.65890975       0.39107246      -0.25237562      -0.03118563
Si       2.10268482       1.16065136       2.93705804       0.39107246       0.25237562       0.03118563
Si       6.68611641       4.08701724       1.18015482      -0.00000000       0.10046531       0.14418621
Si       6.68611641       5.27559592      13.41581297       0.00000000      -0.10046531      -0.14418621
Si      10.02917445       4.08701724      13.41581297       0.00000000       0.10046531      -0.14418621
Si       3.34305837       5.27559592       1.18015482       0.00000000      -0.10046531       0.14418621
Si       6.68611641       9.36261317       4.88166358       0.00000000       0.00000000      -0.33941090
Si       6.68611641      -0.00000001       9.71430421      -0.00000000      -0.00000000       0.33941090
22
Lattice="6.704312111855109 1.397067419082303e-13 2.9281799144226677e-13 3.3521560559272805 9.307555232608038 1.6112828830884608e-13 3.3521560559269004 9.342464284182981e-14 14.556976161038639" Properties=species:S:1:pos:R:3:forces:R:3 unique_starting_index=358 config_type=initial n_minim_iter=10 energy=-3573.8039092123445 stress="3.548339580693457e-05 -1.2385526240752423e-13 -5.943960780954807e-14 -1.2385526240752423e-13 -0.0028410087605844447 -5.549705396520063e-12 -5.943960780954807e-14 -5.549705396520063e-12 -0.002351321459359458" free_energy=-3573.8039092123445 pbc="T T T"
Si       5.49763017       2.85498801      13.30587105       0.02664365      -0.00522973       0.04769323
Si       5.49763017       6.45256720       1.25110213       0.02664365       0.00522973      -0.04769323
Si       4.55883867       2.85498801       1.25110213      -0.02664366      -0.00522973      -0.04769323
Si      11.26315079       6.45256720      13.30587105      -0.02664366       0.00522973       0.04769323
Si       7.91099473       6.45256720       1.25110213      -0.02664365       0.00522973      -0.04769323
Si       7.91099473       2.85498801      13.30587105      -0.02664366      -0.00522972       0.04769324
Si       8.84978623       6.45256720      13.30587105       0.02664366       0.00522973       0.04769323
Si       2.14547411       2.85498801       1.25110213       0.02664366      -0.00522973      -0.04769323
Si       5.47189359       1.15901895      11.62903781       0.15899370       0.24680922      -0.10117024
Si       5.47189359       8.14853626       2.92793538       0.15899369      -0.24680922       0.10117024
Si       4.58457525       1.15901895       2.92793538      -0.15899370       0.24680922       0.10117024
Si      11.28888736       8.14853626      11.62903781      -0.15899370      -0.24680922      -0.10117024
Si       7.93673131       8.14853626       2.92793538      -0.15899370      -0.24680922       0.10117024
Si       7.93673131       1.15901895      11.62903781      -0.15899370       0.24680922      -0.10117024
Si       8.82404965       8.14853626      11.62903781       0.15899370      -0.24680922      -0.10117024
Si       2.11973754       1.15901895       2.92793538       0.15899370       0.24680922       0.10117024
Si       6.70431245       4.06873474       1.18034824      -0.00000000       0.03098606       0.15241293
Si       6.70431245       5.23882047      13.37662494       0.00000000      -0.03098606      -0.15241293
Si      10.05646851       4.06873474      13.37662494      -0.00000000       0.03098606      -0.15241293
Si       3.35215639       5.23882047       1.18034824       0.00000000      -0.03098606       0.15241293
Si       6.70431245       9.30755522       4.86332866       0.00000000       0.00000000      -0.04895289
Si       6.70431245      -0.00000001       9.69364453       0.00000000       0.00000000       0.04895290
22
Lattice="6.704956836804873 1.3938620237235577e-13 2.926133378680874e-13 3.352478418402164 9.196693253308972 1.62608696169789e-13 3.352478418401772 9.47172820669111e-14 14.795358160976559" Properties=species:S:1:pos:R:3:forces:R:3 unique_starting_index=358 config_type=initial n_minim_iter=11 energy=-3573.846136541407 stress="0.00024329614592419373 -7.291178434208113e-13 1.8075184141981504e-13 -7.291178434208113e-13 -0.0017129095510734 -3.3658085861189e-14 1.8075184141981504e-13 -3.3658085861189e-14 -0.0004763448745585352" free_energy=-3573.846136541407 pbc="T T T"
Si       5.49835594       2.80040694      13.54016685       0.02194748      -0.01818921       0.03987524
Si       5.49835594       6.39628629       1.25518829       0.02194748       0.01818921      -0.03987524
Si       4.55907999       2.80040694       1.25518829      -0.02194748      -0.01818921      -0.03987524
Si      11.26403683       6.39628629      13.54016685      -0.02194748       0.01818921       0.03987524