12
Lattice="5.733098488142503 -0.35418372537821724 0.035862960625748695 1.8899325132123126 6.151001926220382 1.7091327861664345 1.8849103724224816 4.498164176358056 10.198905259175996" Properties=species:S:1:pos:R:3:forces:R:3 unique_starting_index=192 config_type=initial n_minim_iter=1 energy=-1947.7137544824866 stress="-0.0008383692262345736 -0.00011487028354115705 0.0007837916376814349 -0.00011487028354115705 -3.8999043178072477e-05 -0.00016369848571139438 0.0007837916376814349 -0.00016369848571139438 -0.00012277459531939472" free_energy=-1947.7137544824866 pbc="T T T"
Si       7.36833590       4.06722352       9.47292633       0.17645611       0.31359331       0.00471972
Si       4.51651101       7.07025838       4.11269579       0.12538013      -0.18515944       0.12389591
Si       6.70222695       2.51570032       4.26316679       0.10698400      -0.32033181       1.07759965
Si       8.06883441       6.33626479       8.38759059       0.09703402       0.39181202      -0.43077152
Si       7.03951551       7.10175807      10.33380725      -0.14332872      -0.22387399       0.51645517
Si       3.90735944       4.93574754       8.28908983      -0.06108850      -0.11551858      -0.69764295
Si       7.23234747       9.34470463      10.48745069       0.14852199       0.13456736       0.19733854
Si       2.75909186       6.06873373       2.93282291       0.00698414      -0.42367780       0.48746649
Si       5.68578121       6.44161074       8.52264572      -0.07344923       0.35128776      -0.41519122
Si       5.38376156       5.15873975       2.85221314      -0.09712677       0.04707036      -0.54070539
Si       4.75824935       8.31929453       9.70433014      -0.10935467       0.09496016      -0.09975210
Si       3.41804252       3.75682290       1.95212715      -0.17701250      -0.06472935      -0.22341232
12
Lattice="5.809704598004959 -0.34381965970835854 -0.03726049474040707 1.9052604406131062 6.162775351597257 1.7048249680101486 1.7901191607304199 4.531007594150855 10.207707739192319" Properties=species:S:1:pos:R:3:forces:R:3 unique_starting_index=192 config_type=initial n_minim_iter=2 energy=-1947.8386860499868 stress="0.008484652878023538 -5.286708570698719e-05 -0.0026342974931797673 -5.286708570698719e-05 0.007600067498108656 0.004696717159414184 -0.0026342974931797673 0.004696717159414184 0.0009223337648143114" free_energy=-1947.8386860499868 pbc="T T T"
Si       7.36514583       4.12355521       9.41016082       0.16662674       0.33417601      -0.11526677
Si       4.54504384       7.08449589       4.08865218       0.09699013      -0.20009369       0.17531171
Si       6.74861539       2.52486934       4.24750754       0.30744455      -0.05230861       0.43445516
Si       8.08925276       6.39630253       8.29805595      -0.15123010       0.26472355      -0.03203229
Si       7.01008953       7.13494067      10.31047128      -0.16833225      -0.17161105       0.15582017
Si       3.86220641       4.96175046       8.23490785      -0.02923169       0.01093614      -0.68051400
Si       7.22263946       9.39786190      10.45180995       0.22507866       0.15351858       0.29261364
Si       2.77063127       6.06422517       2.94406545       0.05404208      -0.43118714       0.37649574
Si       5.66378746       6.49567581       8.46458103      -0.19721760       0.09599744      -0.03662480
Si       5.42566843       5.18152496       2.77674745      -0.13359512      -0.06208811      -0.42329074
Si       4.71019371       8.36320775       9.68096598       0.03776307       0.03444587      -0.02966114
Si       3.43785340       3.76725849       1.91178963      -0.20833848       0.02349100      -0.11730669
12
Lattice="5.768626144717223 -0.3211951644853906 -0.08587612065510203 1.8930928200519754 6.018532779251709 1.6241580215784839 1.6961220649086561 4.334341450512619 10.145024374258709" Properties=species:S:1:pos:R:3:forces:R:3 unique_starting_index=192 config_type=initial n_minim_iter=3 energy=-1947.9982092160662 stress="-0.00533225129440555 0.000833877305045715 -0.006925607777804567 0.000833877305045715 -0.0019307839495190456 0.0065884949182197835 -0.006925607777804567 0.0065884949182197835 -0.014016781345292105" free_energy=-1947.9982092160662 pbc="T T T"
Si       7.25213730       3.98170807       9.30039410       0.38513282       0.40151125      -0.12757071
Si       4.50414131       6.88895395       3.98463359       0.17871019       0.16800282       0.36755979
Si       6.67767747       2.42270569       4.23731567       0.51399720       0.62244659      -0.16212815
Si       7.97993262       6.22383225       8.12995406      -0.08262125       0.32670423       0.20674659
Si       6.87373791       6.87839132      10.21061791      -0.21895984      -0.52324869      -0.07446992
Si       3.76988004       4.77425321       8.09615771      -0.16532554      -0.23265256      -0.64511267
Si       7.11359103       9.11878873      10.30572287       0.21574616       0.40167113       0.29368911
Si       2.74075998       5.87966975       2.89311068      -0.23904040      -0.55251318       0.16551171
Si       5.55811538       6.30893243       8.31853195      -0.16159768      -0.26262675       0.11597825
Si       5.36956926       5.05911612       2.63452845       0.03285509      -0.14161667      -0.17761660
Si       4.60427285       8.10410511       9.54563301      -0.08850847       0.12630820       0.13613481
Si       3.39302827       3.67202319       1.82633299      -0.37038828      -0.33398635      -0.09872221
12
Lattice="5.782486979251739 -0.3063369667197444 -0.08416250249571641 1.9066424590002955 5.889585139431622 1.5451092183749753 1.698892608900415 4.079368637334314 10.263448800769218" Properties=species:S:1:pos:R:3:forces:R:3 unique_starting_index=192 config_type=initial n_minim_iter=4 energy=-1948.1761279992952 stress="-0.0006644922134871233 0.0009731192729216298 -0.0027308278815776593 0.0009731192729216298 -0.00011466566287676598 0.004959855913848859 -0.0027308278815776593 0.004959855913848859 -0.004301188658239941" free_energy=-1948.1761279992952 pbc="T T T"
Si       7.28435869       3.78068988       9.40407113       0.66312450       0.41958932       0.21644646
Si       4.53347387       6.69267133       3.94657148       0.47852594       0.46821957       0.36435359
Si       6.70508640       2.29306480       4.35151185       0.28229613       0.75394274      -0.70342619
Si       8.00917512       6.01188150       8.14138176      -0.22517882       0.20571309       0.42149660
Si       6.88039928       6.56686108      10.31954463      -0.31004752      -0.81584746      -0.18220308
Si       3.77649760       4.54470955       8.10851844      -0.23494654      -0.49717476      -0.48791241
Si       7.15059680       8.79847467      10.35445403       0.14766977       0.71418134       0.34155055
Si       2.75384605       5.69667092       2.88001342      -0.59817845      -0.49340582      -0.17036060
Si       5.56875113       6.08232404       8.33426518       0.06969440      -0.29645769       0.05198247
Si       5.38254166       4.93592046       2.54919640       0.02403366      -0.22558985      -0.10227009
Si       4.61379127       7.80714855       9.57554472      -0.14706888       0.37250687       0.41573528
Si       3.39087010       3.57616712       1.77698362      -0.14992419      -0.60567734      -0.16539259
12
Lattice="5.786738201385281 -0.3151216475354084 -0.09951773078399526 1.8852725541180337 5.728394624594303 1.3549554401227122 1.6401086453649536 3.6586185322188647 10.260190017759022" Properties=species:S:1:pos:R:3:forces:R:3 unique_starting_index=192 config_type=initial n_minim_iter=5 energy=-1948.3109855804285 stress="0.0004267795779967125 0.0010988694727843496 0.0009413708645564184 0.0010988694727843496 0.001368124518618457 -0.0033711286351664708 0.0009413708645564184 -0.0033711286351664708 0.0029308968782359836" free_energy=-1948.3109855804285 pbc="T T T"
Si       7.26371302       3.41195822       9.37701838       1.00734347       0.52830824       0.47842218
Si       4.52127846       6.42118298       3.77012726       0.62513033       0.97708624       0.19594823
Si       6.69590818       2.07062428       4.38554430       0.20048203       1.08874015      -1.01783966
Si       7.96192720       5.64709758       7.98345477      -0.17958174       0.06945656       0.48284865
Si       6.79661998       6.04837766      10.25432031      -0.34081925      -0.77017808      -0.28710289
Si       3.71981252       4.16749745       7.97640791      -0.45038783      -0.84510794      -0.28123368
Si       7.09845375       8.29923976      10.18979929      -0.11227957       0.75792045       0.34448033
Si       2.71352083       5.44430225       2.75598761      -1.00726334      -0.37524067      -0.44887122
Si       5.51190693       5.70499468       8.18075841       0.40203106      -0.45749028      -0.04862098
Si       5.35321279       4.74978937       2.33962476       0.27700093      -0.44744740       0.12721832
Si       4.53812969       7.35007897       9.42102066      -0.31509414       0.64717015       0.66541945
Si       3.35711770       3.42841390       1.64172351      -0.10656195      -1.17321742      -0.21066874
12
Lattice="5.778798061984714 -0.48646766164403965 0.009433667256946852 1.7062962744452455 5.3193254382973 1.3119976401471354 1.6664472456147585 3.1818457964423454 10.416593723667743" Properties=species:S:1:pos:R:3:forces:R:3 unique_starting_index=192 config_type=initial n_minim_iter=6 energy=-1948.979489264676 stress="0.007666726992751411 -0.0006179121741075685 0.014318894127010408 -0.0006179121741075685 -0.006404794458399143 -0.007331598781174224 0.014318894127010408 -0.007331598781174224 0.012491912008795084" free_energy=-1948.979489264676 pbc="T T T"
Si       7.38349688       2.85251334       9.65357226       0.88184860       0.45504933       0.61488549
Si       4.42245245       5.88459009       3.84383969       0.25222966       0.87214393      -0.02795333
Si       6.71624106       1.70901306       4.54534872      -0.53184810       0.45299117       0.06016459
Si       7.84984113       4.94674780       8.18515176       0.39093343       0.03533308       0.39301129
Si       6.67609820       5.17252525      10.49951278      -0.39720175      -0.51976312      -0.29787771
Si       3.64452709       3.57713852       8.00488451      -0.85686974      -1.13374664      -0.52044361
Si       6.96351343       7.46397806      10.41626073       0.04337727       0.48844136      -0.19652988
Si       2.47145181       4.91336124       2.78632296      -0.43885846       0.40817385      -0.44163116
Si       5.44659613       5.02675773       8.29124096       0.26714126       0.61014750      -0.13865104
Si       5.22257802       4.23161282       2.34363652       0.37070911       0.02903888       0.43635856
Si       4.37622750       6.64452589       9.59986595      -0.15471578      -0.04938684       0.38053211
Si       3.22396305       3.00114350       1.63914308       0.17325451      -1.64842250      -0.26186530
12
Lattice="5.705239986587868 -0.5597877331685505 -0.05813468130378803 1.5791146547702324 5.248550066193819 1.2724662471583605 1.457553196651422 3.0744127814489617 10.471799620221232" Properties=species:S:1:pos:R:3:forces:R:3 unique_starting_index=192 config_type=initial n_minim_iter=7 energy=-1949.2825188767542 stress="-0.001085171875307862 -0.0030336822743672748 0.007543058977237838 -0.0030336822743672748 -0.006077954367974909 -0.00231598793566759 0.007543058977237838 -0.00231598793566759 0.01136019141682213" free_energy=-1949.2825188767542 pbc="T T T"
Si       7.16757225       2.71000690       9.64964580       0.97431195       0.40946477       0.51131755
Si       4.24910581       5.78582976       3.80705252       0.12811663       0.52955140      -0.32572354
Si       6.55318629       1.61642615       4.48976017      -0.61125449       0.62240523      -0.17112871
Si       7.54839705       4.77825620       8.14388113       0.79165046      -0.09986303       0.31257272
Si       6.33763578       4.93594176      10.49733172      -0.35064339      -0.05485053      -0.44058169
Si       3.40704760       3.41946729       7.95390124      -0.86173981      -0.84913213      -0.25790583
Si       6.61698867       7.29217288      10.40562896      -0.03586367       0.10083227      -0.37207502
Si       2.27751204       4.79286483       2.76283735      -0.20334550       0.25884533      -0.61267645
Si       5.19125677       4.86792112       8.25220640      -0.05076863       0.68509343       0.33382262
Si       5.05887813       4.10277267       2.25703765       0.37496432       0.30879155       0.90790833
Si       4.06303608       6.50227425       9.62202506      -0.15403733      -0.64554189       0.24590673
Si       3.09550338       2.87377666       1.58278953      -0.00139056      -1.26559640      -0.13143670
12
Lattice="5.686187934359496 -0.5811831929173509 -0.09897293021320162 1.5425631567170164 5.322322240048535 1.2243286814284078 1.3653534399248657 3.113603336670622 10.29930437260415" Properties=species:S:1:pos:R:3:forces:R:3 unique_starting_index=192 config_type=initial n_minim_iter=8 energy=-1949.535022877198 stress="-0.001114169348982268 -0.001265683275591156 0.005340758097195227 -0.001265683275591156 0.0009797307261774438 0.0004714191064011231 0.005340758097195227 0.0004714191064011231 -0.0001739203635223993" free_energy=-1949.535022877198 pbc="T T T"
Si       7.10335150       2.74353491       9.46214141       0.59814724       0.33831874       0.00632716
Si       4.20033718       5.89454965       3.69930772      -0.10131178       0.16150748      -0.44043537
Si       6.49274171       1.67760201       4.30289106      -0.53827284       0.26434379       0.62723627
Si       7.44204755       4.82354991       7.98684440       1.10155191       0.18199748       0.00740809
Si       6.20530531       4.97096913      10.25738195      -0.33028994       0.33051372      -0.32661075
Si       3.30040970       3.43144516       7.79718771      -0.65188298      -0.53373836      -0.30821334
Si       6.48501927       7.40585639      10.18295367       0.17288191      -0.16877152      -0.36477405
Si       2.19596206       4.85702184       2.66172068       0.18270255       0.00815626      -0.31937588
Si       5.10218031       4.91157317       8.09171797      -0.53990737       0.65715918       0.33821880
Si       5.02064410       4.13718519       2.19751275       0.21661547       0.41775154       0.94820306
Si       3.94209904       6.59227105       9.45893608      -0.18679085      -0.86263353      -0.03464841
Si       3.05951992       2.86310393       1.52889998       0.07655667      -0.79460477      -0.13333558
12
Lattice="5.728721605019254 -0.5618943290511865 -0.25584264423591097 1.5251286603245777 5.221087929343518 1.085426989630625 1.1026447368907224 2.901034183359314 10.240291276676164" Properties=species:S:1:pos:R:3:forces:R:3 unique_starting_index=192 config_type=initial n_minim_iter=9 energy=-1949.6879305713583 stress="-0.003604425663754839 0.003359688978189839 -0.006422647853660395 0.003359688978189839 -0.0027321216463401868 0.0023584563190035077 -0.006422647853660395 0.0023584563190035077 -0.009889114627039675" free_energy=-1949.6879305713583 pbc="T T T"
Si       6.96699018       2.59144359       9.24701747       0.23577325       0.18000264      -0.28696824
Si       4.16266728       5.77760805       3.47923088      -0.50932553       0.05259172      -0.60112462
Si       6.42748532       1.63293303       4.09338227      -0.22681372       0.34009642       0.38083923
Si       7.30476544       4.64606259       7.71842952       1.13708931       0.37976231      -0.09281935
Si       5.95098146       4.70779139      10.02072249      -0.18930500       0.55535168      -0.30388135
Si       3.08492836       3.22108234       7.61995993      -0.44074403      -0.40063861       0.01508100
Si       6.27285728       7.16468158       9.90267412       0.40195724      -0.07795971      -0.10686421
Si       2.11103763       4.71480072       2.51394139       0.47136251      -0.20814376      -0.12154944
Si       4.92076977       4.72026291       7.87946988      -0.44395661       0.21480215       0.37077800
Si       5.01198444       4.03546848       1.99351871       0.06116006       0.40070383       0.93813982
Si       3.70259468       6.34362775       9.28486140      -0.40484863      -1.03509981       0.01625499
Si       3.03411625       2.74021059       1.38296120      -0.09234883      -0.40146885      -0.20788582
12
Lattice="5.697464818028381 -0.6873545089625905 -0.29757300973195333 1.3645023975568586 5.162265423361226 1.028277435351685 0.9089655488706285 2.7396777183249146 10.362178959043497" Properties=species:S:1:pos:R:3:forces:R:3 unique_starting_index=192 config_type=initial n_minim_iter=10 energy=-1949.9122225499575 stress="0.0020223589670181888 -0.0017536290376765824 -0.005118050319293961 -0.0017536290376765824 -0.0011636141391188014 0.0032162032132315565 -0.005118050319293961 0.0032162032132315565 -0.0009082426908874003" free_energy=-1949.9122225499575 pbc="T T T"
Si       6.80765596       2.33803897       9.31536926       0.44069860       0.24080596      -0.31510906
Si       3.95291245       5.66778139       3.40966409      -0.43593651      -0.54542396      -0.19179273
Si       6.27431209       1.48563502       4.06773777      -0.26645353       0.03395625       0.71655252
Si       7.08261904       4.38227602       7.74492973       1.09500727       0.36134169       0.07093600
Si       5.64231486       4.42563071      10.05505235      -0.02523986       0.42122509      -0.22140068
Si       2.85103898       3.00404597       7.65815269      -0.50106651      -0.30643393      -0.02958681
Si       5.94060677       6.90827333       9.92669939       0.20678199      -0.18977649       0.26235667
Si       1.92150952       4.60995553       2.45758610       0.54830376      -0.20964423      -0.37957007
Si       4.65934047       4.50511102       7.92802923      -0.40126110       0.45977529      -0.04490001
Si       4.85361338       3.87963915       1.98894279      -0.00143673       0.61056993       0.39527083
Si       3.38118482       6.10925069       9.36963630      -0.53524229      -1.01248037       0.25599871
Si       2.92254976       2.58178373       1.34143272      -0.12415509       0.13608476      -0.51875538
12
Lattice="5.611694807010983 -0.7677617961157984 -0.2909284574590781 1.2518475193723966 5.146986915419766 0.8922491912395163 0.8131591944446076 2.4812415495191833 10.422033967035018" Properties=species:S:1:pos:R:3:forces:R:3 unique_starting_index=192 config_type=initial n_minim_iter=11 energy=-1950.1725557131572 stress="0.00586929779076823 -0.004731579236251479 -0.0025308998525106767 -0.004731579236251479 0.002422008813404195 -0.0014046070017542864 -0.0025308998525106767 -0.0014046070017542864 0.005298002360541214" free_energy=-1950.1725557131572 pbc="T T T"
Si       6.71113191       2.06207827       9.35689996       0.46953095       0.18329864      -0.06324519
Si       3.79180807       5.59370878       3.25953486      -0.64064017      -0.72987844       0.17919967
Si       6.10472551       1.34670406       4.10326385      -0.47919155      -0.18317537       0.53364508
Si       6.93718476       4.13523924       7.70817613       0.55106632       0.04873034       0.16011879
Si       5.39721560       4.10431515      10.03875418       0.28438166       0.28149871      -0.20992196
Si       2.66689260       2.73158442       7.62186206      -0.22817166      -0.21209187       0.19923867
Si       5.71310192       6.64077417       9.86238011       0.02050440      -0.14649063       0.33596296
Si       1.79079208       4.51271369       2.33740924       0.33305866      -0.12247828      -0.70144382
Si       4.45049864       4.29457724       7.89854488      -0.30819630       0.21733078      -0.29937830
Si       4.70702167       3.78148793       1.94672332       0.38861107       0.60473434       0.05440732
Si       3.14813526       5.82163144       9.37276037      -0.30575248      -0.41582353       0.50880056
Si       2.82105700       2.44310653       1.25456818      -0.08520089       0.47434530      -0.69738377
12
Lattice="5.529807767395678 -0.7321485607203291 -0.24540810683327385 1.2803246266919903 5.209753088397711 0.9219489333417845 0.8985765323544622 2.542540685071648 10.480794817864663" Properties=species:S:1:pos:R:3:forces:R:3 unique_starting_index=192 config_type=initial n_minim_iter=12 energy=-1950.3131701966893 stress="0.0035706696968669164 -0.001614289351895713 0.0004608538190474763 -0.001614289351895713 0.005913185424893231 -0.000741013319838407 0.0004608538190474763 -0.000741013319838407 0.008209414497154796" free_energy=-1950.3131701966893 pbc="T T T"
Si       6.72258426       2.16723099       9.45238950       0.37280079       0.21620533       0.04759207
Si       3.79167430       5.68762568       3.30981471      -0.66083696      -0.54501030       0.18077527
Si       6.04325853       1.42096052       4.20162922      -0.49026733      -0.09852511       0.33885178
Si       6.97197238       4.25338817       7.80992560       0.32291937       0.04987854       0.06580552
Si       5.42844682       4.23546120      10.12071331       0.43258897       0.22145055      -0.09998599
Si       2.69207137       2.78981034       7.69522456      -0.00801901      -0.28161076       0.20404084
Si       5.76910520       6.77329049       9.97041035      -0.04851312      -0.16297184       0.41730853
Si       1.83532952       4.58066990       2.35341151       0.19541021      -0.08530023      -0.65634579
Si       4.46508835       4.40865399       7.98876886      -0.25033828      -0.04657866      -0.34035812
Si       4.69072164       3.87065104       2.03680986       0.47094158       0.45012763      -0.23814436
Si       3.21011522       5.90125881       9.47523204      -0.29251753      -0.14423875       0.52207427
Si       2.81458153       2.48810930       1.27694152      -0.04416870       0.42657361      -0.44161402
12
Lattice="5.495363078279264 -0.7154284226011332 -0.1766293170314835 1.3045849068333721 5.164685133785934 0.928937678496544 1.02131002463251 2.5119649504659294 10.404964740964704" Properties=species:S:1:pos:R:3:forces:R:3 unique_starting_index=192 config_type=initial n_minim_iter=13 energy=-1950.4478908022043 stress="-0.0020584390128396803 0.00015265146706934727 0.004018281898529546 0.00015265146706934727 -0.0037766330608351327 -0.0002851001124940377 0.004018281898529546 -0.0002851001124940377 -0.0017417162387272794" free_energy=-1950.4478908022043 pbc="T T T"
Si       6.84076970       2.17028973       9.44009283      -0.04176714       0.20482910       0.14277984
Si       3.79572643       5.63698809       3.31398832      -0.72085874      -0.31481681       0.55641534
Si       6.02240973       1.41861880       4.29880549      -0.48746965       0.33965576      -0.11733896
Si       7.11202292       4.23147235       7.81656983      -0.16646485      -0.08745072       0.01315034
Si       5.52835022       4.22499845      10.07313472       0.68916621       0.01594586      -0.06272957
Si       2.74506967       2.73086762       7.67011836       0.37280388      -0.21631662      -0.12168444
Si       5.89363255       6.70457414       9.96685223       0.09336717       0.08730965       0.39152090
Si       1.89880204       4.53731180       2.31194646      -0.03479208      -0.13070690      -0.41282422
Si       4.51472959       4.39654907       7.97232498       0.00378643      -0.56787562      -0.55754222
Si       4.72000631       3.86542676       2.10900785       0.65399262      -0.01358148      -0.38970312
Si       3.29563439       5.79470762       9.48044309      -0.38141401       0.27587315       0.41062600
Si       2.82395359       2.46091229       1.26318502       0.01965015       0.40713463       0.14733010
12
Lattice="5.502102083624822 -0.6904054540613855 -0.24822274784717 1.3168774784876836 5.236810122073848 0.911116678915714 0.9195145463473932 2.5716194764318194 10.399872818276112" Properties=species:S:1:pos:R:3:forces:R:3 unique_starting_index=192 config_type=initial n_minim_iter=14 energy=-1950.539210290015 stress="-0.0001008368708068789 0.0006497582313288223 -0.003431373011341569 0.0006497582313288223 0.005250631874659221 -0.00021230839298905588 -0.003431373011341569 -0.00021230839298905588 -0.002831509778798753" free_energy=-1950.539210290015 pbc="T T T"
Si       6.74584293       2.25652850       9.35351964       0.02820226       0.28286122      -0.14277431
Si       3.74598006       5.71560765       3.28415381      -0.24660728       0.19785994       0.29551463
Si       5.96115938       1.48603847       4.22425026      -0.28335779       0.33481030      -0.14979182
Si       7.06658201       4.33445074       7.73098073      -0.24164188      -0.03703927      -0.07869660
Si       5.47218959       4.35504050       9.98531388       0.61571408      -0.00057620       0.11025357
Si       2.68767442       2.79430489       7.66366354       0.26797643      -0.44966692       0.02019550
Si       5.82205223       6.82634523       9.90814286       0.03330535       0.11207771       0.40656978
Si       1.91601381       4.62172376       2.25224779      -0.34523895      -0.36694018      -0.17118284
Si       4.44465318       4.48653586       7.91224836      -0.10407691      -0.41803080      -0.48542265
Si       4.74018254       3.95598225       2.04738609       0.52513689       0.15502039      -0.35073055
Si       3.20774175       5.89054322       9.46403843      -0.20538823       0.37590062       0.18540609
Si       2.82603847       2.53798510       1.22131991      -0.04402397      -0.18627682       0.36065919
12
Lattice="5.4871471864965295 -0.6704843302401341 -0.2818537735713349 1.3158292667752252 5.114677147205484 0.8983799986876414 0.8612530104954542 2.438306513751173 10.545483803409994" Properties=species:S:1:pos:R:3:forces:R:3 unique_starting_index=192 config_type=initial n_minim_iter=15 energy=-1950.686555099891 stress="0.0011915416414230793 -0.0004676449868896723 -0.0022951591091878005 -0.0004676449868896723 -0.0037601814691763033 0.0008138306852160694 -0.0022951591091878005 0.0008138306852160694 0.0034743690115549945" free_energy=-1950.686555099891 pbc="T T T"
Si       6.72814573       2.18202921       9.44842818       0.03129991       0.06363080      -0.22502736
Si       3.68895048       5.56339124       3.34615251      -0.12851335       0.04584858      -0.01686627
Si       5.88371875       1.47591053       4.24973995      -0.14541267       0.13094153       0.36519250
Si       7.02422210       4.19758892       7.79719072      -0.29620796      -0.16683199      -0.26573314
Si       5.43688164       4.16713296      10.08094108       0.17002735       0.17433232      -0.08170148
Si       2.63921903       2.62495288       7.72669282       0.23939580      -0.27115727      -0.01393121
Si       5.76774710       6.61971226      10.05698536       0.10082446       0.28789023       0.20001004
Si       1.88749250       4.47559041       2.21720168      -0.23924226      -0.16284330      -0.02372330
Si       4.39006065       4.32230363       7.94233013      -0.03455084      -0.36118468       0.19219779
Si       4.77727106       3.86540130       1.99895764       0.20897345       0.46650831       0.03512169
Si       3.10057052       5.69548645       9.63920505      -0.12138308       0.30041386      -0.44879546
Si       2.80352776       2.45333408       1.20057170       0.21478920      -0.50754839       0.28325619
12
Lattice="5.463502431338228 -0.6730386871099684 -0.24630438623161313 1.3180832994502572 5.14758381548647 0.8730667763312894 0.9143990260789369 2.425590517957306 10.470518780307549" Properties=species:S:1:pos:R:3:forces:R:3 unique_starting_index=192 config_type=initial n_minim_iter=16 energy=-1950.7339845408437 stress="-0.0008996193752363534 -0.0007426007591521425 -5.028287749967165e-05 -0.0007426007591521425 -0.002035336207834688 -0.0009721394659704014 -5.028287749967165e-05 -0.0009721394659704014 3.2812152691131186e-05" free_energy=-1950.7339845408437 pbc="T T T"
Si       6.76393182       2.18387357       9.40881815       0.00145851       0.04557637      -0.13472576
Si       3.68457054       5.59203797       3.32867727      -0.15006149       0.01361155      -0.07372034
Si       5.87202067       1.48482403       4.25972466      -0.00067208       0.13982173       0.28060244
Si       7.03998350       4.21034582       7.75911687      -0.31402006      -0.13479831      -0.27361237
Si       5.47916307       4.16566191      10.02261236       0.14180566       0.26037704      -0.16106476
Si       2.67457706       2.60684837       7.66974803       0.26421937      -0.21036804       0.02567080
Si       5.80426801       6.64375397      10.00551031       0.08410844       0.25255241       0.01661757
Si       1.88778896       4.49109746       2.18376746      -0.18148027      -0.08827155      -0.02011657
Si       4.41467762       4.32471062       7.88545967      -0.09544087      -0.34623217       0.25547212
Si       4.78551034       3.89521465       1.97963078       0.17774735       0.36313042       0.22180113
Si       3.12854851       5.71523118       9.57078313      -0.08047619       0.22605669      -0.41254258
Si       2.80013544       2.45595975       1.19830446       0.15281163      -0.52145614       0.27561831
12
Lattice="5.4441253115463715 -0.6492239799965683 -0.21852051162207323 1.3492843401409353 5.2095207520841305 0.8844324685409939 0.9807690916098705 2.4947532939498323 10.41345825159023" Properties=species:S:1:pos:R:3:forces:R:3 unique_starting_index=192 config_type=initial n_minim_iter=17 energy=-1950.7783777828004 stress="-0.0013649226874249852 0.0012492371023254808 0.002031501472534315 0.0012492371023254808 0.001625935361573939 0.0007522635239505535 0.002031501472534315 0.0007522635239505535 -0.0032731191134745758" free_energy=-1950.7783777828004 pbc="T T T"
Si       6.81140432       2.28869394       9.37795840      -0.04935304       0.06308129      -0.07355738
Si       3.70686605       5.67900136       3.35004773      -0.24171937      -0.12484268      -0.18788378