18
Lattice="7.020602175096587 1.2333570952085152e-15 -6.635548409340744e-15 -3.510301087548295 6.080019833497928 -1.3271096818681393e-14 1.8641650884138632e-14 5.3813810780482075e-14 19.72340591477619" Properties=species:S:1:pos:R:3:forces:R:3 unique_starting_index=376 config_type=initial n_minim_iter=1 energy=-2919.0689282208264 stress="0.00012166524777100831 -2.786526768193253e-13 -1.2086611085549118e-12 -2.786526768193253e-13 0.00012166524848883177 -4.249419619240822e-14 -1.2086611085549118e-12 -4.249419619240822e-14 0.0006520329578439801" free_energy=-2919.0689282208264 pbc="T T T"
Si       1.48575843      -0.29119260       1.86729577      -0.49285943      -0.18594746      -0.39659941
Si       6.52990314       1.43230085       1.86729577       0.40746494      -0.33385506      -0.39659941
Si       2.51524167       4.93891159       1.86729577       0.08539450       0.51980252      -0.39659941
Si       5.90545969       0.99148511      16.74353554       0.03741091      -0.25656565      -0.04900889
Si       3.20922102       4.61853556      16.74353554       0.20348692       0.16068163      -0.04900889
Si       1.41622253       0.46999916      16.74353554      -0.24089783       0.09588403      -0.04900889
Si       2.18464335       2.51305495      17.86225888       0.12171067       0.60113219       0.19337179
Si       3.75191106       0.63542917      17.86225888      -0.58145108      -0.19516156       0.19337179
Si       4.59434883       2.93153571      17.86225888       0.45974041      -0.40597062       0.19337179
Si       1.83527071       2.10305724       1.92913647       0.69649506       0.14146326       0.10776313
Si       4.28166581       0.53786245       1.92913647      -0.47075831       0.53245079       0.10776313
Si       4.41396672       3.43910014       1.92913647      -0.22573675      -0.67391405       0.10776313
Si      -2.67101339       5.05244401      10.91858163      -0.38760316      -0.29122813       0.00000000
Si       0.47026291       1.24063239      10.91858163       0.44601254      -0.19006012      -0.00000000
Si       2.20075046       5.86696327      10.91858163      -0.05840938       0.48128825      -0.00000000
Si       5.69847788       0.35301493       3.90071387      -0.34239795       0.18025723       0.14447338
Si       3.86564332       4.75851914       3.90071387       0.01509164      -0.38665394       0.14447338
Si       0.96678204       0.96848576       3.90071387       0.32730632       0.20639671       0.14447338
18
Lattice="6.985880021966371 -5.366634520762653e-15 -6.6027306364167135e-15 -3.4929400109831814 6.049949566813069 -1.3205461272833389e-14 1.8152842392957668e-14 5.2402742210654533e-14 19.206232390495945" Properties=species:S:1:pos:R:3:forces:R:3 unique_starting_index=376 config_type=initial n_minim_iter=2 energy=-2919.206461241899 stress="-0.008303890524377492 -1.1318531307526688e-12 -4.23549863828075e-13 -1.1318531307526688e-12 -0.008303890528331203 2.8734823108942177e-13 -4.23549863828075e-13 2.8734823108942177e-13 -0.0061304171692622075" free_energy=-2919.206461241899 pbc="T T T"
Si       1.45467189      -0.29870851       1.79963923      -0.53915203      -0.16851032      -0.18602159
Si       6.51723323       1.40913707       1.79963923       0.41551023      -0.38266419      -0.18602159
Si       2.50691490       4.93952101       1.79963923       0.12364180       0.55117451      -0.18602159
Si       5.87805463       0.97422411      16.30218810       0.27365835      -0.10822272      -0.30736202
Si       3.20314987       4.60343259      16.30218810      -0.04310555       0.29110644      -0.30736202
Si       1.39761551       0.47229287      16.30218810      -0.23055280      -0.18288372      -0.30736202
Si       2.17970079       2.52957926      17.40300159       0.02564722       0.25129613       0.16138344
Si       3.70534972       0.62288663      17.40300159      -0.23045244      -0.10343692       0.16138344
Si       4.59376951       2.89748368      17.40300159       0.20480523      -0.14785921       0.16138344
Si       1.85974028       2.09946956       1.88363137       0.51640111       0.52389194      -0.06692854
Si       4.23781590       0.56084756       1.88363137      -0.71190428       0.18527051      -0.06692854
Si       4.38126383       3.38963245       1.88363137       0.19550317      -0.70916245      -0.06692854
Si      -2.67647194       5.01342901      10.63228212      -0.30277017      -0.46113498       0.00000000
Si       0.48941909       1.22534237      10.63228212       0.55073969      -0.03163916      -0.00000000
Si       2.18705283       5.86112775      10.63228212      -0.24796953       0.49277415      -0.00000000
Si       5.65380318       0.35995102       3.80524176       0.14944753       0.05270953       0.39892871
Si       3.84725170       4.71636168       3.80524176      -0.12037155       0.10307059       0.39892871
Si       0.97776513       0.97363687       3.80524176      -0.02907597      -0.15578012       0.39892871
18
Lattice="7.07562093291852 -1.8380934348720948e-14 -6.687549594117151e-15 -3.537810466459245 6.127667475456391 -1.3375099188234346e-14 1.786736160902264e-14 5.157863017338779e-14 18.904185462495082" Properties=species:S:1:pos:R:3:forces:R:3 unique_starting_index=376 config_type=initial n_minim_iter=3 energy=-2919.2826580317364 stress="0.005726047443491648 -1.140213491036711e-12 3.0942129607226075e-13 -1.140213491036711e-12 0.005726047442051681 3.7580062393771265e-14 3.0942129607226075e-13 3.7580062393771265e-14 -0.007647874041129489" free_energy=-2919.2826580317364 pbc="T T T"
Si       1.44537206      -0.31300992       1.75056952      -0.55043417      -0.08663562       0.05670722
Si       6.62400943       1.40823389       1.75056952       0.35024574      -0.43337216       0.05670722
Si       2.54404988       5.03244350       1.75056952       0.20018844       0.52000779       0.05670722
Si       5.95632008       0.97263797      16.04252735      -0.37556099      -0.17342972      -0.36578808
Si       3.25513169       4.67200552      16.04252735       0.33797504      -0.23853050      -0.36578808
Si       1.40197961       0.48302398      16.04252735       0.03758595       0.41196022      -0.36578808
Si       2.21432094       2.59510691      17.13961743       0.37255619      -0.03248840       0.09314497
Si       3.72103194       0.62010474      17.13961743      -0.15814231       0.33888732       0.09314497
Si       4.67807850       2.91245583      17.13961743      -0.21441388      -0.30639892       0.09314497
Si       1.92251443       2.13547371       1.85935478       0.39133908       0.74696693      -0.15689300
Si       4.26498922       0.59720949       1.85935478      -0.84256187      -0.03457388      -0.15689300
Si       4.42592772       3.39498428       1.85935478       0.45122280      -0.71239305      -0.15689300
Si      -2.73253483       5.06090787      10.46507348       0.30183448      -0.39984425       0.00000000
Si       0.52120309       1.23076896      10.46507348       0.19535803       0.46131845      -0.00000000
Si       2.21133172       5.96365811      10.46507348      -0.49719252      -0.06147421       0.00000000
Si       5.70841093       0.37441877       3.75379997       0.40144135      -0.08359768       0.37282889
Si       3.89715929       4.75641950       3.75379997      -0.12832296       0.38945725       0.37282889
Si       1.00786116       0.99682921       3.75379997      -0.27311839      -0.30585956       0.37282889
18
Lattice="7.041638545570535 -4.07551638431436e-14 -6.655431013589572e-15 -3.5208192727852334 6.098237864731805 -1.3310862027179352e-14 1.8345967630703314e-14 5.2960246750653376e-14 19.410564478899484" Properties=species:S:1:pos:R:3:forces:R:3 unique_starting_index=376 config_type=initial n_minim_iter=4 energy=-2919.503434975813 stress="0.0032577876624087726 -1.858226672343084e-12 2.0442981091677067e-12 -1.858226672343084e-12 0.003257787665060227 4.4506670680470766e-13 2.0442981091677067e-12 4.4506670680470766e-13 -0.0015736351116676637" free_energy=-2919.503434975813 pbc="T T T"
Si       1.40955435      -0.32160524       1.77827061      -0.21091139      -0.07293472       0.17884391
Si       6.61537967       1.38151250       1.77827061       0.16861901      -0.14618727       0.17884391
Si       2.53752378       5.03833060       1.77827061       0.04229238       0.21912198       0.17884391
Si       5.92849840       0.95420798      16.46693944      -0.35190624      -0.11546498      -0.28825494
Si       3.25102099       4.65712624      16.46693944       0.27594873      -0.24702725      -0.28825494
Si       1.38293841       0.48690365      16.46693944       0.07595751       0.36249223      -0.28825494
Si       2.21170729       2.61246512      17.60896160       0.38070320      -0.24809900       0.24340820
Si       3.67332372       0.60916215      17.60896160       0.02450844       0.45374814       0.24340820
Si       4.67742678       2.87661059      17.60896160      -0.40521164      -0.20564914       0.24340820
Si       1.95103883       2.13813290       1.91322403       0.17796679       0.72096940      -0.11634935
Si       4.21444171       0.62058275       1.91322403      -0.71336121      -0.20636094      -0.11634935
Si       4.39697725       3.33952222       1.91322403       0.53539442      -0.51460846      -0.11634935
Si      -2.73763287       5.01859014      10.74539730       0.33890674      -0.46719387       0.00000000
Si       0.54340914       1.21808319      10.74539730       0.23514839       0.52709878      -0.00000000
Si       2.19422370       5.95980240      10.74539730      -0.57405513      -0.05990491       0.00000000
Si       5.66721628       0.38107231       3.86455971       0.66572613      -0.17373937      -0.01764782
Si       3.87801209       4.71741712       3.86455971      -0.18240036       0.66340543      -0.01764782
Si       1.01722942       0.99974843       3.86455971      -0.48332577      -0.48966606      -0.01764782
18
Lattice="6.975972535671099 -5.975547632669494e-14 -6.593366538681428e-15 -3.4879862678355 6.041369431993743 -1.3186733077363218e-14 1.876323051297325e-14 5.416478093766029e-14 19.85204067922795" Properties=species:S:1:pos:R:3:forces:R:3 unique_starting_index=376 config_type=initial n_minim_iter=5 energy=-2919.649127466234 stress="-0.004488694434651572 -2.5903028106579724e-14 -3.303761173156435e-13 -2.5903028106579724e-14 -0.004488694435530305 -1.3505733822814277e-12 -3.303761173156435e-13 -1.3505733822814277e-12 0.0013004687048576065" free_energy=-2919.649127466234 pbc="T T T"
Si       1.36756511      -0.33004081       1.80783920       0.48842558      -0.11704401       0.12791029
Si       6.57801370       1.34936654       1.80783920      -0.14284970       0.48151096       0.12791029
Si       2.51837997       5.02204371       1.80783920      -0.34557588      -0.36446695       0.12791029
Si       5.86589885       0.93062960      16.82759501      -0.01676315      -0.14486274      -0.34347008
Si       3.23707423       4.61470262      16.82759501       0.13383639       0.05791406      -0.34347008
Si       1.36098571       0.49603721      16.82759501      -0.11707324       0.08694868      -0.34347008
Si       2.20899680       2.60442794      18.02845612      -0.07232113      -0.19007061       0.43289603
Si       3.61597337       0.61083339      18.02845612       0.20076654       0.03240337       0.43289603
Si       4.63898861       2.82610811      18.02845612      -0.12844542       0.15766724       0.43289603
Si       1.96980841       2.15275912       1.95698770       0.00734748       0.64263077      -0.00844709
Si       4.12672424       0.62952457       1.95698770      -0.56020832      -0.31495228      -0.00844709
Si       4.36742614       3.25908574       1.95698770       0.55286083      -0.32767849      -0.00844709
Si      -2.71903424       4.93934067      10.98979190      -0.26976817      -0.11127111       0.00000000
Si       0.56990888       1.21694637      10.98979190       0.23124769      -0.17799053      -0.00000000
Si       2.14912534       5.92645182      10.98979190       0.03852047       0.28926164       0.00000000
Si       5.62676041       0.37863691       3.95795952       0.27274051      -0.02548148      -0.20888914
Si       3.83468313       4.68359901       3.95795952      -0.11430265       0.24894095      -0.20888914
Si       1.00251523       0.97913351       3.95795952      -0.15843786      -0.22345947      -0.20888914
18
Lattice="7.023164072089437 -7.381104026709351e-14 -6.637969795867196e-15 -3.5115820360446564 6.082238501375649 -1.3275939591734857e-14 1.863881269349306e-14 5.3805617629815926e-14 19.72040302696793" Properties=species:S:1:pos:R:3:forces:R:3 unique_starting_index=376 config_type=initial n_minim_iter=6 energy=-2919.7947293498746 stress="0.0070509160167548995 -2.1398301821372737e-13 -6.973791402880164e-13 -2.1398301821372737e-13 0.007050916018345059 -1.3983768882366734e-12 -6.973791402880164e-13 -1.3983768882366734e-12 0.0022640398069964747" free_energy=-2919.7947293498746 pbc="T T T"
Si       1.37906769      -0.34378013       1.79673064       0.48035183      -0.12822744      -0.02876421
Si       6.63135254       1.36619773       1.79673064      -0.12912769       0.48011061      -0.02876421
Si       2.52432585       5.05982090       1.79673064      -0.35122414      -0.35188317      -0.02876422
Si       5.89209541       0.91994772      16.69148869      -0.30098987      -0.23005246      -0.26009398
Si       3.28041826       4.64273045      16.69148869       0.34972621      -0.14563865      -0.26009398
Si       1.36223242       0.51956033      16.69148869      -0.04873634       0.37569111      -0.26009398
Si       2.23602829       2.62210301      17.93873405      -0.11386360      -0.05874250       0.41912349
Si       3.63434210       0.62540580      17.93873405       0.10780430      -0.06923752       0.41912349
Si       4.66437570       2.83472969      17.93873405       0.00605930       0.12798002       0.41912350
Si       2.00640048       2.21967562       1.94295560      -0.13989851       0.40052591       0.05727671
Si       4.09766835       0.62775599       1.94295560      -0.27691636      -0.32141862       0.05727671
Si       4.43067725       3.23480690       1.94295560       0.41681487      -0.07910729       0.05727671
Si      -2.74712459       4.94899275      10.91691927      -0.16476213       0.24424641      -0.00000000
Si       0.59919087       1.22866245      10.91691927      -0.12914253      -0.26481140       0.00000000
Si       2.14793369       5.98682180      10.91691927       0.29390466       0.02056499      -0.00000000
Si       5.68542308       0.37985981       3.92659094      -0.56895172       0.26210098      -0.18754201
Si       3.85148427       4.73379092       3.92659094       0.05748976      -0.62377713      -0.18754201
Si       0.99783874       0.96858777       3.92659094       0.51146197       0.36167616      -0.18754201
18
Lattice="6.983928374987924 -1.0603661818172612e-13 -6.600886029973805e-15 -3.491964187493873 6.048259390950566 -1.3201772059948324e-14 1.832166209950547e-14 5.289008272575401e-14 19.384848523763935" Properties=species:S:1:pos:R:3:forces:R:3 unique_starting_index=376 config_type=initial n_minim_iter=7 energy=-2920.0522329116952 stress="0.0022933986562610445 -1.9548001980733245e-12 -9.72403323528714e-13 -1.9548001980733245e-12 0.0022933986517667464 -1.9936814550483807e-12 -9.72403323528714e-13 -1.9936814550483807e-12 -0.002246227962943289" free_energy=-2920.0522329116952 pbc="T T T"
Si       1.37715949      -0.36989188       1.75964743       0.47655638      -0.24838290      -0.05740424
Si       6.61568439       1.37760105       1.75964743      -0.02317229       0.53690138      -0.05740424
Si       2.48304866       5.04055022       1.75964743      -0.45338409      -0.28851848      -0.05740424
Si       5.83512350       0.87591685      16.35412644      -0.22154133      -0.30100831      -0.33861302
Si       3.30780037       4.61540677      16.35412644       0.37145151      -0.04135626      -0.33861302
Si       1.33296867       0.55693577      16.35412644      -0.14991018       0.34236457      -0.33861302
Si       2.24056845       2.61539802      17.70081180      -0.33410928       0.19164869       0.32000408
Si       3.59864301       0.63269019      17.70081180       0.00108200      -0.38517147       0.32000408
Si       4.63668108       2.80017118      17.70081180       0.33302728       0.19352278       0.32000408
Si       2.04407408       2.31618050       1.91015083      -0.45306027       0.31123077       0.03401201
Si       3.95602017       0.61212983       1.91015083      -0.04300362      -0.54797709       0.03401201
Si       4.47579829       3.11994906       1.91015083       0.49606389       0.23674632       0.03401201
Si      -2.76340893       4.87775435      10.73116134      -0.30977633       0.49769012      -0.00000000
Si       0.64940946       1.21619989      10.73116134      -0.27612412      -0.51711923       0.00000000
Si       2.11399944       6.00256454      10.73116134       0.58590045       0.01942911      -0.00000000
Si       5.66996933       0.38641836       3.85206307      -1.28455168       0.57144969       0.04200117
Si       3.81429558       4.71712830       3.85206307       0.14738589      -1.39817923       0.04200117
Si       0.99162763       0.94471273       3.85206307       1.13716579       0.82672954       0.04200117
18
Lattice="6.945621347552667 -1.5217391241629258e-13 -6.564679999689536e-15 -3.4728106737762072 6.015084532048199 -1.3129359999380146e-14 1.8244419806501516e-14 5.266710343246079e-14 19.303123943244078" Properties=species:S:1:pos:R:3:forces:R:3 unique_starting_index=376 config_type=initial n_minim_iter=8 energy=-2920.2779963791395 stress="-0.0022621449332637894 5.44043423475827e-13 -2.2469922135804966e-12 5.44043423475827e-13 -0.0022621449353157023 4.0859671065992745e-13 -2.2469922135804966e-12 4.0859671065992745e-13 -0.0019165028488491518" free_energy=-2920.2779963791395 pbc="T T T"
Si       1.37974931      -0.40039008       1.74211000       0.27121772      -0.46375548       0.08062810
Si       6.60249466       1.39509300       1.74211000       0.26601517       0.46675918       0.08062810
Si       2.43618803       5.02038161       1.74211000      -0.53723289      -0.00300370       0.08062810
Si       5.77770224       0.82703159      16.22862328      -0.26935699      -0.32555313      -0.32293185
Si       3.34053985       4.59012113      16.22862328       0.41661577      -0.07049343      -0.32293185
Si       1.30018991       0.59793182      16.22862328      -0.14725878       0.39604656      -0.32293185
Si       2.23990966       2.61687281      17.69754788      -0.37540871       0.39882194       0.31591136
Si       3.55938817       0.63138227      17.69754788      -0.15768558      -0.52452445       0.31591136
Si       4.61913416       2.76682945      17.69754788       0.53309428       0.12570251       0.31591136
Si       2.07758856       2.41343147       1.90393579      -0.75748024      -0.06668209      -0.08879341
Si       3.81673409       0.59252875       1.90393579       0.43648850      -0.62265609      -0.08879341
Si       4.52410934       3.00912432       1.90393579       0.32099174       0.68933818      -0.08879341
Si      -2.78746481       4.81457674      10.68591983      -0.33476337       0.58639886      -0.00000000
Si       0.69699730       1.19378083      10.68591983      -0.34045462      -0.58311302       0.00000000
Si       2.09046748       6.02181149      10.68591983       0.67521800      -0.00328584      -0.00000000
Si       5.63164142       0.40311824       3.82929900      -1.03113848       0.61121342       0.01518579
Si       3.78068999       4.67558542       3.82929900      -0.01375711      -1.19859883       0.01518579
Si       1.00610059       0.93638087       3.82929900       1.04489559       0.58738541       0.01518579
18
Lattice="6.932528813692123 -1.9427020562352669e-13 -6.552305542332941e-15 -3.466264406845899 6.003746065125084 -1.3104611084667279e-14 1.810507277338403e-14 5.2264843197055026e-14 19.15569075107256" Properties=species:S:1:pos:R:3:forces:R:3 unique_starting_index=376 config_type=initial n_minim_iter=9 energy=-2920.49301636313 stress="-0.005299114938099394 -1.7120237041675402e-12 -9.773010264089995e-13 -1.7120237041675402e-12 -0.005299114936305536 6.902305691451587e-13 -9.773010264089995e-13 6.902305691451587e-13 0.0007107705020150956" free_energy=-2920.49301636313 pbc="T T T"
Si       1.40313439      -0.43007242       1.72848974      -0.15889633      -0.64427861       0.10328073
Si       6.60341525       1.43018624       1.72848974       0.63740981       0.18453105       0.10328073
Si       2.39224356       5.00363224       1.72848974      -0.47851348       0.45974757       0.10328073
Si       5.74133738       0.78944335      16.05702864      -0.27295895      -0.28654362      -0.22436252
Si       3.37818212       4.57742236      16.05702864       0.38463353      -0.09311758      -0.22436252
Si       1.27927370       0.63688036      16.05702864      -0.11167458       0.37966120      -0.22436252
Si       2.23349314       2.62147446      17.62100027      -0.25395191       0.40588706       0.36336064
Si       3.54551876       0.62352457      17.62100027      -0.22453255      -0.42287233       0.36336064
Si       4.61978130       2.75874704      17.62100027       0.47848446       0.01698528       0.36336064
Si       2.08123636       2.48750961       1.88844180      -0.55237096      -0.46979879      -0.21732353
Si       3.73766411       0.55864876       1.88844180       0.68304317      -0.24346789      -0.21732353
Si       4.57989273       2.95758769       1.88844180      -0.13067221       0.71326668      -0.21732353
Si      -2.81464219       4.79697241      10.60430303      -0.10920164       0.68630017      -0.00000000
Si       0.71928552       1.16770823      10.60430303      -0.53975256      -0.43772148       0.00000000
Si       2.09535665       6.04281149      10.60430303       0.64895420      -0.24857869      -0.00000000
Si       5.59890368       0.42606659       3.79033944      -0.18964017       0.41283788      -0.02495533
Si       3.76409248       4.63575953       3.79033944      -0.26270801      -0.37065215      -0.02495533
Si       1.03579705       0.94191995       3.79033944       0.45234818      -0.04218574      -0.02495533
18
Lattice="6.958545033368662 -2.2597756270797975e-13 -6.576894869684866e-15 -3.4792725166841403 6.026276772275416 -1.3153789739371367e-14 1.777934404558464e-14 5.132454535366616e-14 18.811060334141118" Properties=species:S:1:pos:R:3:forces:R:3 unique_starting_index=376 config_type=initial n_minim_iter=10 energy=-2920.6628327430253 stress="-0.0005450089810862252 2.7665376176194162e-14 1.0168332914586181e-12 2.7665376176194162e-14 -0.0005450089832161695 1.3411895388082566e-12 1.0168332914586181e-12 1.3411895388082566e-12 0.003632808060066566" free_energy=-2920.6628327430253 pbc="T T T"
Si       1.43154892      -0.45632939       1.70150268      -0.39113643      -0.63678495       0.00459050
Si       6.63796340       1.46792243       1.70150268       0.74704016      -0.02034161       0.00459050
Si       2.36830521       5.01468373       1.70150268      -0.35590373       0.65712656       0.00459050
Si       5.74380435       0.77097095      15.74182265      -0.30299224      -0.17821300      -0.07511577
Si       3.41896241       4.58879501      15.74182265       0.30583311      -0.17329247      -0.07511577
Si       1.27505076       0.66651081      15.74182265      -0.00284087       0.35150548      -0.07511577
Si       2.22966105       2.63787498      17.33718271       0.05831273       0.28936202       0.39151840
Si       3.55924775       0.61200563      17.33718271      -0.27975122      -0.09418071       0.39151840
Si       4.64890872       2.77639616      17.33718271       0.22143850      -0.19518131       0.39151840
Si       2.07046957       2.52264514       1.85069488      -0.14851747      -0.57130267      -0.30894249
Si       3.73863546       0.53175668       1.85069488       0.56902136       0.15703143      -0.30894249
Si       4.62871249       2.97187495       1.85069488      -0.42050389       0.41427124      -0.30894249
Si      -2.84231212       4.83589552      10.41352080       0.06579343      -0.12295783       0.00000000
Si       0.71242020       1.14681452      10.41352080       0.07358789       0.11845770      -0.00000000
Si       2.12989190       6.06984351      10.41352080      -0.13938132       0.00450013       0.00000000
Si       5.59350375       0.45008130       3.71493051       0.57733242       0.19220473      -0.01205064
Si       3.77201131       4.61907570       3.71493051      -0.45512039       0.40388218      -0.01205064
Si       1.07230247       0.95711977       3.71493051      -0.12221203      -0.59608691      -0.01205064
18
Lattice="6.995467008360262 -3.193346434329904e-13 -6.6117918124702735e-15 -3.4977335041798603 6.058252140576083 -1.3223583624942871e-14 1.6890463429811098e-14 4.8758568039694803e-14 17.870598928461938" Properties=species:S:1:pos:R:3:forces:R:3 unique_starting_index=376 config_type=initial n_minim_iter=11 energy=-2920.9193228259787 stress="0.008458293947115626 -1.4990103526772182e-12 9.630542827991155e-13 -1.4990103526772182e-12 0.008458293953457482 1.2510167453356596e-12 9.630542827991155e-13 1.2510167453356596e-12 0.009936117425421446" free_energy=-2920.9193228259787 pbc="T T T"
Si       1.44431958      -0.53540996       1.60289519      -0.51450852      -0.64337451       0.01577308
Si       6.73698584       1.51852243       1.60289519       0.81443293      -0.12389020       0.01577308
Si       2.31189507       5.07513967       1.60289519      -0.29992441       0.76726471       0.01577308
Si       5.72485815       0.70291816      14.88184178      -0.14825125       0.33427321       0.29224520
Si       3.52429294       4.60641351      14.88184178      -0.21536346      -0.29552595       0.29224520
Si       1.24404941       0.74892046      14.88184178       0.36361471      -0.03874725       0.29224520
Si       2.24120268       2.70069125      16.56965944       0.41083550      -0.04460275       0.32743326
Si       3.53599843       0.59059284      16.56965944      -0.16679063       0.37809536       0.32743327
Si       4.71599938       2.76696806      16.56965944      -0.24404487      -0.33349260       0.32743327
Si       2.11074421       2.63998933       1.75052643       0.14560399      -0.86047486      -0.56672160
Si       3.65379707       0.50796345       1.75052643       0.67239109       0.55633418      -0.56672160
Si       4.72865921       2.91029937       1.75052643      -0.81799508       0.30414068      -0.56672160
Si      -2.91760086       4.84709522       9.89289548       0.14314074      -0.29263730       0.00000000
Si       0.75882632       1.10798807       9.89289548       0.18186097       0.27028217      -0.00000000
Si       2.15877451       6.16142098       9.89289548      -0.32500171       0.02235514       0.00000000
Si       5.58755098       0.50523213       3.52410041       1.27958513       0.22530374      -0.06872995
Si       3.76414765       4.58634503       3.52410041      -0.83491133       0.99550136      -0.06872995
Si       1.14150187       0.96667498       3.52410041      -0.44467380      -1.22080510      -0.06872995
18
Lattice="7.002075443280144 -3.4157571296388105e-13 -6.618037799456414e-15 -3.5010377216397814 6.063975213095969 -1.323607559891531e-14 1.6585455100563167e-14 4.7878084834712995e-14 17.547891292612878" Properties=species:S:1:pos:R:3:forces:R:3 unique_starting_index=376 config_type=initial n_minim_iter=12 energy=-2920.979499073044 stress="0.008724500436085504 3.4031893061624646e-12 7.12377587196043e-13 3.4031893061624646e-12 0.008724500437315185 1.8697189970165623e-12 7.12377587196043e-13 1.8697189970165623e-12 0.004427291440703314" free_energy=-2920.979499073044 pbc="T T T"
Si       1.44449311      -0.55543130       1.57066178      -0.44959250      -0.60974651       0.17691788
Si       6.76084649       1.52868339       1.57066178       0.75285221      -0.08448527       0.17691788
Si       2.29777354       5.09072313       1.57066178      -0.30325972       0.69423178       0.17691788
Si       5.72004924       0.68904027      14.59862561      -0.00984130       0.41401107       0.30114213
Si       3.54532443       4.60918783      14.59862561      -0.35362345      -0.21552835       0.30114214
Si       1.23773947       0.76574712      14.59862561       0.36346475      -0.19848271       0.30114213
Si       2.24269391       2.71555467      16.29147771       0.42909775      -0.12583469       0.26918371
Si       3.52898915       0.58445257      16.29147771      -0.10557284       0.43452689       0.26918371
Si       4.73143009       2.76396797      16.29147771      -0.32352491      -0.30869220       0.26918371
Si       2.11762907       2.65924923       1.71556789       0.19307636      -0.81943595      -0.59975563
Si       3.64028351       0.50429596       1.71556789       0.61311417       0.57692701      -0.59975563
Si       4.74520057       2.90043002       1.71556789      -0.80619053       0.24250895      -0.59975563
Si      -2.93403527       4.85008307       9.71424937       0.19382571      -0.31698959      -0.12291357
Si       0.76776019       1.09798460       9.71424937       0.17760818       0.32635278      -0.12291357
Si       2.16627506       6.17988275       9.71424937      -0.37143389      -0.00936319      -0.12291357
Si       5.58535987       0.51967222       3.46054398       1.36053226       0.25924178      -0.02457452
Si       3.75934615       4.57722743       3.46054398      -0.90477609       1.04863461      -0.02457452
Si       1.15840712       0.96707556       3.46054398      -0.45575616      -1.30787639      -0.02457453
18