22
Lattice="6.912412291499641 -4.3130773847688264e-39 4.4066204866213964e-23 1.2022944734162707e-38 6.217819350653132 -1.2773874016939694e-15 -9.120569839376528e-23 2.9392091185127878e-15 14.306913711900933" Properties=species:S:1:pos:R:3:forces:R:3 unique_starting_index=32 config_type=initial n_minim_iter=1 energy=-3575.102169670451 stress="-0.005360413922549228 2.564618258691826e-12 -3.027295107786216e-13 2.564618258691826e-12 -0.0026128929162197237 1.7478450326864499e-12 -3.027295107786216e-13 1.7478450326864499e-12 0.0005365396057126955" free_energy=-3575.102169670451 pbc="T T T"
Si       2.15386702       1.52104912       7.93065293      -0.08910717       0.15857136       0.00892113
Si       4.75854527       4.69677024       7.93065293       0.08910718      -0.15857136       0.00892113
Si       2.15386702       1.58786056       0.77719607      -0.08910718      -0.15857136       0.00892113
Si       4.75854527       4.62995879       0.77719607       0.08910718       0.15857136       0.00892113
Si       6.11225785       1.52279745      13.50989009       0.25943912       0.05695945       0.01623494
Si       0.80015445       4.69502190      13.50989009      -0.25943912      -0.05695945       0.01623494
Si       6.11225785       1.58611222       6.35643324       0.25943912      -0.05695945       0.01623495
Si       0.80015445       4.63170713       6.35643324      -0.25943912       0.05695945       0.01623494
Si       4.97342348       1.76280391      10.43132080      -0.06351467      -0.12806238      -0.12749775
Si       1.93898881       4.45501544      10.43132080       0.06351467       0.12806238      -0.12749775
Si       4.97342348       1.34610577       3.27786394      -0.06351467       0.12806238      -0.12749775
Si       1.93898881       4.87171359       3.27786394       0.06351467      -0.12806238      -0.12749775
Si       2.47524414       4.10366355       7.99104636      -0.04931258       0.01051753       0.10565937
Si       4.43716815       2.11415580       7.99104636       0.04931258      -0.01051753       0.10565937
Si       2.47524414       5.22306548       0.83758951      -0.04931258      -0.01051753       0.10565937
Si       4.43716815       0.99475387       0.83758951       0.04931258       0.01051753       0.10565937
Si       2.64985585       0.85980072       2.94410514      -0.19846932       0.03764497       0.00825184
Si       4.26255644       5.35801863       2.94410514       0.19846932      -0.03764497       0.00825184
Si       2.64985585       2.24910896      10.09756199      -0.19846932      -0.03764497       0.00825184
Si       4.26255644       3.96871039      10.09756199       0.19846932       0.03764497       0.00825184
Si       3.45620615       3.10890968       2.52928810       0.00000000      -0.00000000      -0.02313909
Si       3.45620615      -0.00000000       9.68274496      -0.00000000       0.00000000      -0.02313909
22
Lattice="6.939542112956939 -5.535728592746056e-39 4.4448159424315007e-23 1.0842292689566295e-38 6.229702799427306 -1.264186743973059e-15 -9.074957660708546e-23 2.973430926874768e-15 14.301305418640514" Properties=species:S:1:pos:R:3:forces:R:3 unique_starting_index=32 config_type=initial n_minim_iter=2 energy=-3575.1109133864584 stress="0.00012902109448776375 -8.560216439099088e-13 2.4605109051539537e-12 -8.560216439099088e-13 0.0004935255148338998 -3.554002729551635e-12 2.4605109051539537e-12 -3.554002729551635e-12 0.0022357062424991346" free_energy=-3575.1109133864584 pbc="T T T"
Si       2.16221420       1.52414494       7.92755472      -0.02530159       0.18615162       0.02072801
Si       4.77732791       4.70555786       7.92755472       0.02530159      -0.18615162       0.02072801
Si       2.16221420       1.59070646       0.77690201      -0.02530159      -0.18615162       0.02072801
Si       4.77732791       4.63899634       0.77690201       0.02530159       0.18615162       0.02072801
Si       6.13655674       1.52577563      13.50461352       0.24580561       0.03675898       0.06869542
Si       0.80298537       4.70392717      13.50461352      -0.24580561      -0.03675898       0.06869542
Si       6.13655674       1.58907577       6.35396081       0.24580561      -0.03675898       0.06869542
Si       0.80298537       4.64062703       6.35396081      -0.24580561       0.03675898       0.06869542
Si       4.99286739       1.76602049      10.42708028      -0.11232157      -0.08546856      -0.17097839
Si       1.94667472       4.46368231      10.42708028       0.11232157       0.08546856      -0.17097838
Si       4.99286739       1.34883091       3.27642757      -0.11232157       0.08546856      -0.17097839
Si       1.94667472       4.88087189       3.27642757       0.11232157      -0.08546856      -0.17097839
Si       2.48490014       4.11151896       7.98803940      -0.00463930       0.02248972       0.08740090
Si       4.45464197       2.11818384       7.98803940       0.00463930      -0.02248972       0.08740090
Si       2.48490014       5.23303524       0.83738669      -0.00463930      -0.02248972       0.08740090
Si       4.45464197       0.99666756       0.83738669       0.00463930       0.02248972       0.08740090
Si       2.66001921       0.86148878       2.94296085      -0.16913964       0.04209413       0.02672617
Si       4.27952290       5.36821402       2.94296085       0.16913964      -0.04209413       0.02672617
Si       2.66001921       2.25336262      10.09361356      -0.16913964      -0.04209413       0.02672617
Si       4.27952290       3.97634018      10.09361356       0.16913964       0.04209413       0.02672617
Si       3.46977106       3.11485140       2.52826914       0.00000000       0.00000000      -0.06514421
Si       3.46977106      -0.00000000       9.67892185      -0.00000000      -0.00000000      -0.06514421
22
Lattice="6.948095672618988 -7.261316292373679e-39 4.612359908639722e-23 8.467556887998008e-39 6.229223792827772 -1.1833767738257112e-15 -8.711154436005798e-23 3.1457941892643346e-15 14.249056836833027" Properties=species:S:1:pos:R:3:forces:R:3 unique_starting_index=32 config_type=initial n_minim_iter=3 energy=-3575.1146707660773 stress="3.59163098309511e-05 1.5007962333867306e-12 -4.7166663875179155e-12 1.5007962333867306e-12 2.236135183306902e-05 -8.977936309692355e-13 -4.7166663875179155e-12 -8.977936309692355e-13 -0.0008193609882948878" free_energy=-3575.1146707660773 pbc="T T T"
Si       2.16477537       1.52457224       7.89864845      -0.03954477       0.16871148      -0.04756286
Si       4.78332030       4.70465155       7.89864845       0.03954477      -0.16871148      -0.04756286
Si       2.16477537       1.59003965       0.77412003      -0.03954477      -0.16871148      -0.04756286
Si       4.78332030       4.63918414       0.77412003       0.03954477       0.16871148      -0.04756286
Si       6.14486510       1.52577702      13.45545661       0.26587859       0.02284331       0.06343811
Si       0.80323057       4.70344678      13.45545661      -0.26587859      -0.02284331       0.06343811
Si       6.14486510       1.58883488       6.33092819       0.26587859      -0.02284331       0.06343811
Si       0.80323057       4.64038891       6.33092819      -0.26587859       0.02284331       0.06343811
Si       4.99870537       1.76561060      10.38849752      -0.12079107      -0.08663505      -0.12667183
Si       1.94939030       4.46361319      10.38849752       0.12079107       0.08663505      -0.12667183
Si       4.99870537       1.34900129       3.26396911      -0.12079107       0.08663505      -0.12667183
Si       1.94939030       4.88022250       3.26396911       0.12079107      -0.08663505      -0.12667183
Si       2.48792950       4.11126484       7.95912296       0.00692493       0.02454002       0.04803989
Si       4.46016617       2.11795896       7.95912296      -0.00692493      -0.02454003       0.04803989
Si       2.48792950       5.23257085       0.83459454       0.00692493      -0.02454003       0.04803989
Si       4.46016617       0.99665294       0.83459454      -0.00692493       0.02454003       0.04803989
Si       2.66277686       0.86154645       2.93228027      -0.13478843       0.01107177       0.07392390
Si       4.28531881       5.36767734       2.93228027       0.13478843      -0.01107177       0.07392390
Si       2.66277686       2.25306545      10.05680869      -0.13478843      -0.01107177       0.07392390
Si       4.28531881       3.97615835      10.05680869       0.13478843       0.01107177       0.07392390
Si       3.47404784       3.11461190       2.51885730       0.00000000       0.00000000      -0.02233445
Si       3.47404784      -0.00000000       9.64338572      -0.00000000       0.00000000      -0.02233445
22
Lattice="6.968405271448263 -7.440634832384141e-39 4.620381359589955e-23 8.248317364544372e-39 6.207546559955997 -1.1762001506390156e-15 -8.730438855817016e-23 3.154221332990428e-15 14.264090958447968" Properties=species:S:1:pos:R:3:forces:R:3 unique_starting_index=32 config_type=initial n_minim_iter=4 energy=-3575.139723409864 stress="0.00215291787610583 -1.0986899661041586e-12 -4.322776559019362e-12 -1.0986899661041586e-12 -0.0032253393603320466 -2.603552924559338e-12 -4.322776559019362e-12 -2.603552924559338e-12 0.00019495676130244202" free_energy=-3575.139723409864 pbc="T T T"
Si       2.16841220       1.53163079       7.90490960       0.03092052       0.10834413      -0.03538482
Si       4.79999307       4.67591577       7.90490960      -0.03092052      -0.10834413      -0.03538482
Si       2.16841220       1.57214249       0.77286412       0.03092052      -0.10834413      -0.03538482
Si       4.79999307       4.63540407       0.77286412      -0.03092052       0.10834413      -0.03538482
Si       6.18171577       1.52240687      13.47417874       0.02273183       0.00096195       0.05860286
Si       0.78668950       4.68513969      13.47417874      -0.02273183      -0.00096195       0.05860286
Si       6.18171577       1.58136641       6.34213326       0.02273183      -0.00096195       0.05860286
Si       0.78668950       4.62618015       6.34213326      -0.02273183       0.00096195       0.05860286
Si       5.00481498       1.75322054      10.38966276       0.02474398      -0.12003679       0.03658769
Si       1.96359029       4.45432602      10.38966276      -0.02474398       0.12003679       0.03658769
Si       5.00481498       1.35055274       3.25761729       0.02474398       0.12003679       0.03658769
Si       1.96359029       4.85699382       3.25761729      -0.02474398      -0.12003679       0.03658769
Si       2.49540009       4.09865356       7.97173214       0.00944756       0.04848737       0.03115479
Si       4.47300519       2.10889300       7.97173214      -0.00944756      -0.04848737       0.03115479
Si       2.49540009       5.21266628       0.83968666       0.00944756      -0.04848737       0.03115479
Si       4.47300519       0.99488028       0.83968666      -0.00944756       0.04848737       0.03115479
Si       2.66006744       0.85993857       2.93968099      -0.02895664      -0.02738803      -0.02253320
Si       4.30833783       5.34760799       2.93968099       0.02895664       0.02738803      -0.02253320
Si       2.66006744       2.24383471      10.07172646      -0.02895664       0.02738803      -0.02253320
Si       4.30833783       3.96371185      10.07172646       0.02895664      -0.02738803      -0.02253320
Si       3.48420264       3.10377328       2.51916404       0.00000000      -0.00000000      -0.13685465
Si       3.48420264      -0.00000000       9.65120952      -0.00000000       0.00000000      -0.13685465
22
Lattice="6.94543043927663 -8.724332720028644e-39 4.621603062346857e-23 6.923671238048129e-39 6.2513814384548265 -1.1468424251997296e-15 -8.693667479528549e-23 3.2429397287680054e-15 14.256769591290656" Properties=species:S:1:pos:R:3:forces:R:3 unique_starting_index=32 config_type=initial n_minim_iter=5 energy=-3575.1525198905356 stress="0.0005755720850588189 3.508023472831871e-12 1.8231961143974335e-12 3.508023472831871e-12 0.0004034520765185667 -1.257046078906387e-12 1.8231961143974335e-12 -1.257046078906387e-12 -0.00036698011540728457" free_energy=-3575.1525198905356 pbc="T T T"
Si       2.16007465       1.54898210       7.89971873       0.01752525       0.11133137      -0.00288280
Si       4.78535578       4.70239934       7.89971873      -0.01752525      -0.11133137      -0.00288280
Si       2.16007465       1.57670862       0.77133394       0.01752524      -0.11133137      -0.00288280
Si       4.78535578       4.67467282       0.77133394      -0.01752524       0.11133137      -0.00288280
Si       6.17061693       1.53412616      13.46970425      -0.01463917      -0.02547219       0.03892617
Si       0.77481351       4.71725528      13.46970425       0.01463917       0.02547219       0.03892617
Si       6.17061693       1.59156456       6.34131945      -0.01463917       0.02547219       0.03892617
Si       0.77481351       4.65981688       6.34131945       0.01463917      -0.02547219       0.03892617
Si       4.98429923       1.76201335      10.37969563      -0.00766013      -0.00596439       0.09533204
Si       1.96113121       4.48936809      10.37969563       0.00766013       0.00596439       0.09533204
Si       4.98429923       1.36367737       3.25131084      -0.00766013       0.00596439       0.09533204
Si       1.96113121       4.88770407       3.25131084       0.00766013      -0.00596439       0.09533204
Si       2.48729282       4.12863052       7.96984687       0.00146806       0.01644357       0.03004550
Si       4.45813762       2.12275092       7.96984687      -0.00146805      -0.01644357       0.03004550
Si       2.48729282       5.24844164       0.84146208       0.00146806      -0.01644357       0.03004550
Si       4.45813762       1.00293980       0.84146208      -0.00146805       0.01644357       0.03004550
Si       2.64604633       0.86659103       2.94015499       0.01341862      -0.04670239      -0.05059951
Si       4.29938411       5.38479041       2.94015499      -0.01341862       0.04670239      -0.05059951
Si       2.64604633       2.25909969      10.06853978       0.01341862       0.04670239      -0.05059951
Si       4.29938411       3.99228175      10.06853978      -0.01341862      -0.04670239      -0.05059951
Si       3.47271522       3.12569072       2.51614539      -0.00000000       0.00000000      -0.22164281
Si       3.47271522      -0.00000000       9.64453019      -0.00000000      -0.00000000      -0.22164281
22
Lattice="6.9202162010088 -8.567398975178337e-39 4.5464686021094246e-23 7.253812934876096e-39 6.253922617241254 -1.1600797504478757e-15 -8.860732764363368e-23 3.226013479631815e-15 14.32310205969792" Properties=species:S:1:pos:R:3:forces:R:3 unique_starting_index=32 config_type=initial n_minim_iter=6 energy=-3575.165924166531 stress="-0.0025825471389424354 6.428868847540894e-13 -3.3576464512060676e-12 6.428868847540894e-13 -0.0010550772450894814 5.261824513179541e-13 -3.3576464512060676e-12 5.261824513179541e-13 0.0005731450630462276" free_energy=-3575.165924166531 pbc="T T T"
Si       2.15188434       1.56488314       7.93565856      -0.02640679       0.04142809       0.05125950
Si       4.76833186       4.68903948       7.93565856       0.02640679      -0.04142809       0.05125950
Si       2.15188434       1.56207817       0.77410753      -0.02640679      -0.04142809       0.05125950
Si       4.76833186       4.69184444       0.77410753       0.02640679       0.04142809       0.05125950
Si       6.15704590       1.53421578      13.53751117      -0.06257984       0.02030320       0.00625149
Si       0.76317030       4.71970683      13.53751117       0.06257984      -0.02030320       0.00625149
Si       6.15704590       1.59274552       6.37596014      -0.06257985      -0.02030320       0.00625149
Si       0.76317030       4.66117709       6.37596014       0.06257985       0.02030320       0.00625149
Si       4.96176371       1.75811844      10.42976692       0.03561506      -0.00617608       0.08885025
Si       1.95845250       4.49580418      10.42976692      -0.03561506       0.00617608       0.08885025
Si       4.96176371       1.36884287       3.26821589       0.03561506       0.00617608       0.08885025
Si       1.95845250       4.88507974       3.26821589      -0.03561506      -0.00617608       0.08885025
Si       2.47802984       4.13251724       8.01207291      -0.07073363       0.02247416       0.08172795
Si       4.44218636       2.12140537       8.01207291       0.07073363      -0.02247416       0.08172795
Si       2.47802984       5.24836668       0.85052188      -0.07073363      -0.02247416       0.08172794
Si       4.44218636       1.00555594       0.85052188       0.07073363       0.02247416       0.08172795
Si       2.63118416       0.86441109       2.95167124      -0.02769810      -0.01403244      -0.07404272
Si       4.28903204       5.38951153       2.95167124       0.02769810       0.01403244      -0.07404271
Si       2.63118416       2.26255022      10.11322227      -0.02769809       0.01403244      -0.07404272
Si       4.28903204       3.99137240      10.11322227       0.02769810      -0.01403244      -0.07404272
Si       3.46010810       3.12696131       2.50969177       0.00000000      -0.00000000      -0.30809293
Si       3.46010810      -0.00000000       9.67124279       0.00000000       0.00000000      -0.30809293
22
Lattice="6.890748626405756 -8.381820216241807e-39 4.4202813538169494e-23 7.463389112718897e-39 6.274681117665735 -1.1358842820862563e-15 -9.18763574204308e-23 3.3212550140541557e-15 14.479609260427134" Properties=species:S:1:pos:R:3:forces:R:3 unique_starting_index=32 config_type=initial n_minim_iter=7 energy=-3575.2062493125654 stress="-0.004265995318547979 -1.6624213302616014e-12 -6.667361526703078e-13 -1.6624213302616014e-12 -0.0028033527956731544 1.9242389332199553e-13 -6.667361526703078e-13 1.9242389332199553e-13 0.0030093372814744127" free_energy=-3575.2062493125654 pbc="T T T"
Si       2.14145296       1.62444209       8.02111518      -0.10616936      -0.19752573       0.13829649
Si       4.74929566       4.65023903       8.02111518       0.10616936       0.19752573       0.13829649
Si       2.14145296       1.51289847       0.78131055      -0.10616936       0.19752573       0.13829649
Si       4.74929566       4.76178265       0.78131055       0.10616936      -0.19752573       0.13829649
Si       6.15720060       1.53772758      13.70438237      -0.19071539       0.12184379      -0.13380907
Si       0.73354803       4.73695354      13.70438237       0.19071539      -0.12184379      -0.13380907
Si       6.15720060       1.59961298       6.46457774      -0.19071539      -0.12184379      -0.13380907
Si       0.73354803       4.67506814       6.46457774       0.19071539       0.12184379      -0.13380907
Si       4.92650084       1.74873473      10.55468656       0.03137085      -0.00932534       0.00264040
Si       1.96424779       4.52594639      10.55468656      -0.03137085       0.00932534       0.00264040
Si       4.92650084       1.38860583       3.31488193       0.03137085       0.00932534       0.00264040
Si       1.96424779       4.88607529       3.31488193      -0.03137085      -0.00932535       0.00264040
Si       2.46436764       4.15521504       8.12021646      -0.24658129       0.08534705       0.19398025
Si       4.42638099       2.11946608       8.12021646       0.24658129      -0.08534705       0.19398025
Si       2.46436764       5.25680664       0.88041183      -0.24658129      -0.08534705       0.19398025
Si       4.42638099       1.01787448       0.88041183       0.24658129       0.08534705       0.19398025
Si       2.60232827       0.85731430       2.97378612      -0.09988681       0.10868537       0.01395018
Si       4.28842036       5.41736682       2.97378612       0.09988681      -0.10868537       0.01395018
Si       2.60232827       2.28002626      10.21359075      -0.09988681      -0.10868537       0.01395018
Si       4.28842036       3.99465486      10.21359075       0.09988681       0.10868537       0.01395018
Si       3.44537431       3.13734056       2.45890360       0.00000000      -0.00000000      -0.43011650
Si       3.44537431      -0.00000000       9.69870823      -0.00000000      -0.00000000      -0.43011650
22
Lattice="6.9296920639018635 -7.056372960102521e-39 4.568594645589456e-23 8.61681269404491e-39 6.313760329049172 -1.1521150491292159e-15 -8.872437912408634e-23 3.290305372343374e-15 14.394337020919323" Properties=species:S:1:pos:R:3:forces:R:3 unique_starting_index=32 config_type=initial n_minim_iter=8 energy=-3575.260325526121 stress="0.0007235625621405232 -8.512708311403412e-13 -1.22721121272184e-12 -8.512708311403412e-13 0.0024718801974358473 -1.63745012082728e-12 -1.22721121272184e-12 -1.63745012082728e-12 -0.00263470224882224" free_energy=-3575.260325526121 pbc="T T T"
Si       2.15177924       1.64755368       7.97729745      -0.06274137      -0.20011515      -0.04353046
Si       4.77791282       4.66620665       7.97729745       0.06274137       0.20011515      -0.04353046
Si       2.15177924       1.50932649       0.78012894      -0.06274137       0.20011515      -0.04353046
Si       4.77791282       4.80443384       0.78012894       0.06274137      -0.20011515      -0.04353046
Si       6.18624174       1.54816821      13.62603497      -0.00437879       0.09124408      -0.14241419
Si       0.74345033       4.76559212      13.62603497       0.00437879      -0.09124408      -0.14241419
Si       6.18624174       1.60871196       6.42886646      -0.00437879      -0.09124408      -0.14241420
Si       0.74345033       4.70504837       6.42886646       0.00437879       0.09124408      -0.14241419
Si       4.95119585       1.75757354      10.50664957      -0.20567648      -0.00070267      -0.02723375
Si       1.97849621       4.55618679      10.50664957       0.20567648       0.00070267      -0.02723375
Si       4.95119585       1.39930662       3.30948106      -0.20567648       0.00070267      -0.02723375
Si       1.97849621       4.91445371       3.30948106       0.20567648      -0.00070267      -0.02723375
Si       2.46888923       4.18831595       8.08557704      -0.18600899       0.10169493       0.07295622
Si       4.46080283       2.12544438       8.08557704       0.18600899      -0.10169493       0.07295623
Si       2.46888923       5.28232454       0.88840853      -0.18600899      -0.10169493       0.07295622
Si       4.46080283       1.03143579       0.88840853       0.18600899       0.10169493       0.07295623
Si       2.61387060       0.85911102       2.95124240      -0.08301306       0.13062266       0.27966849
Si       4.31582147       5.45464931       2.95124240       0.08301306      -0.13062266       0.27966849
Si       2.61387060       2.29776914      10.14841091      -0.08301306      -0.13062266       0.27966849
Si       4.31582147       4.01599119      10.14841091       0.08301306       0.13062266       0.27966849
Si       3.46484603       3.15688016       2.38832128       0.00000000      -0.00000000      -0.27889262
Si       3.46484603      -0.00000000       9.58548979      -0.00000000      -0.00000000      -0.27889262
22
Lattice="6.944792359178937 -3.095970877993123e-39 4.619226919535734e-23 1.287034988323905e-38 6.327720561082976 -1.2625595051888942e-15 -8.944484491331171e-23 3.087022927937204e-15 14.627091430218675" Properties=species:S:1:pos:R:3:forces:R:3 unique_starting_index=32 config_type=initial n_minim_iter=9 energy=-3575.3613209914256 stress="0.0031940941647935054 -1.4712976826006446e-13 5.245255678764731e-12 -1.4712976826006446e-13 -0.0029745044524459086 -1.028312623380502e-12 5.245255678764731e-12 -1.028312623380502e-12 0.000503990521430804" free_energy=-3575.3613209914256 pbc="T T T"
Si       2.14762229       1.72530679       8.11032932       0.07249322      -0.40706545      -0.03510311
Si       4.79717007       4.60241377       8.11032932      -0.07249321       0.40706545      -0.03510311
Si       2.14762229       1.43855349       0.79678361       0.07249321       0.40706544      -0.03510311
Si       4.79717007       4.88916707       0.79678361      -0.07249321      -0.40706544      -0.03510311
Si       6.22222367       1.55893440      13.86407087      -0.04726082       0.10580391      -0.37078405
Si       0.72256869       4.76878616      13.86407087       0.04726082      -0.10580391      -0.37078405
Si       6.22222367       1.60492588       6.55052515      -0.04726082      -0.10580391      -0.37078405
Si       0.72256869       4.72279468       6.55052515       0.04726082       0.10580391      -0.37078405
Si       4.92925899       1.73603943      10.70751632      -0.41493229      -0.25179850      -0.11869868
Si       2.01553337       4.59168113      10.70751632       0.41493229       0.25179850      -0.11869868
Si       4.92925899       1.42782085       3.39397060      -0.41493229       0.25179850      -0.11869868
Si       2.01553337       4.89989971       3.39397060       0.41493229      -0.25179850      -0.11869868
Si       2.44217629       4.22744499       8.27051304      -0.35741685       0.28820941       0.08993488
Si       4.50261607       2.10027557       8.27051304       0.35741685      -0.28820941       0.08993488
Si       2.44217629       5.26413585       0.95696733      -0.35741685      -0.28820941       0.08993488
Si       4.50261607       1.06358471       0.95696733       0.35741685       0.28820941       0.08993488
Si       2.58436436       0.85358855       2.99428751      -0.10289974       0.31504250       0.47121471
Si       4.36042800       5.47413201       2.99428751       0.10289974      -0.31504250       0.47121471
Si       2.58436436       2.31027173      10.30783323      -0.10289974      -0.31504250       0.47121471
Si       4.36042800       4.01744883      10.30783323       0.10289974       0.31504250       0.47121471
Si       3.47239618       3.16386028       2.22246425      -0.00000000       0.00000000      -0.07312750
Si       3.47239618      -0.00000000       9.53600997      -0.00000000      -0.00000000      -0.07312750
22
Lattice="6.954366440135046 -2.3797850905709756e-39 4.991844279211788e-23 1.3332683399142357e-38 6.34934573833459 -1.3306266928042432e-15 -8.267110830577331e-23 2.964327507543233e-15 14.741395854909683" Properties=species:S:1:pos:R:3:forces:R:3 unique_starting_index=32 config_type=initial n_minim_iter=10 energy=-3575.4386296452144 stress="0.00037703556068912264 -8.499853357360278e-12 -6.58982755737491e-14 -8.499853357360278e-12 -0.006299588324267874 1.0864696047203048e-12 -6.58982755737491e-14 1.0864696047203048e-12 0.0005202625604523153" free_energy=-3575.4386296452144 pbc="T T T"
Si       2.14409608       1.76336555       8.17674915       0.19193077      -0.45684458      -0.04913681
Si       4.81027036       4.58598019       8.17674915      -0.19193077       0.45684458      -0.04913681
Si       2.14409608       1.41130732       0.80605122       0.19193077       0.45684458      -0.04913681
Si       4.81027036       4.93803842       0.80605122      -0.19193077      -0.45684458      -0.04913681
Si       6.24064500       1.57198998      13.97544243       0.06394633       0.10566081      -0.44070267
Si       0.71372144       4.77735576      13.97544243      -0.06394633      -0.10566081      -0.44070267
Si       6.24064500       1.60268289       6.60474450       0.06394633      -0.10566081      -0.44070267
Si       0.71372144       4.74666285       6.60474450      -0.06394633       0.10566081      -0.44070267
Si       4.91169236       1.72617156      10.80670654      -0.56073762      -0.35791144      -0.16618808
Si       2.04267408       4.62317418      10.80670654       0.56073762       0.35791144      -0.16618808
Si       4.91169236       1.44850131       3.43600862      -0.56073762       0.35791144      -0.16618808
Si       2.04267408       4.90084443       3.43600862       0.56073762      -0.35791144      -0.16618808
Si       2.41942123       4.26332463       8.36942355      -0.46911424       0.30661463       0.05880221
Si       4.53494521       2.08602111       8.36942355       0.46911424      -0.30661463       0.05880221
Si       2.41942123       5.26069398       0.99872562      -0.46911424      -0.30661463       0.05880221
Si       4.53494521       1.08865176       0.99872562       0.46911424       0.30661463       0.05880221
Si       2.56538682       0.85829434       3.02364220      -0.03255901       0.31863037       0.43569265
Si       4.38897962       5.49105139       3.02364220       0.03255901      -0.31863036       0.43569265
Si       2.56538682       2.31637852      10.39434013      -0.03255901      -0.31863037       0.43569265
Si       4.38897962       4.03296721      10.39434013       0.03255901       0.31863037       0.43569265
Si       3.47718322       3.17467287       2.11618761       0.00000000      -0.00000000       0.32306541
Si       3.47718322      -0.00000000       9.48688554       0.00000000      -0.00000000       0.32306541
22
Lattice="6.987543529571829 1.952700991394667e-40 5.399611262294795e-23 1.577451233193874e-38 6.3664033932564825 -1.4460371005925093e-15 -7.505022784770505e-23 2.720009058817863e-15 14.802977589287751" Properties=species:S:1:pos:R:3:forces:R:3 unique_starting_index=32 config_type=initial n_minim_iter=11 energy=-3575.5739207236984 stress="0.0018956078701332143 -7.111759596273314e-12 -4.716597642475443e-12 -7.111759596273314e-12 -0.001896142232728989 -2.126558961247926e-12 -4.716597642475443e-12 -2.126558961247926e-12 0.0016575346397404063" free_energy=-3575.5739207236984 pbc="T T T"
Si       2.14777792       1.76378055       8.21391828       0.44981646      -0.24757451      -0.04452268
Si       4.83976561       4.60262284       8.21391828      -0.44981646       0.24757451      -0.04452268
Si       2.14777792       1.41942115       0.81242948       0.44981646       0.24757451      -0.04452268