12
Lattice="4.699980000000004 -4.2408916625923185e-16 -4.2686458299626314e-16 0.5017820379957365 5.762313681217365 2.483944729188362e-15 1.253741633784022 0.9861278623151746 8.725947721965923" Properties=species:S:1:pos:R:3:forces:R:3 unique_starting_index=158 config_type=initial n_minim_iter=1 energy=-1892.5987951474149 stress="-0.7586001621210232 -0.33815667124943566 -0.532290778775223 -0.0828947849343448 0.19232488706750236 -0.22370342847617605" pbc="T T T"
Si       5.42238590       3.91828908       4.13875889      16.74189674      -1.83312881     -15.84560221
Si       2.19153370       4.20370845       8.28684843     -10.94325389     -11.21748364      18.15850108
Si       1.34640113       1.54283080       1.39998494      18.68736028       8.50289318     -27.04854675
Si       3.84513840       5.95558099       2.02508217       1.93105968       0.61594215     -10.44116041
Si       4.26059725       3.93487651       5.23914714     -19.09097520     -13.01666509       1.70816963
Si       3.94582534       0.99450161       7.03788085      -0.66811195       4.14300937       1.86786519
Si       2.94440761       4.85393191       7.03364615      -4.94678979       8.62754486     -11.06528245
Si       2.93948357       1.38380132       3.21200565      21.74325501       6.73204134      10.26505174
Si       2.75089101       4.78831104       2.04103844     -17.92231650     -18.12442899       0.17509822
Si       1.36512138       1.60886487       3.03613679     -14.44827576       9.22943737      19.04614454
Si       4.47648940       4.91891987       6.48250133      18.45952201       9.90805840       5.92354469
Si       4.77008324       0.91038876       2.12885812      -9.54337064      -3.56722013       7.25621673
12
Lattice="4.785114353304454 0.02515023961325594 -0.021665658049685243 0.5417061353565614 5.8113248036501375 0.0090219360195693 1.2415042276091182 1.0179295307512501 8.832675430852555" Properties=species:S:1:pos:R:3:forces:R:3 unique_starting_index=158 config_type=initial n_minim_iter=2 energy=-1899.1911197372995 stress="-0.6350634482735549 -0.28308770095255514 -0.4462366402035953 -0.08451484146384668 0.16176948241851932 -0.18518190536379012" pbc="T T T"
Si       5.52420531       3.98676841       4.17230067      14.32590762      -1.69243642     -13.66905133
Si       2.21439657       4.26439925       8.39186028      -9.34014689      -9.87362707      15.66020529
Si       1.37451148       1.56605485       1.41180656      15.57973521       6.85197106     -23.44194660
Si       3.93752414       6.02808124       2.04367419       2.34800201      -0.15277248      -9.73826164
Si       4.33272628       3.99829381       5.29381215     -16.29245165     -11.64239545       0.66946221
Si       3.99011140       1.03787336       7.11101586      -0.61997190       3.81569069       1.98421851
Si       2.99079883       4.92341166       7.11762879      -4.05999557       7.40838798      -9.32354923
Si       2.98753970       1.41766654       3.24290792      19.38069558       6.69400023       9.45040000
Si       2.81509981       4.84370532       2.06366125     -15.82797971     -15.93882573       0.11867420
Si       1.38298751       1.63600301       3.07341714     -12.83022648       8.33175742      17.25311840
Si       4.55589667       4.99618126       6.55427558      15.50109726       9.03559886       5.29569020
Si       4.85056870       0.94705758       2.13637360      -8.16466547      -2.83734908       5.74103998
12
Lattice="5.398538506176084 0.20647771465767992 -0.18274206230220988 0.8295097029914889 6.153735602314587 0.08727451542021006 1.144130024361153 1.2661250935493678 9.585754044198714" Properties=species:S:1:pos:R:3:forces:R:3 unique_starting_index=158 config_type=initial n_minim_iter=3 energy=-1926.1091109362176 stress="-0.16660526599661482 -0.06787704624232226 -0.14161244888121882 -0.04825260226202157 0.06032266744739561 -0.06093924308666677" pbc="T T T"
Si       6.25472423       4.48316841       4.40880755       5.48677419      -0.40955064      -5.91289367
Si       2.36908634       4.71360070       9.14057083      -3.73956963      -3.78948918       6.12428665
Si       1.57715144       1.73361114       1.49559261       5.36804426       0.67134137     -11.08530505
Si       4.60223350       6.54366462       2.18300460       1.34057586      -1.68859834      -5.62590426
Si       4.84570775       4.45974142       5.68212207      -5.58957580      -6.72638096      -3.03326491
Si       4.30179965       1.36560015       7.62293350      -0.15540348       1.81461214       1.64795231
Si       3.31828182       5.43142763       7.71784652      -2.21612647       3.12548124      -4.12273640
Si       3.33204437       1.66838411       3.45963898       8.63373401       4.56894767       4.35874623
Si       3.27384019       5.23823638       2.23149938      -6.24737767      -5.99847449       0.43063213
Si       1.50721231       1.83580150       3.34010760      -9.05965597       4.23387554      10.36748203
Si       5.12205230       5.56026419       7.06572570       6.73594000       5.81736594       5.30219412
Si       5.42753415       1.21479576       2.18342529      -0.55735930      -1.61913028       1.54881082
12
Lattice="5.7723018979366545 0.3411201199307759 -0.321470720312532 1.0344891987389184 6.343131346755865 0.19117534078548487 1.0145206080204328 1.5117605577524282 10.129015229346171" Properties=species:S:1:pos:R:3:forces:R:3 unique_starting_index=158 config_type=initial n_minim_iter=4 energy=-1933.3711260309178 stress="-0.047509007953063176 -0.004799575179310072 -0.05144117400146299 -0.026981587783216167 0.031206321000033045 -0.034876486747286425" pbc="T T T"
Si       6.68769824       4.84270298       4.58369162       2.14623070      -0.02866977      -2.88288593
Si       2.40985277       5.06900108       9.70516881      -2.35446546      -2.41929163       3.90691437
Si       1.70008430       1.84903765       1.55759926       3.07088399       0.29466236      -6.56978329
Si       5.02216499       6.87368852       2.31233804       0.29208293      -1.82865230      -3.62166536
Si       5.13081541       4.79778891       5.96944773      -2.62177936      -5.12105814      -2.82032382
Si       4.43611848       1.65665072       7.98153395      -0.78851266       1.40745392       0.78200368
Si       3.48129074       5.81184925       8.17605577      -0.70045518       1.41576677      -2.95723443
Si       3.52698873       1.86987475       3.61356723       4.49237686       3.19846571       2.72443969
Si       3.55613913       5.49414965       2.38123051      -3.14096473      -2.15393379       0.94602961
Si       1.55450521       1.99191955       3.54728781      -5.89664225       2.64248372       6.54937460
Si       5.44063284       5.98198453       7.45875831       4.46930394       3.30249145       3.29246377
Si       5.76784944       1.42048375       2.20089835       1.03194122      -0.70971829       0.65066710
12
Lattice="6.00274254750426 0.4873132612852681 -0.46342586743608855 1.2383287293973948 6.400698278237811 0.30372392953775473 0.8431124262375429 1.7513228561738 10.540642742126142" Properties=species:S:1:pos:R:3:forces:R:3 unique_starting_index=158 config_type=initial n_minim_iter=5 energy=-1936.4911856124806 stress="-0.012360546615820605 0.01588475402722553 -0.007205695122789785 -0.02145078343836957 0.021110743842803273 -0.019232319277548385" pbc="T T T"
Si       6.96013054       5.13198908       4.69860973       1.19331228       0.10609827      -1.72076906
Si       2.38575252       5.34524223      10.15131888      -1.34599892      -1.89052814       2.66725109
Si       1.78694560       1.93368536       1.59707507       2.16188681       0.61847758      -4.92768470
Si       5.33705824       7.07606035       2.41536197      -0.32112454      -1.42655211      -2.45782386
Si       5.29277308       5.05969769       6.17653191      -1.63295286      -4.06732117      -2.52492501
Si       4.44568099       1.94605584       8.23257046      -1.17111360       2.12805646       1.12243918
Si       3.56414049       6.09681602       8.53111479       0.11454650       0.01504359      -1.84923650
Si       3.63333152       2.05431130       3.71975489       2.79677673       2.49552052       1.61500331
Si       3.76499111       5.65248875       2.50811608      -2.44558434      -0.82979454       0.99752998
Si       1.55739570       2.11894263       3.71510672      -4.06244452       1.58764996       4.79233562
Si       5.63314144       6.31261717       7.75899083       2.99506677       1.39679083       2.09917153
Si       5.96776107       1.62134133       2.18315785       1.71762968      -0.13344124       0.18670843
12
Lattice="6.120395052213492 0.6057337759759264 -0.6101453929720551 1.3960766486496234 6.31847079083962 0.4435011906853693 0.626944847409675 2.00206352725075 10.664477895648046" Properties=species:S:1:pos:R:3:forces:R:3 unique_starting_index=158 config_type=initial n_minim_iter=6 energy=-1938.4212857557463 stress="0.008264822086778777 0.02594895900293856 0.011391388089227645 -0.01584562448650156 0.012330743505958775 -0.011525843691441507" pbc="T T T"
Si       7.07460766       5.31622773       4.68945994       0.95554099       0.04952242      -1.34501465
Si       2.27503600       5.54861055      10.33904382      -1.14194082      -0.64949358       0.62586442
Si       1.83431552       1.98086551       1.59257254       1.33514510       0.42480199      -3.45819768
Si       5.52015244       7.12229255       2.47507780       0.20989778      -1.49895208      -1.56670991
Si       5.32414161       5.22537056       6.21916646      -1.12638435      -3.00524860      -1.85548031
Si       4.34451355       2.22641369       8.25386876      -0.91609555       2.37079600       1.22528870
Si       3.54354536       6.27910180       8.67166246       0.25256091      -0.67793134      -0.71485559
Si       3.65758129       2.20585063       3.72143696       1.86574548       1.92485680       0.74480878
Si       3.87499914       5.69316449       2.58991094      -2.32713959      -0.49081410       0.90922736
Si       1.51153123       2.21363566       3.79226449      -2.79717531       1.37287715       3.76810314
Si       5.68252326       6.52897617       7.86098930       2.00544256       0.21714100       1.46549375
Si       6.05170138       1.78515894       2.09157176       1.68440280      -0.03755566       0.20147200
12
Lattice="6.070586808041596 0.6699135313817952 -0.6936909765321361 1.4694452588060154 6.124334529505384 0.5543370714348959 0.47201405643437355 2.1661350697359367 10.531046866602624" Properties=species:S:1:pos:R:3:forces:R:3 unique_starting_index=158 config_type=initial n_minim_iter=7 energy=-1939.9249123122672 stress="0.004471651878094704 0.019599578023396277 0.000815418612131379 -0.013080429924139082 0.011129898483681875 -0.01388921014931897" pbc="T T T"
Si       7.00484719       5.33963682       4.60358649       1.01026141      -0.18582011      -0.85810752
Si       2.15266328       5.60203129      10.26605309      -1.90338634       0.96806438      -0.68542608
Si       1.82996608       1.97394261       1.56007190       0.76427180      -0.12764326      -2.15816236
Si       5.52665383       7.00175385       2.49028990       0.36219241      -1.84941247      -1.09371046
Si       5.23173468       5.24079474       6.13522333      -1.09089129      -2.68162580      -2.02669855
Si       4.18679378       2.40121578       8.10799775      -0.34455195       2.81616246       1.40164265
Si       3.45598802       6.29199802       8.61021015       0.27375334      -0.43092807      -0.83397140
Si       3.60026766       2.27525994       3.65202868       1.74619478       1.34197450       0.60640746
Si       3.85896905       5.60289289       2.61707382      -1.79716217      -0.93471382       1.02752731
Si       1.44468490       2.24449424       3.78092851      -2.44790076       1.89108133       3.54394844
Si       5.59723252       6.55754998       7.79097923       2.09280815      -0.47540410       0.85673494
Si       5.98551847       1.86501646       1.99236783       1.33441063      -0.33173506       0.21981557
12
Lattice="6.049337782979126 0.8246461615029629 -0.838679298091925 1.6568834122400073 5.891074421888317 0.7137978117851658 0.22962682417963465 2.4295789661984815 10.578367246641273" Properties=species:S:1:pos:R:3:forces:R:3 unique_starting_index=158 config_type=initial n_minim_iter=8 energy=-1941.924904045721 stress="0.010918896943566223 0.02384833571816228 -0.0006770535347979561 -0.01397727146042985 0.005864781571288263 -0.012105543352021107" pbc="T T T"
Si       6.99690994       5.47350127       4.56796778       0.39772236      -0.21772549      -0.89105254
Si       2.00445538       5.74661982      10.37936857      -1.84059863       2.38170554      -2.06851783
Si       1.84922427       1.98942997       1.54685217      -0.35331473      -0.20001620      -0.52868028
Si       5.64638320       6.91585669       2.54829352       0.52633511      -1.81930023      -0.26132890
Si       5.16518117       5.34258100       6.13243442      -1.00717545      -2.10578970      -1.88685948
Si       3.98382668       2.72441505       8.08413333       0.56498560       2.43130338       1.65303104
Si       3.39137749       6.38632673       8.70161432       0.53814792      -0.02188886      -0.72880341
Si       3.55647219       2.42667332       3.62761696       1.38950610       0.59079839       0.41729563
Si       3.91292950       5.53804387       2.70585161      -1.23454412      -1.25152843       0.94492540
Si       1.36158778       2.32592269       3.85942126      -1.63541862       1.81221431       2.63710990
Si       5.56074777       6.69289965       7.84599202       1.64970250      -0.91924163       0.56798533
Si       5.94258854       2.04912094       1.88424945       1.00465195      -0.68053108       0.14489515
12
Lattice="5.889596110652226 0.954600663771401 -0.9015690358317963 1.7991570186094337 5.554657558707005 0.9306407167731062 0.09752081660245526 2.7428337933279874 10.714896763353348" Properties=species:S:1:pos:R:3:forces:R:3 unique_starting_index=158 config_type=initial n_minim_iter=9 energy=-1943.6244786730938 stress="-0.012611876185517198 0.002212457837428038 -0.021088848644619084 -0.005198752244017633 -0.001430611877819564 -0.007446746232685836" pbc="T T T"
Si       6.87355051       5.54214098       4.68538997       0.13785989      -0.61233399      -0.65446126
Si       1.92406973       5.88449089      10.60703098      -1.13926288       2.51661607      -2.39068827
Si       1.82292646       1.97941245       1.59844892      -0.48521191       0.27554073       0.96798995
Si       5.65536986       6.72287498       2.74121638       0.70210615      -1.80118038      -0.17005522
Si       5.04324298       5.39711428       6.26444144      -0.98326080      -0.87850765      -1.08854032
Si       3.79553865       3.07395184       8.19409905       0.76511480       2.78427564       1.31598748
Si       3.34342151       6.44322652       8.93017845       0.17852807      -0.20213734      -0.56963473
Si       3.47239906       2.56067430       3.68788459       1.63755949       0.90894837       0.39094703
Si       3.89781027       5.39006445       2.89644197      -1.09376093      -3.02042052       0.55205436
Si       1.29247212       2.40177096       3.99850979      -0.98124465       1.60926514       2.59041004
Si       5.47591130       6.76970977       8.06202576       0.87747190      -1.44496556      -0.43321455
Si       5.78878633       2.20725685       1.87945183       0.38410085      -0.13510051      -0.51079451
12
Lattice="6.06582493654665 1.0456900455355669 -0.9045056294189003 1.9296499249971601 5.572683802035431 1.0182668215323547 0.15819057079155896 2.9017210801728686 11.241968881265985" Properties=species:S:1:pos:R:3:forces:R:3 unique_starting_index=158 config_type=initial n_minim_iter=10 energy=-1944.3135180640886 stress="0.011790206196350793 0.02325553490030154 0.0028410140826159824 0.003477401037185497 -0.0014696476647369787 -0.004940897404990548" pbc="T T T"
Si       7.15392404       5.71076553       4.97180882       0.12433129      -0.39622315      -0.65478130
Si       2.08159053       6.06613295      11.14065397      -1.39495145       2.38675690      -2.85386996
Si       1.89682062       2.03129639       1.71029025      -0.89236220       1.13401068       0.71589859
Si       5.91653333       6.82565682       2.93566630       0.46193191      -1.79667001       0.24553589
Si       5.26068524       5.55121969       6.61231749      -0.45695161      -0.12972534      -0.22254742
Si       3.97293506       3.28448783       8.64465450       0.96976821       1.49895246       0.60458795
Si       3.54709097       6.61174090       9.40539660       0.52239054      -0.26878138      -0.54596154
Si       3.63288215       2.68316185       3.90067654       0.87880189       0.67181710       0.26439497
Si       4.06435198       5.45785858       3.09091657      -0.76019791      -2.89123036       0.70166408
Si       1.35504999       2.49151225       4.24776340      -0.62125311       1.07111779       1.76085176
Si       5.74617235       6.95666058       8.50645294       0.38581888      -1.18120360      -0.25614570
Si       5.99056995       2.33316365       2.00833731       0.78267355      -0.09882111       0.24037268
12
Lattice="5.981925972713773 1.0568710994662596 -0.885417154741098 1.9344009552095136 5.421392123329195 0.973892944188947 0.17359560590937462 2.808326220236914 11.185307039955775" Properties=species:S:1:pos:R:3:forces:R:3 unique_starting_index=158 config_type=initial n_minim_iter=11 energy=-1944.7165123608609 stress="0.0006434477061103883 0.006859048213007244 -0.00789492967588478 -0.0010480803995378792 -0.0015304616623157366 -0.0067593874115757105" pbc="T T T"
Si       7.08321730       5.58542773       4.93241156      -0.13083505      -0.33782551      -0.42601497
Si       2.08720914       5.89516729      11.05140799      -1.20500186       2.04927228      -2.35970812
Si       1.87584065       1.98667331       1.70326428      -0.99483421       1.79258462       0.41894910
Si       5.86909913       6.65771662       2.89000864       0.77752166      -1.96953418       0.10997794
Si       5.21318098       5.41693488       6.56585473      -0.48903319      -0.21660839      -0.51028580
Si       3.94172034       3.21577732       8.61257832       0.87584442       1.89287405       0.94070290
Si       3.53814087       6.43313744       9.33038183       0.32479227      -0.19771474      -0.55039113
Si       3.60151471       2.63011686       3.88252845       0.91986106       0.79549454       0.37441468
Si       4.02568464       5.31197528       3.05259292      -0.61832955      -3.55437338       0.58471723
Si       1.34486592       2.42931776       4.23348351      -0.52493389       1.12833428       1.94347086
Si       5.70364173       6.78048007       8.44106900       0.53715882      -1.36916308      -0.51949116
Si       5.92009864       2.30497033       2.00757021       0.52778953      -0.01334050      -0.00634154
12
Lattice="5.984815493074052 1.0921007787701427 -0.8747660962177273 1.9779020706297663 5.39548535213646 0.9815192342265949 0.2015328014246507 2.8224733146875085 11.28935946540955" Properties=species:S:1:pos:R:3:forces:R:3 unique_starting_index=158 config_type=initial n_minim_iter=12 energy=-1944.9891476613966 stress="0.0015624473019470483 0.006846147002400568 -0.005386620768844068 -0.0009967947595148653 -0.0006691033500724103 -0.006829535250358105" pbc="T T T"
Si       7.12438618       5.60902538       4.99296284      -0.18184732      -0.23837697      -0.35074039
Si       2.13860800       5.90044238      11.14578427      -1.18272889       1.94378326      -2.21183053
Si       1.88751471       1.99547938       1.72973594      -1.12811318       2.12123646       0.23900498
Si       5.92137467       6.65336918       2.92469842       0.89986424      -2.02489211       0.17017071
Si       5.25350069       5.43221644       6.63610467      -0.41196884      -0.07698406      -0.40257144
Si       3.97557862       3.25689334       8.71139263       0.88727376       1.66018861       0.74483998
Si       3.59472207       6.43728318       9.41833508       0.31290139      -0.18038079      -0.52283504
Si       3.62809880       2.65390446       3.93035482       0.81261519       0.71769747       0.32202537
Si       4.05654259       5.29765526       3.08762418      -0.56728862      -3.60019122       0.63200072
Si       1.36116415       2.43902070       4.28978031      -0.45624273       0.99536882       1.75576984
Si       5.76001919       6.79230996       8.52573453       0.49647975      -1.32965374      -0.45739085
Si       5.93787486       2.33962056       2.04304587       0.51905525       0.01220428       0.08155664
12
Lattice="5.978202098442357 1.2168116985633926 -0.8505961764212002 2.130095262236007 5.304619200464113 0.9985834641284074 0.27080860284109876 2.8598446786783347 11.555658057519155" Properties=species:S:1:pos:R:3:forces:R:3 unique_starting_index=158 config_type=initial n_minim_iter=13 energy=-1945.7694356958127 stress="0.001543116447921075 0.0017589737194763713 0.002942898875882172 -0.0024582148374608257 0.0016478363154751807 -0.005220853717041285" pbc="T T T"
Si       7.23749469       5.68815193       5.14239316      -0.36915974       0.12340239      -0.09071130
Si       2.28852450       5.90627088      11.37536886      -0.96102263       1.64765744      -1.41290477
Si       1.92076672       2.02680442       1.80210472      -1.54766888       3.01912234      -0.37663963
Si       6.08821803       6.63663545       3.00587154       1.58717899      -2.19111668       0.31946193
Si       5.36787174       5.48151151       6.81176129      -0.25634703       0.04906543      -0.28686582
Si       4.06272167       3.38959861       8.96525406       0.92541730       0.91556185       0.16002539
Si       3.76413200       6.44280892       9.63633267       0.21022140      -0.00711320      -0.29118419
Si       3.70057980       2.73254301       4.05229152       0.37839112       0.42541491       0.06957166
Si       4.14785637       5.24350678       3.17452364      -0.45378648      -3.57218576       0.62094395
Si       1.40732225       2.46683418       4.44510448      -0.22949801       0.54409622       1.19159352
Si       5.92286510       6.82592473       8.73325701       0.25380451      -1.08871344      -0.18446006
Si       5.97732624       2.46035913       2.13195400       0.46246945       0.13480849       0.28116932
12
Lattice="5.9744054416791075 1.325129079013866 -0.8696530586639845 2.2624902147922175 5.321714281290489 1.0401340645426256 0.25714160893638716 2.955686947820964 11.428445804369558" Properties=species:S:1:pos:R:3:forces:R:3 unique_starting_index=158 config_type=initial n_minim_iter=14 energy=-1946.3905634042185 stress="0.0013084122691321826 0.009997318249383881 0.0024448165246343926 -0.0018011585291511614 0.003092027722994745 -0.0008417442414133526" pbc="T T T"
Si       7.29844560       5.84682661       5.08998661      -0.44244762       0.16896385       0.12358894
Si       2.34853931       6.02805215      11.25292222      -0.75087002       1.43535705      -1.32698549
Si       1.93776049       2.09689880       1.80579458      -1.53105418       2.45344090      -0.06259527
Si       6.23361147       6.73093932       2.99153191       1.90079305      -2.17506579       0.18251420
Si       5.42706492       5.61725042       6.74116864      -0.25919595      -0.10142774      -0.16614070
Si       4.08746690       3.55784515       8.85552553       0.78232699       0.43679275      -0.23247803
Si       3.85271019       6.56840264       9.54816757       0.17430383       0.08111220      -0.47947048
Si       3.73180776       2.83898923       4.00449399       0.14069561       0.32505366       0.13334115
Si       4.19872392       5.27374915       3.16773512      -0.37091129      -2.66498275       0.22013489
Si       1.42323258       2.53397418       4.44207078      -0.02768636       0.26436012       1.19981136
Si       6.00481622       6.97121986       8.64237185       0.01694255      -0.46310469       0.17171054
Si       5.99701540       2.59584429       2.09314625       0.36710339       0.23950045       0.23656889
12
Lattice="5.960334035632768 1.3090040964292224 -0.9191652043896882 2.2412182122389566 5.1707723212666625 1.0384426577969534 0.1580808475252562 2.9312922530027774 11.353910716491473" Properties=species:S:1:pos:R:3:forces:R:3 unique_starting_index=158 config_type=initial n_minim_iter=15 energy=-1946.7495982439439 stress="0.000872867281411095 -0.0014423065766832226 -0.0020591727538866998 -0.003979105301166625 0.003924790373192048 -0.0032464378366792094" pbc="T T T"
Si       7.21846865       5.72905680       5.01094775      -0.44834097       0.07697202       0.40615731
Si       2.24207614       5.91978782      11.15946146      -0.64214909       1.30042133      -1.35421426
Si       1.90160423       2.06489940       1.79843042      -1.26885588       2.88206392      -0.05358165
Si       6.20166331       6.55908476       2.92663739       1.68457521      -2.03562471      -0.06503705
Si       5.34279546       5.50426850       6.66074576      -0.28221685      -0.30247428      -0.36814932
Si       4.01402436       3.52667703       8.75736980       0.66495272       0.77471373      -0.00029121
Si       3.75963068       6.43675047       9.46120473       0.10115862      -0.09942556      -0.53499257
Si       3.68698367       2.79654088       3.95291143      -0.05173674       0.15644661       0.26435162
Si       4.12992351       5.12094709       3.12384140      -0.27279579      -2.79784216       0.05481674
Si       1.37462809       2.49442366       4.43029333       0.15801917       0.04701768       1.25454565
Si       5.90273521       6.82915672       8.55238398      -0.06255170      -0.36670066       0.16278425
Si       5.96383086       2.56245141       2.03135146       0.41994131       0.36443207       0.23361051
12
Lattice="5.966202917081876 1.3326616980984773 -0.9555091546305398 2.2708497045129277 5.202988477538807 1.0745615893607259 0.09713422038358499 3.0032552420323766 11.420884009167935" Properties=species:S:1:pos:R:3:forces:R:3 unique_starting_index=158 config_type=initial n_minim_iter=16 energy=-1946.9516075843574 stress="0.003976839475833642 0.006245583791121659 0.0009848884945267606 -0.000813232268251674 0.002578549658278217 -0.0006418721679334179" pbc="T T T"
Si       7.20776970       5.80467289       5.03434711      -0.41051014       0.08422086       0.40244601
Si       2.20413213       6.01095885      11.22816064      -0.52581131       1.19102203      -1.31777124
Si       1.89777178       2.10070796       1.81993244      -1.18747284       2.53070805       0.02869484
Si       6.23209215       6.61679286       2.94198068       1.60622661      -1.93038473      -0.01248241
Si       5.32434560       5.57704869       6.69207858      -0.16469345      -0.19865296      -0.19144669
Si       3.97962113       3.60891253       8.79129345       0.53552949       0.62156176      -0.23013740
Si       3.73630516       6.52348237       9.52100155       0.11213242      -0.12818525      -0.52792070
Si       3.67229896       2.84367268       3.96894553      -0.09299654       0.06109946       0.14546795
Si       4.12709959       5.15559094       3.14709476      -0.29664523      -2.34338628      -0.03915778
Si       1.35747394       2.53624480       4.47311383       0.13238642       0.03216430       1.18960581
Si       5.88047070       6.92062206       8.60400997      -0.13674301      -0.27382539       0.24041302
Si       5.96304961       2.61038843       2.01971391       0.42859757       0.35365814       0.31228860
12
Lattice="5.936286042865002 1.3249467177045868 -0.9738369681870939 2.2581969087161298 5.158733163014621 1.0703575077763496 0.05350775158277821 2.990361401573298 11.407677425374457" Properties=species:S:1:pos:R:3:forces:R:3 unique_starting_index=158 config_type=initial n_minim_iter=17 energy=-1947.0956936280422 stress="0.0013092452341895594 0.0033386479710119303 -0.0013322490116205552 -0.0015430414944746275 0.003363328174523414 -0.0007684714612160631" pbc="T T T"
Si       7.14651021       5.76471700       5.01262913      -0.38374740       0.03493570       0.48559412
Si       2.15372908       5.97344536      11.20247128      -0.47895101       1.06295904      -1.27087538
Si       1.87813949       2.09349281       1.82083648      -1.15733555       2.60878445      -0.01720737
Si       6.19847656       6.56169694       2.91499445       1.57548365      -1.88146388      -0.05995374
Si       5.26998753       5.53777293       6.66793644      -0.19816571      -0.24647674      -0.23542866
Si       3.93127225       3.59465202       8.76654856       0.46304348       0.79713976      -0.18081923
Si       3.68418831       6.47803469       9.49590437       0.07798713      -0.16556855      -0.53337975
Si       3.63652484       2.82645014       3.95502827      -0.10218512      -0.01002027       0.16503623
Si       4.08608341       5.10490842       3.12920461      -0.26991459      -2.30607720      -0.11607736
Si       1.33237200       2.52279660       4.47521298       0.13307630      -0.01749603       1.21904925
Si       5.81545758       6.87256564       8.58031408      -0.08549084      -0.25712962       0.21553368
Si       5.92637269       2.59811817       2.00105578       0.42619966       0.38041334       0.32852820
12
Lattice="5.930719578680649 1.322332010945134 -1.004962155431281 2.254396911210773 5.135795059348733 1.0756594105805262 -0.006312524209319603 2.998847011883204 11.44091663226079" Properties=species:S:1:pos:R:3:forces:R:3 unique_starting_index=158 config_type=initial n_minim_iter=18 energy=-1947.2470863725428 stress="0.0027990655692123594 0.004105044011241164 -0.0006622069495699272 -0.001147525266504986 0.0029374742862966832 -0.0006469748236656177" pbc="T T T"
Si       7.10596838       5.75245899       5.00717040      -0.36781447       0.02707971       0.52080081
Si       2.09679280       5.96874849      11.22313311      -0.40830066       0.95799989      -1.21183277