6
Lattice="3.77945 6.138615852714366e-16 1.0632394545049083e-15 3.7691199466717927e-16 6.155439999999995 4.553748899525167e-16 3.769119946671795e-16 -3.0777200000000033 5.330767411470888" Properties=species:S:1:pos:R:3:forces:R:3 unique_starting_index=156 config_type=initial n_minim_iter=1 energy=-966.1863754685946 stress="-0.2503753512507618 -0.2610466525749189 0.042491109358227606 -0.008951972567727562 -0.014999998700787338 -0.007279144672748502" pbc="T T T"
Si       3.72599610       1.15365595       2.68324124       9.94297925      -3.30469818       1.52093220
Si       1.87706422      -0.83400857       2.57213153      -0.43769544      -6.82097454      -0.10054521
Si       1.95583967       4.71111002       0.07539464      -0.12877088      -7.00041297      -0.79743256
Si       1.96003184       0.47190158       0.20209419       0.00696230       7.34847759      -0.93367413
Si       3.63616765       3.21277374       2.56245458      -0.39463583       3.50451672       0.14389254
Si       1.96270051       1.15878682       2.56621864      -8.98883940       6.27309137       0.16682716
6
Lattice="3.79120371176756 0.00034230501261864365 0.000703994135974671 0.0005574985690688194 6.175399939800047 0.0006843479554800982 0.0007142070974553484 -3.087107307185537 5.327617015320914" Properties=species:S:1:pos:R:3:forces:R:3 unique_starting_index=156 config_type=initial n_minim_iter=2 energy=-966.4279959812797 stress="-0.24395728481544418 -0.25122536603453616 0.04382340430077678 -0.009655326951303285 -0.014752043526834697 -0.006963514252838055" pbc="T T T"
Si       3.73918526       1.15770120       2.68280218       9.69268192      -3.15557149       1.46088196
Si       1.88326130      -0.83694131       2.57102333      -0.42086868      -6.68136450      -0.09900487
Si       1.96234987       4.72586970       0.07616322      -0.12574599      -6.74240208      -0.79865868
Si       1.96620847       0.47436900       0.20231205       0.01227332       7.07056538      -0.95778636
Si       3.64820450       3.22415744       2.56215360      -0.37897322       3.41800441       0.16617328
Si       1.96848565       1.16363669       2.56537777      -8.77936734       6.09076828       0.22839467
6
Lattice="4.209154342763935 0.013018350611653663 0.02575284084681045 0.021202470224238167 6.877498987994892 0.027465776089830668 0.02572214652779494 -3.4149634341689974 5.215258219003337" Properties=species:S:1:pos:R:3:forces:R:3 unique_starting_index=156 config_type=initial n_minim_iter=3 energy=-971.1408117003175 stress="-0.05555756919525404 -0.039054091497039464 0.0509531671293688 -0.014306564006260292 -0.0029623881731894904 -0.002649469986113575" pbc="T T T"
Si       4.21018719       1.30141513       2.66780769       2.54456424      -0.27011772       0.34618701
Si       2.10337983      -0.94039917       2.53163043      -0.43740337      -3.16097899      -0.57583817
Si       2.19434833       5.24405322       0.10542235       0.06119485      -1.79092483      -0.62931160
Si       2.18599317       0.56294669       0.21049411       0.19002608       0.50620187      -0.94705375
Si       4.07665682       3.62715713       2.55326347      -0.19347085       1.23722009       0.42084623
Si       2.17271062       1.33697952       2.53643462      -2.16491094       3.47859957       1.38517029
6
Lattice="4.369172129329516 0.021361083025082717 0.03380930561266676 0.03478994692241318 7.060793876824024 0.08918004765422395 0.030291738775882055 -3.4531647516327473 5.0091439566950315" Properties=species:S:1:pos:R:3:forces:R:3 unique_starting_index=156 config_type=initial n_minim_iter=4 energy=-971.9104362796633 stress="-0.027414816013090648 -0.0013336555632349131 0.03740175694340058 -0.008905925308550538 -0.0011073247800176744 0.001900991888074861" pbc="T T T"
Si       4.39219274       1.36930053       2.60048117       1.25906820      -0.25957452       0.17042032
Si       2.18369321      -0.95405152       2.43978428      -0.40245513      -1.77077698      -0.11805780
Si       2.28785933       5.37843966       0.15144470      -0.03708883      -1.25491195      -0.75387818
Si       2.27153950       0.58686996       0.20927602       0.34261016      -0.09942592      -1.21981261
Si       4.24211658       3.76396734       2.51091436      -0.19509559       0.67979646       0.15203188
Si       2.25046869       1.42192135       2.47386239      -0.96703880       2.70489290       1.76929638
6
Lattice="4.507254783836628 0.012401586504964634 0.03862328223690322 0.020197971037087717 7.072674151420317 0.15110993041371115 0.04437765374709444 -3.4054720372077907 4.769226217650561" Properties=species:S:1:pos:R:3:forces:R:3 unique_starting_index=156 config_type=initial n_minim_iter=5 energy=-972.4486490198833 stress="-0.016931828729153775 0.013765635922528005 0.03407418553677962 -0.007088487814630585 0.00012756491974621537 0.0030414958839971133" pbc="T T T"
Si       4.54340518       1.38727694       2.51250272       0.45363657      -0.44818403       0.34302812
Si       2.25328360      -0.95139364       2.33134345      -0.36825160      -1.15098326       0.48312679
Si       2.34772607       5.37126617       0.19315227       0.06415991      -1.42322717      -0.79091418
Si       2.34549908       0.58386021       0.20153438       0.37876035      -0.01270305      -1.54662795
Si       4.36860571       3.79394949       2.44864378      -0.25124249       0.63248144      -0.25325639
Si       2.31185323       1.47197356       2.39928116      -0.27706274       2.40261607       1.76464362
6
Lattice="4.6270514110031 -0.008280093016996273 0.03715285460235888 -0.013485458402820701 6.92543101025847 0.21234193586167466 0.05914538740759564 -3.2788219943842583 4.49108449325088" Properties=species:S:1:pos:R:3:forces:R:3 unique_starting_index=156 config_type=initial n_minim_iter=6 energy=-972.9458771848881 stress="-0.0039506636545905815 0.01078205660116392 0.004607195301911202 -0.008269247885687914 0.0013828268591003657 0.0023253354011221667" pbc="T T T"
Si       4.66276798       1.36048557       2.39992179       0.14469462      -0.58635371       0.18357767
Si       2.31109933      -0.92949925       2.20555829      -0.29225449      -0.91251275       1.16291431
Si       2.38487910       5.23060132       0.22874398       0.14642326      -1.86167288      -0.65621106
Si       2.41016452       0.56196560       0.18496946       0.26291800       0.29151434      -2.44423270
Si       4.46130149       3.73023424       2.35861926      -0.19108955       0.76658752       0.15037844
Si       2.36116591       1.49027609       2.30593685      -0.07069184       2.30243748       1.60357335
6
Lattice="4.656909506046416 -0.024916254549205808 0.027944277126466417 -0.040580113482746295 6.808486477714462 0.2904717270894525 0.05970437412694004 -3.1526873441166234 4.420330791184861" Properties=species:S:1:pos:R:3:forces:R:3 unique_starting_index=156 config_type=initial n_minim_iter=7 energy=-973.2254682427983 stress="0.008784104325557953 0.009815152279063374 0.0075940568216828624 -0.0036370894624470312 0.0014358280832885934 0.001709569069038524" pbc="T T T"
Si       4.68366354       1.34851538       2.39006336       0.07501927      -0.46675265       0.13551423
Si       2.31899041      -0.89947925       2.18292229      -0.21126506      -0.78129002       1.20892372
Si       2.38223544       5.10807580       0.27562223       0.16340752      -1.85762827      -0.26459282
Si       2.42696721       0.54788553       0.16575478       0.17921295       0.54299046      -2.06898552
Si       4.46620238       3.69589961       2.37760791      -0.16607986       0.80046125       0.22321408
Si       2.36331127       1.52435061       2.31689867      -0.04029482       1.76221923       0.76592631
6
Lattice="4.581860655235297 -0.03841088341257824 0.01689188782473523 -0.06255827916578369 6.688254741686793 0.32559887149746886 0.055104491190750296 -3.0621504766830423 4.340674349377444" Properties=species:S:1:pos:R:3:forces:R:3 unique_starting_index=156 config_type=initial n_minim_iter=8 energy=-973.4670910069995 stress="3.625178874369891e-05 0.003769196666880902 -0.0007678958312460593 -0.008002297967838414 0.002092258332182829 0.002926364118826864" pbc="T T T"
Si       4.59804972       1.32130043       2.35468967       0.12668333      -0.62804973       0.16472402
Si       2.27406393      -0.88407768       2.15241816      -0.14594356      -0.84791067       1.44136984
Si       2.33022866       4.98194143       0.29094469       0.07041755      -1.98215283      -0.01061949
Si       2.38856835       0.53769333       0.14257211       0.11705285       0.99500626      -2.14482519
Si       4.37172823       3.64671204       2.35874743      -0.10189435       0.78943132       0.30693328
Si       2.31210187       1.53567246       2.29745093      -0.06631583       1.67367566       0.24241753
6
Lattice="4.58179328096559 -0.053797656811333014 0.006610938337492139 -0.08761810544993275 6.661832919890715 0.38182543848740425 0.053133524446710406 -3.0002459304041316 4.319489077141963" Properties=species:S:1:pos:R:3:forces:R:3 unique_starting_index=156 config_type=initial n_minim_iter=9 energy=-973.6180140155427 stress="0.0058863253876765866 0.010378382385246389 0.006520635994981309 -0.0036077275447524313 0.002051992531800645 0.0030113784208942833" pbc="T T T"
Si       4.58787317       1.31934242       2.35853567       0.05394272      -0.58055718       0.17402449
Si       2.26913381      -0.87129633       2.15051645      -0.12844646      -0.71640015       1.34063383
Si       2.31272044       4.93417100       0.32569434       0.09298586      -1.73520744       0.21141306
Si       2.38727178       0.53680877       0.12951938       0.10053522       0.87099144      -1.82858861
Si       4.34990078       3.64986012       2.38474707      -0.14493574       0.77494321       0.26899249
Si       2.29836991       1.56381177       2.31073787       0.02591841       1.38623012      -0.16647526
6
Lattice="4.553740849278948 -0.06719941855835748 -0.0021805821071891785 -0.10944502215159722 6.5914704426816755 0.4006916817048328 0.05164688471877802 -2.9487260458993436 4.28047482089197" Properties=species:S:1:pos:R:3:forces:R:3 unique_starting_index=156 config_type=initial n_minim_iter=10 energy=-973.7326613570032 stress="0.001366599040170606 0.0027806196272085384 -0.0003181440614000638 -0.004355378160761804 0.003281011989918582 0.0025557791375342303" pbc="T T T"
Si       4.55025473       1.29639395       2.33856332       0.08134456      -0.70002050       0.19971075
Si       2.25135304      -0.86436494       2.13555978      -0.08978437      -0.74034252       1.41569064
Si       2.28333461       4.85967723       0.33445550       0.08889225      -1.76753931       0.33763789
Si       2.37139985       0.53028519       0.11668458       0.01625084       1.01423074      -1.86423133
Si       4.30358719       3.61468215       2.37428571      -0.15295417       0.81133906       0.28250176
Si       2.27331701       1.56222279       2.29613774       0.05625089       1.38233252      -0.37130971
6
Lattice="4.5477763657026005 -0.07841447401300955 -0.015125341719441224 -0.1277105372259546 6.575458070233637 0.42567946860532513 0.04252156166479625 -2.919079801435145 4.270906133882394" Properties=species:S:1:pos:R:3:forces:R:3 unique_starting_index=156 config_type=initial n_minim_iter=11 energy=-973.8294040045179 stress="0.0033027863203541224 0.005804618252185433 0.0027707256367621833 -0.001954127538994969 0.003764735465655379 0.0019789888438048963" pbc="T T T"
Si       4.53282672       1.28739619       2.33193445       0.05523928      -0.67567190       0.19698319
Si       2.24146269      -0.86177001       2.13361571      -0.10056357      -0.64872793       1.33763577
Si       2.26804605       4.82736963       0.34639050       0.10203781      -1.58470635       0.45004035
Si       2.36631054       0.53034755       0.10321156      -0.01868154       0.87506407      -1.68722894
Si       4.27740533       3.61308953       2.37888248      -0.15258909       0.80093138       0.25693468
Si       2.25752047       1.57519719       2.29580734       0.11455711       1.23311073      -0.55436505
6
Lattice="4.523728467874461 -0.09253707187811912 -0.03904297145823783 -0.15071145106337117 6.51525281419751 0.44168824063364925 0.020287130922269442 -2.8751131701571593 4.243973866611941" Properties=species:S:1:pos:R:3:forces:R:3 unique_starting_index=156 config_type=initial n_minim_iter=12 energy=-973.9648558662329 stress="-0.0007911481465678693 -0.0010239772587204844 -0.001966389168490324 -0.0005802729471148329 0.004900668926135574 0.001637147988980666" pbc="T T T"
Si       4.48883724       1.26030907       2.30178918       0.03677948      -0.74032506       0.18741434
Si       2.21495919      -0.85946689       2.12070595      -0.10943023      -0.59932652       1.29707287
Si       2.24096397       4.75419865       0.34691761       0.12254444      -1.47464316       0.57439490
Si       2.35062895       0.52746052       0.07853568      -0.08372026       0.80328729      -1.55298540
Si       4.22254364       3.58580223       2.35896821      -0.12774848       0.85438757       0.24649289
Si       2.22508062       1.57798614       2.27507954       0.16157506       1.15661988      -0.75238961
6
Lattice="4.529831446999654 -0.10439311951413544 -0.06790117061593735 -0.17002092462715063 6.526228852190645 0.4484725572363084 -0.010761501204969312 -2.874725798628509 4.254783036124656" Properties=species:S:1:pos:R:3:forces:R:3 unique_starting_index=156 config_type=initial n_minim_iter=13 energy=-974.0717218427872 stress="0.005028604709209508 0.01050408297863235 0.00657136214210881 0.0014922781267147681 0.004808156760075535 0.0010548955766552651" pbc="T T T"
Si       4.47197008       1.24390045       2.28155267       0.01841144      -0.59952383       0.18597762
Si       2.19894658      -0.86977692       2.12229717      -0.13497780      -0.44282460       1.14378436
Si       2.23240715       4.73767383       0.33936616       0.10761820      -1.17994274       0.62888161
Si       2.35015385       0.53041293       0.05275811      -0.08089369       0.55467030      -1.33108224
Si       4.19554461       3.59485678       2.34529677      -0.11692946       0.73981800       0.20665359
Si       2.20602131       1.59115640       2.26457817       0.20677130       0.92780288      -0.83421494
6
Lattice="4.513910635582125 -0.10748434392939309 -0.08072958432181644 -0.17505547897094803 6.4770442345812125 0.4398609188575667 -0.026338203242786726 -2.857591387427985 4.23801220473036" Properties=species:S:1:pos:R:3:forces:R:3 unique_starting_index=156 config_type=initial n_minim_iter=14 energy=-974.1219875214065 stress="-0.0006955708705656373 0.0014412844125847597 -0.0011235725459821605 0.0004453632773164841 0.0056777319428447095 0.0015326094486462325" pbc="T T T"
Si       4.44622780       1.22480805       2.25672552       0.02931431      -0.70664136       0.17016920
Si       2.18178104      -0.86917401       2.11098081      -0.12495884      -0.49462823       1.18787167
Si       2.22135289       4.69313662       0.32767159       0.12912581      -1.25146106       0.63011653
Si       2.34066858       0.52675965       0.04036823      -0.12107522       0.61896147      -1.34688347
Si       4.16762805       3.56656894       2.31956560      -0.09291035       0.84725594       0.21797833
Si       2.18943787       1.57994427       2.24325602       0.18050429       0.98651325      -0.85925227
6
Lattice="4.516116512227332 -0.11167655739945445 -0.0933190670965592 -0.18188317042926944 6.471721193413618 0.4386555756669368 -0.04068133392629915 -2.855973724667552 4.241778763471625" Properties=species:S:1:pos:R:3:forces:R:3 unique_starting_index=156 config_type=initial n_minim_iter=15 energy=-974.1596699275183 stress="0.0005336903921607356 0.003905904966371507 0.0007476163314081859 0.0006864736100333159 0.005767144574359826 0.0015020996422249503" pbc="T T T"
Si       4.43859909       1.21572294       2.24557189       0.02766127      -0.67512435       0.16400341
Si       2.17418056      -0.87261789       2.11003779      -0.12849171      -0.47129842       1.15118756
Si       2.21836953       4.68118296       0.32146232       0.12494745      -1.18278704       0.63144133
Si       2.34037288       0.52637496       0.02988328      -0.12367783       0.57191282      -1.28687788
Si       4.15656955       3.56354728       2.30962688      -0.08630255       0.83100998       0.20474482
Si       2.18136156       1.58043776       2.23602191       0.18586337       0.92628702      -0.86449925
6
Lattice="4.514867679869188 -0.11699224577732044 -0.11023381503499989 -0.1905406208171959 6.452326493050737 0.4352837892099128 -0.06021020364257111 -2.849196427214034 4.241293830856134" Properties=species:S:1:pos:R:3:forces:R:3 unique_starting_index=156 config_type=initial n_minim_iter=16 energy=-974.2083933863019 stress="0.00016298972988110374 0.004357358668232624 0.00042435994392033905 0.0006418467497768995 0.006029793671422021 0.0015397221528471612" pbc="T T T"
Si       4.42418695       1.20117851       2.22702291       0.02948603      -0.67738946       0.15286305
Si       2.16174498      -0.87578449       2.10568679      -0.12984877      -0.47055207       1.12225416
Si       2.21246222       4.65686430       0.31181478       0.12493772      -1.13812530       0.62874952
Si       2.33787566       0.52461603       0.01583904      -0.13605042       0.54823829      -1.22923280
Si       4.13800145       3.55226638       2.29213646      -0.07422358       0.86422526       0.19435320
Si       2.16858360       1.57729251       2.22269461       0.18569903       0.87360328      -0.86898713
6
Lattice="4.516390894488671 -0.14232883156652662 -0.19332077636947936 -0.23180531108437977 6.351929471145339 0.4209960269778924 -0.15676878994079774 -2.8113714813174955 4.245091575079889" Properties=species:S:1:pos:R:3:forces:R:3 unique_starting_index=156 config_type=initial n_minim_iter=17 energy=-974.4319616009607 stress="-0.0015362267292107145 0.008533361218154076 -0.0009135637655750574 0.0005377928747353168 0.007120258984438956 0.0007944112335772986" pbc="T T T"
Si       4.36141876       1.13177408       2.13978279       0.05578659      -0.73262365       0.11547627
Si       2.10371839      -0.88861552       2.08631524      -0.15734890      -0.56120886       0.91101729
Si       2.18790312       4.53755683       0.26592046       0.12466185      -0.95625873       0.58274484
Si       2.33013615       0.51470548      -0.05074740      -0.17236969       0.47763204      -0.91040744
Si       4.05500854       3.49506532       2.21059574      -0.03563846       1.06987670       0.11726744
Si       2.11018633       1.55880216       2.16136800       0.18490862       0.70258250      -0.81609840
6
Lattice="4.525534705207666 -0.14636436925684596 -0.22239267836850718 -0.23837783092734371 6.294650147439792 0.4169473042602604 -0.1944873184848081 -2.7862381161910683 4.2532776003105885" Properties=species:S:1:pos:R:3:forces:R:3 unique_starting_index=156 config_type=initial n_minim_iter=18 energy=-974.5028071643982 stress="-0.002568362072706756 0.007596123663092347 -0.0015108279262245627 0.0006478152527427498 0.007875823288839753 0.0004443876006349027" pbc="T T T"
Si       4.34977535       1.10967286       2.11283075       0.08134819      -0.76897031       0.10726011
Si       2.08620026      -0.88720584       2.08081818      -0.15842171      -0.67411844       0.85166124
Si       2.18900942       4.48588077       0.25017724       0.13964586      -0.97639508       0.53363131
Si       2.33262078       0.51069088      -0.07096280      -0.18592495       0.53868668      -0.81108653
Si       4.03889193       3.46803763       2.18551427      -0.04896712       1.20393170       0.07702237
Si       2.09589595       1.54717296       2.14439817       0.17231973       0.67686545      -0.75848849
6
Lattice="4.542779836565872 -0.1495571315161172 -0.2607697914647368 -0.24357775592204187 6.234663180417654 0.41188678436202064 -0.24601678324266937 -2.7606271714682338 4.267136081242823" Properties=species:S:1:pos:R:3:forces:R:3 unique_starting_index=156 config_type=initial n_minim_iter=19 energy=-974.5917797293564 stress="-0.002359633947961264 0.008266614070962297 -0.0010701596748834436 0.0005911481849623482 0.008580611007094193 -3.797177649552123e-05" pbc="T T T"
Si       4.34048305       1.08605885       2.07880656       0.10786823      -0.76036058       0.09524814
Si       2.06528476      -0.88726271       2.07403721      -0.15882038      -0.78617870       0.77313164
Si       2.19569060       4.43109733       0.22896896       0.15846198      -0.96383293       0.48387831
Si       2.33892289       0.50818628      -0.09621859      -0.19785903       0.58495413      -0.69783621
Si       4.02427908       3.44283429       2.15377314      -0.06797195       1.30578146       0.02598889
Si       2.08011355       1.53557130       2.12443871       0.15832115       0.61963662      -0.68041077
6
Lattice="4.559400767338709 -0.1502328115126161 -0.30237741695003073 -0.24467820907730214 6.170223900346644 0.4070113875690318 -0.3041524961550945 -2.732629748908985 4.2792750157367445" Properties=species:S:1:pos:R:3:forces:R:3 unique_starting_index=156 config_type=initial n_minim_iter=20 energy=-974.6855176606149 stress="-0.0036608895445111615 0.007073882831841207 -0.002191747313633906 0.0004274014953938255 0.009339762947740065 -0.0003167274592851283" pbc="T T T"
Si       4.32934810       1.06458236       2.04061566       0.14033029      -0.75868950       0.08188630
Si       2.04105308      -0.88636008       2.06425206      -0.15880951      -0.89417184       0.69798712
Si       2.20517102       4.37474534       0.20581658       0.18725817      -0.96561308       0.44125191
Si       2.34509120       0.50706059      -0.12225165      -0.21409648       0.63473835      -0.59476876
Si       4.00872854       3.41830016       2.11805104      -0.08496062       1.40040690      -0.02379394
Si       2.06272854       1.52363985       2.10247343       0.13027814       0.58332918      -0.60256262
6
Lattice="4.584156592395308 -0.14983753526393398 -0.34806933761139697 -0.24403443836140779 6.115921802871163 0.40396701541063423 -0.3689210606936406 -2.7081152037989895 4.297827067256251" Properties=species:S:1:pos:R:3:forces:R:3 unique_starting_index=156 config_type=initial n_minim_iter=21 energy=-974.7831937309561 stress="-0.003302252855246189 0.008231210917726627 -0.0007752993534949436 0.00037318736452675706 0.00988568848450581 -0.0001307596589352321" pbc="T T T"
Si       4.32426930       1.04688777       2.00216949       0.16167092      -0.69426039       0.06037078
Si       2.01752821      -0.88671963       2.05536447      -0.15550647      -0.97780051       0.61955128
Si       2.22046797       4.32646626       0.18159177       0.21521475      -0.92134280       0.40658273
Si       2.35536888       0.50793601      -0.14939371      -0.22201166       0.65734609      -0.49632891
Si       3.99879649       3.40163863       2.08280601      -0.10892294       1.43278440      -0.07036841
Si       2.04685227       1.51495884       2.08282752       0.10955539       0.50327321      -0.51980748
6
Lattice="4.60780645376417 -0.15035473352395104 -0.3963081914846109 -0.24487677861134977 6.053543386059508 0.4008386280437796 -0.436538920108425 -2.679635258325738 4.3095938211913785" Properties=species:S:1:pos:R:3:forces:R:3 unique_starting_index=156 config_type=initial n_minim_iter=22 energy=-974.8825731366585 stress="-0.005454410010846094 0.005573188437453131 -0.0023990576976780516 0.00034665729916916416 0.010365990423535287 0.0005404546190084828" pbc="T T T"
Si       4.31632552       1.02768666       1.95751327       0.17504791      -0.64904319       0.03432138
Si       1.99188096      -0.88693608       2.04123877      -0.15090026      -1.05870800       0.55589061
Si       2.23440512       4.27252398       0.15557802       0.25443443      -0.90788094       0.38278702
Si       2.36474918       0.50775017      -0.17706864      -0.22383064       0.68915718      -0.41247192
Si       3.98490972       3.37951041       2.04153354      -0.13112778       1.45464403      -0.11517424
Si       2.02818278       1.50308136       2.05900190       0.07637634       0.47183091      -0.44535285
6
Lattice="4.625354677920542 -0.152491971592919 -0.42095514522105537 -0.24835761330932385 6.033699593873759 0.40013082704129516 -0.46956207358859875 -2.670326335881837 4.319581145043628" Properties=species:S:1:pos:R:3:forces:R:3 unique_starting_index=156 config_type=initial n_minim_iter=23 energy=-974.9299104029824 stress="-0.0047506044471018 0.007039401636370231 -0.0010630852421633287 0.00041685095477983784 0.01026936071118036 0.0008067427031781296" pbc="T T T"
Si       4.31728660       1.01887094       1.93701212       0.16501358      -0.58277969       0.01600495
Si       1.98204762      -0.88954499       2.03578659      -0.14650799      -1.08006703       0.52429064
Si       2.24236736       4.25305180       0.14281805       0.26522029      -0.86584078       0.37535874
Si       2.37210489       0.50777222      -0.19072310      -0.21922576       0.68291919      -0.37293756
Si       3.98129152       3.37290798       2.02293468      -0.14288869       1.42511128      -0.13771996
Si       2.02043727       1.49895134       2.04951215       0.07838856       0.42065702      -0.40499681
6
Lattice="4.657047947712884 -0.15780498050987854 -0.46942521542994325 -0.257010699765766 5.984137124436184 0.3977753399699364 -0.5336006815599603 -2.647585012805134 4.333362761655044" Properties=species:S:1:pos:R:3:forces:R:3 unique_starting_index=156 config_type=initial n_minim_iter=24 energy=-975.0201075105915 stress="-0.00432916231840525 0.006179166483003008 -0.0011325149014259277 0.0005528734554889825 0.00963589089047653 0.0014595909276890588" pbc="T T T"
Si       4.31596536       0.99886152       1.89323057       0.15126452      -0.49638851      -0.01430319
Si       1.96164317      -0.89409110       2.02184256      -0.13780093      -1.12542467       0.47322060
Si       2.25542138       4.20699502       0.11686114       0.31087508      -0.81402882       0.35726654
Si       2.38490846       0.50618078      -0.21737507      -0.23402168       0.68427178      -0.29451646
Si       3.97030720       3.35227237       1.98261486      -0.15034320       1.36944845      -0.18669605
Si       2.00345166       1.48695343       2.02771534       0.06002620       0.38212178      -0.33497143
6
Lattice="4.872033230329277 -0.21361535808106288 -0.7854447404984362 -0.34790684352127915 5.701403420715223 0.38277219987356187 -0.9338858739464799 -2.519211261404651 4.443719482218378" Properties=species:S:1:pos:R:3:forces:R:3 unique_starting_index=156 config_type=initial n_minim_iter=25 energy=-975.2923575005564 stress="0.013411448968939702 -0.009215860541565821 -0.006184734636567453 0.005142986553602123 -0.009771603118189138 0.0013510429964847114" pbc="T T T"
Si       4.31123473       0.85958965       1.61622047       0.03522408      -0.00798280      -0.29427498
Si       1.83749292      -0.94136097       1.94116754      -0.08783855      -1.03251555       0.27082713
Si       2.32638425       3.92828085      -0.05465030       0.20991047      -0.56256258       0.02739272
Si       2.46539638       0.48864307      -0.38608783      -0.13185525       0.62023205      -0.01117260
Si       3.88513409       3.21420258       1.72864788       0.09587150       0.69326097      -0.11868789
Si       1.88871886       1.40504322       1.89715663      -0.12131223       0.28956792       0.12591562
6
Lattice="4.620068204861675 -0.2212598647832882 -0.6340040416626914 -0.36035714775473765 5.887899592824254 0.2853426018945377 -0.7140594988676849 -2.6968358543895086 4.5559712586992145" Properties=species:S:1:pos:R:3:forces:R:3 unique_starting_index=156 config_type=initial n_minim_iter=26 energy=-975.3309523421051 stress="-0.007945711281492848 0.0272647339931143 0.014421171451492213 -0.0014861349812883508 0.0023040578433740776 -0.0017999609236193392" pbc="T T T"
Si       4.16781653       0.83745978       1.77877368      -0.27778926       0.07617023      -0.06889330
Si       1.82506290      -1.04712078       2.06822414      -0.04217150      -0.61649835       0.23554726
Si       2.19939770       4.03913066      -0.04525921       0.06197113       0.08167203       0.06452245
Si       2.32539577       0.52140885      -0.31585022      -0.08327464      -0.09140477      -0.03369947
Si       3.74608445       3.28963730       1.84588629       0.12734424       0.60811273      -0.13867645
Si       1.84997413       1.41371850       1.98722523       0.21392002      -0.05805186      -0.05880049
6
Lattice="4.677906476308973 -0.2081267113393836 -0.6452657331260079 -0.33896770272047466 5.646445849386342 0.2883813644989119 -0.7406383997310553 -2.5734773370590927 4.455805900230744" Properties=species:S:1:pos:R:3:forces:R:3 unique_starting_index=156 config_type=initial n_minim_iter=27 energy=-975.374069262563 stress="-0.0259357286409422 -0.022982957207200703 -0.020852919883092413 0.00036274469577905814 -0.00067695152655107 0.0032837850442089646" pbc="T T T"
Si       4.21660572       0.81487747       1.71862935      -0.00987231      -0.08190478      -0.02145743
Si       1.83994764      -1.00204726       2.01312309      -0.03607899      -0.79450734       0.16899466
Si       2.24587007       3.87678421      -0.05062870       0.09031921      -0.61218901       0.00662395
Si       2.35603294       0.50113239      -0.32086633      -0.09307409       0.35042621      -0.02314717
Si       3.80762412       3.17108624       1.78777146       0.16852966       0.80319407      -0.16714256
Si       1.88154749       1.36287029       1.93350695      -0.11982348       0.33498085       0.03612854
6