10
Lattice="8.107272298345052 -1.0429956321717682 -3.712812892685561e-15 -3.958905258140194 7.151417563344511 1.1578583783168459e-15 -2.0741835201024257 -3.0542109655863707 6.806437623334638" Properties=species:S:1:pos:R:3:forces:R:3 unique_starting_index=26 config_type=initial n_minim_iter=1 energy=-1623.5869269300947 stress="0.0002573235805593906 -0.00015573193774769944 2.176921523859877e-12 -0.00015573193774769944 0.00013377119379499075 -1.050463012512801e-12 2.176921523859877e-12 -1.050463012512801e-12 -0.00042939626496363113" free_energy=-1623.5869269300947 pbc="T T T"
Si       1.83908348       5.45738758       1.09325456      -0.45206140       0.13865921       0.05656692
Si       2.30928316       0.65103374       1.09325456       0.45206140      -0.13865921       0.05656692
Si       2.32052817       0.66759189       5.71318307       0.29557783      -0.36907945      -0.05656692
Si      -2.32052858      -0.66759250       5.71318307      -0.29557783       0.36907945      -0.05656692
Si       4.70477279       3.45688613       0.91701297      -0.18570955       0.27581293       0.15006493
Si      -0.55640616       2.65153519       0.91701297       0.18570955      -0.27581293       0.15006492
Si      -0.59567887       2.59370659       5.88942466       0.32485496      -0.07092294      -0.15006492
Si       0.59567846      -2.59370720       5.88942466      -0.32485496       0.07092294      -0.15006493
Si       6.24229799      -2.00786786       3.40321881      -0.95394481       0.64784542      -0.00000000
Si       1.86497390       0.96487162       3.40321881       0.95394481      -0.64784542      -0.00000000
10
Lattice="7.9823881728057176 -0.9651902497467744 -3.5576944447127036e-15 -3.8405336881640615 7.064022519049027 1.0167869224211122e-15 -2.0709272423208227 -3.0494161346511226 6.9723654105674555" Properties=species:S:1:pos:R:3:forces:R:3 unique_starting_index=26 config_type=initial n_minim_iter=2 energy=-1624.0457734355841 stress="-0.01091133223982451 0.016755098195673432 5.675416150338708e-13 0.016755098195673432 0.0023815889127995005 -5.983209279788117e-14 5.675416150338708e-13 -5.983209279788117e-14 0.036797788331299534" free_energy=-1624.0457734355841 pbc="T T T"
Si       1.79194060       5.45315211       1.12877393      -0.12072625       0.24586637       0.28115523
Si       2.34991348       0.64567955       1.12877393       0.12072625      -0.24586637       0.28115523
Si       2.33723047       0.62700396       5.84359149       0.27305719      -0.02156084      -0.28115523
Si      -2.33723088      -0.62700457       5.84359149      -0.27305719       0.02156084      -0.28115523
Si       4.63974846       3.51347543       0.96289349      -0.24900981       0.23629472      -0.53450990
Si      -0.49789438       2.58535623       0.96289349       0.24900981      -0.23629472      -0.53450990
Si      -0.51584430       2.55892518       6.00947192       0.31146213      -0.14433441       0.53450990
Si       0.51584389      -2.55892579       6.00947192      -0.31146213       0.14433441       0.53450990
Si       5.99268540      -1.84185344       3.48618271      -1.06949745       0.72631983       0.00000000
Si       1.98970237       0.87666258       3.48618271       1.06949745      -0.72631983       0.00000000
10
Lattice="7.903595677428515 -1.0071746697962254 -3.117681159468336e-15 -3.850506482487787 6.975301088559926 7.548535793695745e-16 -2.0265445974703575 -2.9840632093818447 6.920969898977951" Properties=species:S:1:pos:R:3:forces:R:3 unique_starting_index=26 config_type=initial n_minim_iter=3 energy=-1624.946105795567 stress="-0.002555574310674657 0.0009533107225909977 1.3700886276080842e-12 0.0009533107225909977 -0.00179925022785088 -1.863581925715334e-12 1.3700886276080842e-12 -1.863581925715334e-12 -0.0005219050019672916" free_energy=-1624.946105795567 pbc="T T T"
Si       1.61223112       5.38787475       1.13727201       0.98502472       0.38514945      -0.14335921
Si       2.44085768       0.58025108       1.13727201      -0.98502472      -0.38514945      -0.14335921
Si       2.38719991       0.50124064       5.78369789      -0.00519889       1.05763263       0.14335922
Si      -2.38720031      -0.50124123       5.78369789       0.00519889      -1.05763263       0.14335921
Si       4.51409890       3.49621113       0.99543759       0.09846769      -0.27638409      -0.52153196
Si      -0.46101011       2.47191469       0.99543759      -0.09846769       0.27638409      -0.52153196
Si      -0.44117855       2.50111643       5.92553231      -0.29321709      -0.01038213       0.52153196
Si       0.44117815      -2.50111703       5.92553231       0.29321709       0.01038213       0.52153196
Si       5.68376103      -1.67980301       3.46048495      -1.47823722       1.00390422      -0.00000000
Si       2.21983425       0.67262775       3.46048495       1.47823722      -1.00390422      -0.00000000
10
Lattice="7.90127378480365 -1.0106977496951606 -3.2158395891663534e-15 -3.852925158576128 6.971843736492903 8.078496868280888e-16 -2.0241743131137553 -2.980572993398866 6.930060324861227" Properties=species:S:1:pos:R:3:forces:R:3 unique_starting_index=26 config_type=initial n_minim_iter=4 energy=-1624.9993833413694 stress="-0.000749836535076008 0.00247563499288093 -2.4158694407515714e-12 0.00247563499288093 0.0012142474926499622 -3.0158758057952634e-13 -2.4158694407515714e-12 -3.0158758057952634e-13 0.004622261001013454" free_energy=-1624.9993833413694 pbc="T T T"
Si       1.59610262       5.38766405       1.14045314       1.18738158       0.31541728      -0.13175836
Si       2.45224561       0.57348134       1.14045314      -1.18738158      -0.31541728      -0.13175836
Si       2.39532142       0.48966114       5.78960719      -0.14463272       1.22001822       0.13175836
Si      -2.39532182      -0.48966174       5.78960719       0.14463272      -1.22001822       0.13175836
Si       4.50485016       3.49918022       1.00058987       0.14805888      -0.33467209      -0.59187439
Si      -0.45650193       2.46196517       1.00058987      -0.14805888       0.33467209      -0.59187439
Si      -0.43263809       2.49710440       5.92947045      -0.36568370       0.01422208       0.59187439
Si       0.43263769      -2.49710500       5.92947045       0.36568370      -0.01422208       0.59187439
Si       5.65037936      -1.65968274       3.46503016      -1.13730068       0.77236653       0.00000000
Si       2.25089402       0.64898439       3.46503016       1.13730068      -0.77236653      -0.00000000
10
Lattice="7.856399432508684 -1.01832701155405 -3.171728439624596e-15 -3.843470265378743 6.927318259235153 8.011431461418761e-16 -2.006464583564964 -2.954495623840546 6.914252591719514" Properties=species:S:1:pos:R:3:forces:R:3 unique_starting_index=26 config_type=initial n_minim_iter=5 energy=-1625.0812502836243 stress="-0.011714376511750182 0.0030697918238120903 5.5973622838086896e-12 0.0030697918238120903 -0.009278908801341192 -1.680362637276297e-13 5.5973622838086896e-12 -1.680362637276297e-13 -0.0004216677863426505" free_energy=-1625.0812502836243 pbc="T T T"
Si       1.57709147       5.35041412       1.13764730       0.99490910       0.38302429       0.10814861
Si       2.43583731       0.55857653       1.13764730      -0.99490910      -0.38302429       0.10814861
Si       2.38541600       0.48433175       5.77660530      -0.01081898       1.06603690      -0.10814861
Si      -2.38541640      -0.48433234       5.77660530       0.01081898      -1.06603690      -0.10814861
Si       4.46868485       3.46767441       0.99646362       0.20459737      -0.32578569      -0.30973575
Si      -0.45575607       2.44131625       0.99646362      -0.20459737       0.32578568      -0.30973575
Si      -0.43087888       2.47794763       5.91778898      -0.37827097       0.07005334       0.30973575
Si       0.43087848      -2.47794822       5.91778898       0.37827097      -0.07005334       0.30973575
Si       5.58799980      -1.63637159       3.45712630      -0.82260004       0.55864623      -0.00000000
Si       2.26839924       0.61804399       3.45712630       0.82260004      -0.55864623       0.00000000
10
Lattice="7.912811391567865 -1.0604899764149849 -3.21747570582857e-15 -3.9034631059320795 6.964208417991949 1.0135181345713214e-15 -2.004674142817887 -2.9518592207884753 6.914967256425743" Properties=species:S:1:pos:R:3:forces:R:3 unique_starting_index=26 config_type=initial n_minim_iter=6 energy=-1625.2117734423064 stress="0.0006343496937278149 -0.0024152620741182485 -3.187429564264481e-12 -0.0024152620741182485 -0.0012818365305872405 4.01609621191151e-12 -3.187429564264481e-12 4.01609621191151e-12 -0.00302088764748498" free_energy=-1625.2117734423064 pbc="T T T"
Si       1.57133319       5.36318947       1.13705108       0.84097732       0.17482678       0.04194790
Si       2.43801470       0.54052838       1.13705108      -0.84097732      -0.17482678       0.04194790
Si       2.40120484       0.48632630       5.77791618      -0.14758665       0.84618286      -0.04194790
Si      -2.40120524      -0.48632689       5.77791618       0.14758665      -0.84618286      -0.04194790
Si       4.48008829       3.45319108       0.99106475       0.16306168      -0.25997325      -0.38296755
Si      -0.47074040       2.45052678       0.99106475      -0.16306168       0.25997325      -0.38296755
Si      -0.44675602       2.48584349       5.92390252      -0.30178043       0.05571151       0.38296755
Si       0.44675562      -2.48584408       5.92390252       0.30178043      -0.05571151       0.38296755
Si       5.60031431      -1.64666082       3.45748363      -0.38836714       0.26374888       0.00000000
Si       2.31249668       0.58617025       3.45748363       0.38836714      -0.26374888      -0.00000000
10
Lattice="7.9376973297013995 -1.034211993788558 -3.248968148858117e-15 -3.888212990318774 6.997030304919449 9.653684918116455e-16 -2.0247421696913075 -2.9814091555654394 6.87542626482211" Properties=species:S:1:pos:R:3:forces:R:3 unique_starting_index=26 config_type=initial n_minim_iter=7 energy=-1625.2933952086998 stress="0.0029734645147116837 0.0029847536961391035 -3.5775430478591337e-13 0.0029847536961391035 0.005341465888587661 1.339616469428575e-13 -3.5775430478591337e-13 1.339616469428575e-13 -0.024151572965612236" free_energy=-1625.2933952086998 pbc="T T T"
Si       1.63527654       5.41595615       1.13003055       0.24080186      -0.00664726      -0.05055621
Si       2.41420740       0.54686156       1.13003055      -0.24080186       0.00664726      -0.05055621
Si       2.40660745       0.53567074       5.74539572      -0.09496999       0.22138298       0.05055621
Si      -2.40660785      -0.53567133       5.74539572       0.09496999      -0.22138298       0.05055621
Si       4.51734544       3.48629494       0.96693291       0.13999509      -0.17977259      -0.02482876
Si      -0.46786150       2.47652277       0.96693291      -0.13999509       0.17977259      -0.02482876
Si      -0.44979068       2.50313185       5.90849336      -0.21872565       0.06384276       0.02482876
Si       0.44979028      -2.50313245       5.90849336       0.21872565      -0.06384276       0.02482876
Si       5.59117875      -1.61886737       3.43771313       0.01248907      -0.00848161      -0.00000000
Si       2.34651818       0.58465478       3.43771313      -0.01248907       0.00848161      -0.00000000
10
Lattice="7.9671018470020645 -1.0921191024571046 -3.0974910061006613e-15 -3.9528820985097135 7.003010716094672 9.855941008019652e-16 -2.0071098742461704 -2.955445806818778 6.935280602579189" Properties=species:S:1:pos:R:3:forces:R:3 unique_starting_index=26 config_type=initial n_minim_iter=8 energy=-1625.3601091340363 stress="0.0015556776255058918 -0.004635698324600483 -1.8650259660759033e-12 -0.004635698324600483 -0.002122126681953272 1.1887474376659473e-12 -1.8650259660759033e-12 1.1887474376659473e-12 -0.012633160830972748" free_energy=-1625.3601091340363 pbc="T T T"
Si       1.62146251       5.38867402       1.13961330      -0.10203957      -0.15626567       0.08754271
Si       2.39275684       0.52221700       1.13961330       0.10203957       0.15626567       0.08754271
Si       2.40397368       0.53873367       5.79566730      -0.10762942      -0.15246947      -0.08754271
Si      -2.40397408      -0.53873426       5.79566730       0.10762942       0.15246947      -0.08754271
Si       4.50712316       3.43139078       0.96262419       0.05303830      -0.11363141      -0.15983191
Si      -0.49290381       2.47950024       0.96262419      -0.05303830       0.11363141      -0.15983191
Si      -0.47942451       2.49934835       5.97265642      -0.12518137       0.00740159       0.15983191
Si       0.47942411      -2.49934894       5.97265642       0.12518137      -0.00740159       0.15983191
Si       5.60865044      -1.64970170       3.46764030       0.15510325      -0.10533411      -0.00000000
Si       2.35845101       0.55758200       3.46764030      -0.15510325       0.10533411       0.00000000
10
Lattice="7.991081572909739 -1.0721309945910056 -3.0941466706862772e-15 -3.9431445000909777 7.0326709738094895 9.767185655985487e-16 -2.0239685364093765 -2.9802699896092357 7.023781125551955" Properties=species:S:1:pos:R:3:forces:R:3 unique_starting_index=26 config_type=initial n_minim_iter=9 energy=-1625.4075971823647 stress="0.005460547693571215 -0.0021571862091852474 -1.7957232314221503e-12 -0.0021571862091852474 0.003749110024782025 1.440104861435396e-12 -1.7957232314221503e-12 1.440104861435396e-12 0.008111962815583677" free_energy=-1625.4075971823647 pbc="T T T"
Si       1.66054861       5.41791277       1.15631188      -0.12528649      -0.14950993       0.03889321
Si       2.38738806       0.54262662       1.15631188       0.12528649       0.14950993       0.03889321
Si       2.39988123       0.56102266       5.86746925      -0.09277786      -0.17158727      -0.03889321
Si      -2.39988163      -0.56102326       5.86746925       0.09277786       0.17158728      -0.03889321
Si       4.54165065       3.45441622       0.95743487      -0.03451956      -0.00184053      -0.48229067
Si      -0.49371398       2.50612316       0.95743487       0.03451956       0.00184053      -0.48229067
Si      -0.48761155       2.51510891       6.06634626       0.01101760      -0.03276584       0.48229067
Si       0.48761115      -2.51510951       6.06634626      -0.01101760       0.03276584       0.48229067
Si       5.66030043      -1.66664173       3.51189057      -0.15861178       0.10771683       0.00000000
Si       2.33078074       0.59451014       3.51189057       0.15861178      -0.10771683      -0.00000000
10
Lattice="7.966589845326587 -1.057446490424763 -3.104514005877165e-15 -3.9204638622562085 7.015319661178343 9.92109745869056e-16 -2.0230629915351854 -2.9789365853767826 7.009097868820595" Properties=species:S:1:pos:R:3:forces:R:3 unique_starting_index=26 config_type=initial n_minim_iter=10 energy=-1625.4236781333077 stress="-0.0007943245948405143 0.001303149505243951 6.240831765071005e-13 0.001303149505243951 0.00023954959800556621 -4.052404910616241e-13 6.240831765071005e-13 -4.052404910616241e-13 0.0016094243174162315" free_energy=-1625.4236781333077 pbc="T T T"
Si       1.65997430       5.41247778       1.15562510      -0.12905220      -0.09781193       0.04645427
Si       2.38615129       0.54539480       1.15562510       0.12905220       0.09781193       0.04645427
Si       2.39594653       0.55981818       5.85347277      -0.04333417      -0.15602498      -0.04645427
Si      -2.39594693      -0.55981877       5.85347277       0.04333417       0.15602498      -0.04645427
Si       4.53310402       3.45814502       0.95254575       0.01835033      -0.04693742      -0.29709144
Si      -0.48697844       2.49972756       0.95254575      -0.01835033       0.04693742      -0.29709144
Si      -0.48008855       2.50987284       6.05655212      -0.05039637      -0.00024999       0.29709144
Si       0.48008815      -2.50987343       6.05655212       0.05039637       0.00024999       0.29709144
Si       5.63186733      -1.64830637       3.50454894       0.02645280      -0.01796469      -0.00000000
Si       2.33472211       0.59085928       3.50454894      -0.02645280       0.01796469      -0.00000000
10
Lattice="7.966930627254745 -1.0557488660942862 -3.0421342092766225e-15 -3.9190115160023677 7.0162623971164155 1.0215141521185348e-15 -2.023959555626185 -2.980256765511058 7.027833043566551" Properties=species:S:1:pos:R:3:forces:R:3 unique_starting_index=26 config_type=initial n_minim_iter=11 energy=-1625.4385494568637 stress="-0.003024229552549046 0.002093727405500295 -1.2414598148780913e-12 0.002093727405500295 -0.00136313792557246 9.768925773769558e-13 -1.2414598148780913e-12 9.768925773769558e-13 -0.001627854063398106" free_energy=-1625.4385494568637 pbc="T T T"
Si       1.66366083       5.40836004       1.16214893      -0.14741954      -0.00679845       0.07730749
Si       2.38425788       0.55215290       1.16214893       0.14741954       0.00679845       0.07730749
Si       2.38986303       0.56040642       5.86568412       0.04803876      -0.13953859      -0.07730749
Si      -2.38986343      -0.56040702       5.86568412      -0.04803876       0.13953859      -0.07730749
Si       4.53797701       3.45298967       0.93101069       0.02323615      -0.02821370       0.04750475
Si      -0.49005830       2.50752326       0.93101069      -0.02323615       0.02821370       0.04750475
Si      -0.48757402       2.51118134       6.09682236      -0.03479354       0.01119557      -0.04750475
Si       0.48757362      -2.51118194       6.09682236       0.03479354      -0.01119557      -0.04750475
Si       5.63550086      -1.64980945       3.51391652       0.01818009      -0.01234651       0.00000000
Si       2.33142936       0.59405999       3.51391652      -0.01818009       0.01234651       0.00000000
10
Lattice="7.973188739239379 -1.064852294451783 -2.9128034053852202e-15 -3.92978104178779 7.018722821435399 8.608273635016116e-16 -2.021703848725791 -2.976935263491802 7.029921803501146" Properties=species:S:1:pos:R:3:forces:R:3 unique_starting_index=26 config_type=initial n_minim_iter=12 energy=-1625.442377548423 stress="-0.0009018902235919897 0.0004468254051789005 9.244064687104307e-13 0.0004468254051789005 -0.0005473942480962335 -5.512416237709436e-13 9.244064687104307e-13 -5.512416237709436e-13 -0.001065601319627842" free_energy=-1625.442377548423 pbc="T T T"
Si       1.65284192       5.40374487       1.16357206      -0.04979065       0.01150003       0.04252567
Si       2.39056538       0.55012506       1.16357206       0.04979065      -0.01150003       0.04252567
Si       2.39181805       0.55196960       5.86634975       0.02904905      -0.04204179      -0.04252567
Si      -2.39181845      -0.55197019       5.86634975      -0.02904905       0.04204179      -0.04252567
Si       4.53617107       3.44742748       0.93147932       0.02177026      -0.03337235       0.02235734
Si      -0.49276377       2.50644246       0.93147932      -0.02177026       0.03337235       0.02235734
Si      -0.48982266       2.51077320       6.09844248      -0.03904817       0.00793082      -0.02235734
Si       0.48982227      -2.51077380       6.09844248       0.03904817      -0.00793082      -0.02235734
Si       5.64007115      -1.65533994       3.51496090      -0.00368258       0.00250092      -0.00000000
Si       2.33311719       0.59048705       3.51496090       0.00368258      -0.00250092      -0.00000000
10
Lattice="7.975873697371656 -1.0678854967170135 -2.8373689152210424e-15 -3.933590540328512 7.020100151106219 7.019734919306221e-16 -2.021141578521569 -2.9761073271945984 7.034596603081055" Properties=species:S:1:pos:R:3:forces:R:3 unique_starting_index=26 config_type=initial n_minim_iter=13 energy=-1625.4429870226359 stress="0.00012017771251557598 -3.506305446245575e-05 2.498025649878657e-12 -3.506305446245575e-05 9.235988576642894e-05 -1.7851347083196043e-12 2.498025649878657e-12 -1.7851347083196043e-12 0.00014781455230114505" free_energy=-1625.4429870226359 pbc="T T T"
Si       1.64898583       5.40267188       1.16553881      -0.00841242       0.01688621       0.01745687
Si       2.39329693       0.54954218       1.16553881       0.00841242      -0.01688621       0.01745687
Si       2.39280480       0.54881751       5.86905780       0.01879826      -0.00159317      -0.01745687
Si      -2.39280519      -0.54881811       5.86905780      -0.01879827       0.00159318      -0.01745687
Si       4.53630580       3.44523062       0.93117410       0.01633577      -0.02908435       0.00776083
Si      -0.49402304       2.50698344       0.93117410      -0.01633577       0.02908435       0.00776083
Si      -0.49135213       2.51091632       6.10342251      -0.03305846       0.00446038      -0.00776083
Si       0.49135173      -2.51091692       6.10342251       0.03305846      -0.00446038      -0.00776083
Si       5.64151813      -1.65692751       3.51729830      -0.00445120       0.00302291      -0.00000000
Si       2.33435517       0.58904142       3.51729830       0.00445121      -0.00302291       0.00000000
10
Lattice="7.974664197472899 -1.0687940600999053 -2.662310402891364e-15 -3.9339891026272085 7.018640861717549 6.793516211207019e-16 -2.020337547422844 -2.974923400808817 7.034411076091502" Properties=species:S:1:pos:R:3:forces:R:3 unique_starting_index=26 config_type=initial n_minim_iter=14 energy=-1625.4431877125019 stress="0.0001983796458839168 -0.00023213136950415333 1.5836790763415515e-12 -0.00023213136950415333 1.4214566323041005e-05 -1.0006214879997436e-12 1.5836790763415515e-12 -1.0006214879997436e-12 -1.0266794489236204e-06" free_energy=-1625.4431877125019 pbc="T T T"
Si       1.64641984       5.40147391       1.16677034       0.00818334       0.01132852      -0.01197355
Si       2.39425485       0.54837230       1.16677034      -0.00818334      -0.01132852      -0.01197355
Si       2.39344142       0.54717453       5.86764074       0.00751282       0.01178389       0.01197355
Si      -2.39344182      -0.54717513       5.86764074      -0.00751282      -0.01178388       0.01197355
Si       4.53568850       3.44229512       0.93134804       0.00354564      -0.01600394      -0.00286165
Si      -0.49501380       2.50755109       0.93134804      -0.00354564       0.01600394      -0.00286165
Si      -0.49304914       2.51044404       6.10306304      -0.01618363      -0.00260535       0.00286165
Si       0.49304874      -2.51044463       6.10306304       0.01618363       0.00260535       0.00286165
Si       5.63994987      -1.65672745       3.51720554      -0.00251587       0.00170858      -0.00000000
Si       2.33471393       0.58793279       3.51720554       0.00251587      -0.00170858       0.00000000
10
Lattice="7.974169199690305 -1.0678390544648857 -2.422896052624897e-15 -3.932918869333484 7.01853288364246 8.067557292301519e-16 -2.0206251651784064 -2.9753469145887816 7.034606197576375" Properties=species:S:1:pos:R:3:forces:R:3 unique_starting_index=26 config_type=initial n_minim_iter=15 energy=-1625.4432579164277 stress="8.642698446467432e-05 -7.136744609576891e-05 1.3076618817808678e-12 -7.136744609576891e-05 2.980649660855193e-05 -8.982367574302131e-13 1.3076618817808678e-12 -8.982367574302131e-13 2.00137432651171e-05" free_energy=-1625.4432579164277 pbc="T T T"
Si       1.64748895       5.40229412       1.16684485       0.00002895       0.00556261      -0.01188570
Si       2.39376099       0.54839911       1.16684485      -0.00002895      -0.00556261      -0.01188571
Si       2.39352201       0.54804723       5.86776135       0.00515997       0.00207802       0.01188571
Si      -2.39352241      -0.54804782       5.86776135      -0.00515997      -0.00207802       0.01188570
Si       4.53625035       3.44237543       0.93113981      -0.00110307      -0.00960322      -0.00102503
Si      -0.49500042       2.50831780       0.93113981       0.00110307       0.00960322      -0.00102503
Si      -0.49346927       2.51057240       6.10346639      -0.00851980      -0.00456635       0.00102503
Si       0.49346887      -2.51057299       6.10346639       0.00851980       0.00456635       0.00102503
Si       5.63954990      -1.65614640       3.51730310      -0.00063342       0.00043017       0.00000000
Si       2.33461890       0.58830675       3.51730310       0.00063342      -0.00043017       0.00000000
10
Lattice="7.973704297914525 -1.0672356976013309 -2.3701872262448948e-15 -3.932186603607744 7.018323217067088 9.326651164406499e-16 -2.0207588471533864 -2.975543759732873 7.0343246272360656" Properties=species:S:1:pos:R:3:forces:R:3 unique_starting_index=26 config_type=initial n_minim_iter=16 energy=-1625.4432824355788 stress="-2.1557729132708475e-05 1.9133221361079465e-05 3.8042457522427484e-12 1.9133221361079465e-05 -6.378086499459875e-06 -2.547221441197661e-12 3.8042457522427484e-12 -2.547221441197661e-12 -3.0578339141679506e-05" free_energy=-1625.4432824355788 pbc="T T T"
Si       1.64798461       5.40277544       1.16662621      -0.00378350       0.00100626      -0.00771421
Si       2.39353269       0.54831148       1.16662621       0.00378350      -0.00100626      -0.00771421
Si       2.39365297       0.54848860       5.86769843       0.00233045      -0.00314586       0.00771421
Si      -2.39365337      -0.54848919       5.86769843      -0.00233045       0.00314586       0.00771421
Si       4.53645319       3.44225774       0.93111510      -0.00389327      -0.00492989      -0.00014989
Si      -0.49493590       2.50882919       0.93111510       0.00389327       0.00492989      -0.00014989
Si      -0.49378715       2.51052071       6.10320953      -0.00314695      -0.00543674       0.00014989
Si       0.49378675      -2.51052130       6.10320953       0.00314695       0.00543674       0.00014989
Si       5.63921851      -1.65577753       3.51716232      -0.00036505       0.00024791       0.00000000
Si       2.33448539       0.58854124       3.51716232       0.00036505      -0.00024791       0.00000000
