6
Lattice="5.528389213560527 -1.9938005187357468e-59 1.6384730324306926e-46 1.993152149524966e-59 5.528389213560526 2.1876694216706324e-16 -2.518757803666177e-46 -3.3630150259478636e-16 8.498567384232192" Properties=species:S:1:pos:R:3:forces:R:3 unique_starting_index=46 config_type=initial n_minim_iter=1 energy=-970.530964324669 stress="-0.0005697625515557124 -5.876330733432097e-12 2.3819011928178392e-12 -5.876330733432097e-12 -0.0005697625515556714 -4.983114373506913e-13 2.3819011928178392e-12 -4.983114373506913e-13 0.0020610575850833848" free_energy=-970.530964324669 pbc="T T T"
Si       4.26920183       1.25918738       6.67034160       0.02399803      -0.02399803       0.25843117
Si       1.25918738       4.26920183       6.67034160      -0.02399803       0.02399803       0.25843117
Si       4.26920183       4.26920183       1.82822579       0.02399803       0.02399803      -0.25843117
Si       1.25918738       1.25918738       1.82822579      -0.02399803      -0.02399803      -0.25843117
Si       2.76419461       2.76419461       7.39667580       0.00000000      -0.00000000      -0.61464210
Si       2.76419461       2.76419461       1.10189159      -0.00000000       0.00000000       0.61464210
6
Lattice="5.540089502375677 -1.6378829656165038e-59 1.6606712262572282e-46 1.637064664745078e-59 5.540089502375676 2.314770140898428e-16 -2.4707747087963334e-46 -3.1491242804266953e-16 8.433820165494291" Properties=species:S:1:pos:R:3:forces:R:3 unique_starting_index=46 config_type=initial n_minim_iter=2 energy=-970.5450473366093 stress="-0.0020658328043152846 7.341964778526902e-13 -9.021714266088897e-13 7.341964778526902e-13 -0.0020658328043152816 -3.724314303619823e-12 -9.021714266088897e-13 -3.724314303619823e-12 -0.002837496234444129" free_energy=-970.5450473366093 pbc="T T T"
Si       4.27858073       1.26150877       6.62318665       0.06847623      -0.06847623       0.08421601
Si       1.26150877       4.27858073       6.62318665      -0.06847623       0.06847623       0.08421601
Si       4.27858073       4.27858073       1.81063351       0.06847623       0.06847623      -0.08421601
Si       1.26150877       1.26150877       1.81063351      -0.06847623      -0.06847623      -0.08421601
Si       2.77004475       2.77004475       7.33160975      -0.00000000       0.00000000      -0.60988339
Si       2.77004475       2.77004475       1.10221042      -0.00000000      -0.00000000       0.60988339
6
Lattice="5.5888859614912985 -1.5623758092518469e-59 1.7026215469879406e-46 1.8035000092411396e-59 5.5888859614912985 1.7993135729227224e-16 -2.417612683464712e-46 -3.9490613618859753e-16 8.396388871282959" Properties=species:S:1:pos:R:3:forces:R:3 unique_starting_index=46 config_type=initial n_minim_iter=3 energy=-970.5616675127085 stress="0.005867386705456942 2.2301577821649716e-12 1.4554282844185353e-12 2.2301577821649716e-12 0.00586738670545698 -3.1570612327619893e-13 1.4554282844185353e-12 -3.1570612327619893e-13 0.00010555529650443217" free_energy=-970.5616675127085 pbc="T T T"
Si       4.31751663       1.27136934       6.60033649       0.19096560      -0.19096560       0.16728513
Si       1.27136934       4.31751663       6.60033649      -0.19096560       0.19096560       0.16728513
Si       4.31751663       4.31751663       1.79605238       0.19096560       0.19096560      -0.16728513
Si       1.27136934       1.27136934       1.79605238      -0.19096560      -0.19096560      -0.16728513
Si       2.79444298       2.79444298       7.27939991      -0.00000000       0.00000000      -0.52557718
Si       2.79444298       2.79444298       1.11698896       0.00000000       0.00000000       0.52557718
6
Lattice="5.593206928709468 -1.6083360582953817e-59 1.7181198105660475e-46 1.850291495968871e-59 5.593206928709468 1.4889726270384318e-16 -2.390530588569203e-46 -4.424334982380594e-16 8.37909315697085" Properties=species:S:1:pos:R:3:forces:R:3 unique_starting_index=46 config_type=initial n_minim_iter=4 energy=-970.593150956026 stress="-0.0013098643029801947 -7.4422619962946e-12 1.0653860295988341e-12 -7.4422619962946e-12 -0.0013098643029801687 9.893607070180795e-13 1.0653860295988341e-12 9.893607070180795e-13 -0.0022408934186202824" free_energy=-970.593150956026 pbc="T T T"
Si       4.32530256       1.26790437       6.59899125       0.29024042      -0.29024042      -0.06040539
Si       1.26790437       4.32530256       6.59899125      -0.29024042       0.29024042      -0.06040539
Si       4.32530256       4.32530256       1.78010190       0.29024042       0.29024042       0.06040539
Si       1.26790437       1.26790437       1.78010190      -0.29024042      -0.29024042       0.06040539
Si       2.79660346       2.79660346       7.22496741      -0.00000000      -0.00000000      -0.06814561
Si       2.79660346       2.79660346       1.15412575       0.00000000       0.00000000       0.06814561
6
Lattice="5.680460033699957 -3.8334387780608423e-60 1.793286247420702e-46 -3.0439596887472142e-59 5.680460033699957 2.343350298376406e-16 -2.300820832098966e-46 -3.1615533947737363e-16 8.337050328784677" Properties=species:S:1:pos:R:3:forces:R:3 unique_starting_index=46 config_type=initial n_minim_iter=5 energy=-970.6467077699111 stress="0.0028063894755289863 -5.716513417009181e-12 -4.074518016904229e-13 -5.716513417009181e-12 0.002806389475529053 1.8076700327491717e-12 -4.074518016904229e-13 1.8076700327491717e-12 0.0022063764259296556" free_energy=-970.6467077699111 pbc="T T T"
Si       4.42435944       1.25610059       6.59853057      -0.01635987       0.01635987       0.10219212
Si       1.25610059       4.42435944       6.59853057       0.01635987      -0.01635987       0.10219212
Si       4.42435944       4.42435944       1.73851976      -0.01635987      -0.01635987      -0.10219212
Si       1.25610059       1.25610059       1.73851976       0.01635987       0.01635987      -0.10219212
Si       2.84023002       2.84023002       7.08328772       0.00000000      -0.00000000      -0.04669931
Si       2.84023002       2.84023002       1.25376261       0.00000000       0.00000000       0.04669931
6
Lattice="5.677735941918465 -2.0362415876161655e-60 1.819985985099351e-46 -3.2233600881432473e-59 5.677735941918464 2.9938671937956447e-16 -2.254400535421298e-46 -2.1538088448310254e-16 8.323572349633153" Properties=species:S:1:pos:R:3:forces:R:3 unique_starting_index=46 config_type=initial n_minim_iter=6 energy=-970.6485050648945 stress="0.00038994348929491607 -6.4187584592989305e-12 -1.4050847216011124e-12 -6.4187584592989305e-12 0.00038994348929498475 5.594007051134868e-13 -1.4050847216011124e-12 5.594007051134868e-13 0.0005444563782950625" free_energy=-970.6485050648945 pbc="T T T"
Si       4.42335348       1.25438247       6.58987022      -0.02737158       0.02737158       0.03268476
Si       1.25438247       4.42335348       6.58987022       0.02737158      -0.02737158       0.03268476
Si       4.42335348       4.42335348       1.73370213      -0.02737158      -0.02737158      -0.03268476
Si       1.25438247       1.25438247       1.73370213       0.02737158       0.02737158      -0.03268476
Si       2.83886797       2.83886797       7.06614010       0.00000000      -0.00000000      -0.03203817
Si       2.83886797       2.83886797       1.25743225       0.00000000       0.00000000       0.03203817
6
Lattice="5.683159768931015 -1.1316964933842117e-60 1.851587088082169e-46 -3.585614489804887e-59 5.683159768931014 1.691649705875694e-16 -2.2037785797150693e-46 -4.149031805855548e-16 8.309802679164568" Properties=species:S:1:pos:R:3:forces:R:3 unique_starting_index=46 config_type=initial n_minim_iter=7 energy=-970.6490167015178 stress="-7.925318850552106e-05 -6.529354250053088e-12 -5.089522472282388e-13 -6.529354250053088e-12 -7.925318850548963e-05 4.711123316904289e-13 -5.089522472282388e-13 4.711123316904289e-13 -3.8747579071172225e-05" free_energy=-970.6490167015178 pbc="T T T"
Si       4.42895487       1.25420489       6.58196210      -0.04972158       0.04972158       0.01268707
Si       1.25420489       4.42895487       6.58196210       0.04972158      -0.04972158       0.01268707
Si       4.42895487       4.42895487       1.72784058      -0.04972158      -0.04972158      -0.01268707
Si       1.25420489       1.25420489       1.72784058       0.04972158       0.04972158      -0.01268707
Si       2.84157988       2.84157988       7.04549943       0.00000000       0.00000000      -0.03878994
Si       2.84157988       2.84157988       1.26430325      -0.00000000      -0.00000000       0.03878994
6
Lattice="5.817089727870787 3.159372745930695e-58 2.4199186593168225e-46 1.3726890532408978e-58 5.817089727870784 -4.1226527570218314e-16 -1.2625285358145509e-46 -1.3263402231004128e-15 7.96507681724475" Properties=species:S:1:pos:R:3:forces:R:3 unique_starting_index=46 config_type=initial n_minim_iter=8 energy=-970.6951844734662 stress="-0.0044836959467578355 -4.3958991098123825e-12 1.2461954344939149e-12 -4.3958991098123825e-12 -0.004483695946757983 1.4000169044117564e-12 1.2461954344939149e-12 1.4000169044117564e-12 0.005932342350794838" free_energy=-970.6951844734662 pbc="T T T"
Si       4.53985686       1.27723286       6.38212811      -0.53325650       0.53325650       0.11800350
Si       1.27723286       4.53985686       6.38212811       0.53325650      -0.53325650       0.11800350
Si       4.53985686       4.53985686       1.58294871      -0.53325650      -0.53325650      -0.11800350
Si       1.27723286       1.27723286       1.58294871       0.53325650       0.53325650      -0.11800350
Si       2.90854486       2.90854486       6.53708455       0.00000000      -0.00000000       0.29823327
Si       2.90854486       2.90854486       1.42799227      -0.00000000      -0.00000000      -0.29823326
6
Lattice="5.822045388535307 3.1621679901666544e-58 2.5922791461686784e-46 1.3737567074970555e-58 5.8220453885353045 -7.269397548363487e-18 -9.945258387724444e-47 -7.088829764929951e-16 7.952037437756004" Properties=species:S:1:pos:R:3:forces:R:3 unique_starting_index=46 config_type=initial n_minim_iter=9 energy=-970.6956009362374 stress="-0.004040494552654537 -2.0401025550555304e-12 1.665376364524924e-12 -2.0401025550555304e-12 -0.004040494552654635 3.7284070625962744e-13 1.665376364524924e-12 3.7284070625962744e-13 0.006727412902474984" free_energy=-970.6956009362374 pbc="T T T"
Si       4.54384714       1.27819825       6.37434596      -0.57033276       0.57033276       0.12645689
Si       1.27819825       4.54384714       6.37434596       0.57033276      -0.57033276       0.12645689
Si       4.54384714       4.54384714       1.57769148      -0.57033276      -0.57033276      -0.12645689
Si       1.27819825       1.27819825       1.57769148       0.57033276       0.57033276      -0.12645689
Si       2.91102269       2.91102269       6.51856037       0.00000000      -0.00000000       0.35413669
Si       2.91102269       2.91102269       1.43347707       0.00000000       0.00000000      -0.35413669
6
Lattice="5.867610376500048 2.1629523898028744e-57 2.789804115483739e-46 1.3844612109805e-58 5.867610376500043 9.02959094060279e-17 -5.788381551009805e-47 -5.684573451069831e-16 7.709382848340475" Properties=species:S:1:pos:R:3:forces:R:3 unique_starting_index=46 config_type=initial n_minim_iter=10 energy=-970.7668326965868 stress="-0.0035148604114679867 6.222203627609238e-12 -8.928237812878043e-14 6.222203627609238e-12 -0.0035148604114681368 3.705546919281189e-12 -8.928237812878043e-14 3.705546919281189e-12 0.01218914525658699" free_energy=-970.7668326965868 pbc="T T T"
Si       4.56295899       1.30465138       6.21480036      -0.64001923       0.64001923       0.17591869
Si       1.30465138       4.56295899       6.21480036       0.64001923      -0.64001923       0.17591869
Si       4.56295899       4.56295899       1.49458249      -0.64001923      -0.64001923      -0.17591869
Si       1.30465138       1.30465138       1.49458249       0.64001923       0.64001923      -0.17591869
Si       2.93380519       2.93380519       6.22199789      -0.00000000       0.00000000       1.17301424
Si       2.93380519       2.93380519       1.48738496      -0.00000000      -0.00000000      -1.17301424
6
Lattice="5.896144220509039 1.7124031576414447e-57 2.8507900822416146e-46 1.0612506215224625e-57 5.896144220509034 3.00673680231891e-17 -3.8397241929278467e-47 -6.593022142487902e-16 7.5147587435900824" Properties=species:S:1:pos:R:3:forces:R:3 unique_starting_index=46 config_type=initial n_minim_iter=11 energy=-970.8760305145641 stress="-0.0029190807650759576 1.590298455007616e-12 -1.6721823894250657e-13 1.590298455007616e-12 -0.0029190807650759623 8.88720386918129e-13 -1.6721823894250657e-13 8.88720386918129e-13 0.00725346755896057" free_energy=-970.8760305145641 pbc="T T T"
Si       4.56092786       1.33521636       6.07192619      -0.26722151       0.26722151       0.29361836
Si       1.33521636       4.56092786       6.07192619       0.26722151      -0.26722151       0.29361836
Si       4.56092786       4.56092786       1.44283256      -0.26722151      -0.26722151      -0.29361836
Si       1.33521636       1.33521636       1.44283256       0.26722151       0.26722151      -0.29361836
Si       2.94807211       2.94807211       6.03698657      -0.00000000      -0.00000000       1.17863303
Si       2.94807211       2.94807211       1.47777218      -0.00000000       0.00000000      -1.17863303
6
Lattice="5.895921356690989 1.7123614712187597e-57 2.929599959578805e-46 1.068406664783439e-57 5.895921356690986 5.65988716037929e-16 -2.6230206403025333e-47 1.6456935312514051e-16 7.513878092605843" Properties=species:S:1:pos:R:3:forces:R:3 unique_starting_index=46 config_type=initial n_minim_iter=12 energy=-970.9344304312027 stress="-0.005492079640701933 -7.545758095279962e-12 5.137178884322757e-13 -7.545758095279962e-12 -0.005492079640701819 -5.138196653211829e-13 5.137178884322757e-13 -5.138196653211829e-13 0.004054936755922175" free_energy=-970.9344304312027 pbc="T T T"
Si       4.55311909       1.34280227       6.06379791       0.03148787      -0.03148787       0.46097793
Si       1.34280227       4.55311909       6.06379791      -0.03148787       0.03148787       0.46097793
Si       4.55311909       4.55311909       1.45008018       0.03148787       0.03148787      -0.46097793
Si       1.34280227       1.34280227       1.45008018      -0.03148787      -0.03148787      -0.46097793
Si       2.94796068       2.94796068       6.07164448       0.00000000       0.00000000       0.54816436
Si       2.94796068       2.94796068       1.44223361       0.00000000      -0.00000000      -0.54816436
6
Lattice="5.949883707018746 1.7280496785531612e-57 2.9477239332528395e-46 1.0781820989849777e-57 5.949883707018742 8.814913946641115e-16 -1.580654433926068e-47 6.656202267287719e-16 7.378963911740248" Properties=species:S:1:pos:R:3:forces:R:3 unique_starting_index=46 config_type=initial n_minim_iter=13 energy=-970.9565876512374 stress="0.00538915545112784 2.3620764793361823e-13 -3.754478358197913e-12 2.3620764793361823e-13 0.005389155451128612 3.981526973211188e-12 -3.754478358197913e-12 3.981526973211188e-12 -0.0035812417456992157" free_energy=-970.9565876512374 pbc="T T T"
Si       4.58592213       1.36396158       5.96566373       0.12437349      -0.12437349       0.48639102
Si       1.36396158       4.58592213       5.96566373      -0.12437349       0.12437349       0.48639102
Si       4.58592213       4.58592213       1.41330018       0.12437349       0.12437349      -0.48639102
Si       1.36396158       1.36396158       1.41330018      -0.12437349      -0.12437349      -0.48639102
Si       2.97494185       2.97494185       5.96777050      -0.00000000       0.00000000       0.27412607
Si       2.97494185       2.97494185       1.41119341      -0.00000000       0.00000000      -0.27412607
6
Lattice="5.935839236041312 1.7239880599597647e-57 3.0122740669520826e-46 1.0756360146324494e-57 5.935839236041311 1.2042202577151236e-15 -1.0380745894214628e-47 1.1461556907447463e-15 7.453858701399706" Properties=species:S:1:pos:R:3:forces:R:3 unique_starting_index=46 config_type=initial n_minim_iter=14 energy=-970.9772177578599 stress="0.0028999606121128687 8.650715616628838e-12 -7.065742473555122e-13 8.650715616628838e-12 0.0028999606121139407 -9.397644548386142e-13 -7.065742473555122e-13 -9.397644548386142e-13 -0.0003203517908762148" free_energy=-970.9772177578599 pbc="T T T"
Si       4.57966888       1.35617036       6.02587203       0.09557976      -0.09557976       0.53453077
Si       1.35617036       4.57966888       6.02587203      -0.09557976       0.09557976       0.53453077
Si       4.57966888       4.57966888       1.42798667       0.09557976       0.09557976      -0.53453077
Si       1.35617036       1.35617036       1.42798667      -0.09557976      -0.09557976      -0.53453077
Si       2.96791962       2.96791962       6.04481604       0.00000000       0.00000000       0.11974791
Si       2.96791962       2.96791962       1.40904267       0.00000000       0.00000000      -0.11974791
6
Lattice="5.892093334262982 1.667980686915724e-57 3.129311601380279e-46 1.118029633241468e-57 5.892093334262983 1.1745927882191074e-15 -6.33896765154565e-48 1.0354144630038368e-15 7.680366996756099" Properties=species:S:1:pos:R:3:forces:R:3 unique_starting_index=46 config_type=initial n_minim_iter=15 energy=-971.0416763193749 stress="-0.00670177200348182 -7.76597737385078e-12 -1.9185497974708735e-12 -7.76597737385078e-12 -0.006701772003480185 -6.623939243752972e-13 -1.9185497974708735e-12 -6.623939243752972e-13 0.009146622008878058" free_energy=-971.0416763193749 pbc="T T T"
Si       4.55193665       1.34015668       6.26026795      -0.03167960       0.03167960       0.49752105
Si       1.34015668       4.55193665       6.26026795       0.03167960      -0.03167960       0.49752105
Si       4.55193665       4.55193665       1.42009905      -0.03167960      -0.03167960      -0.49752105
Si       1.34015668       1.34015668       1.42009905       0.03167960       0.03167960      -0.49752105
Si       2.94604667       2.94604667       6.25750474      -0.00000000      -0.00000000      -0.03807223
Si       2.94604667       2.94604667       1.42286225       0.00000000       0.00000000       0.03807223
6
Lattice="5.902065808400545 1.5843671290686648e-57 3.154708901980802e-46 1.1775546397481351e-57 5.902065808400544 1.3999987176686028e-15 -4.099642122952528e-48 1.3773535685924074e-15 7.706804402653171" Properties=species:S:1:pos:R:3:forces:R:3 unique_starting_index=46 config_type=initial n_minim_iter=16 energy=-971.1529959359028 stress="-0.006939802218437548 2.8885375920107544e-12 -1.8152507483348858e-12 2.8885375920107544e-12 -0.006939802218436186 7.798181666750798e-13 -1.8152507483348858e-12 7.798181666750798e-13 0.0037444690402891174" free_energy=-971.1529959359028 pbc="T T T"
Si       4.55097324       1.35109257       6.35361286      -0.02357048       0.02357048       0.20262877
Si       1.35109257       4.55097324       6.35361286       0.02357048      -0.02357048       0.20262877
Si       4.55097324       4.55097324       1.35319154      -0.02357048      -0.02357048      -0.20262877
Si       1.35109257       1.35109257       1.35319154       0.02357048       0.02357048      -0.20262877
Si       2.95103290       2.95103290       6.28264432       0.00000000       0.00000000       0.01723637
Si       2.95103290       2.95103290       1.42416008       0.00000000      -0.00000000      -0.01723637
6
Lattice="5.92418134069746 1.5920684134699914e-57 3.159759818450935e-46 1.1783657405429525e-57 5.92418134069746 8.088860282244741e-16 -3.1410267556476765e-48 4.74050220444385e-16 7.703596428512108" Properties=species:S:1:pos:R:3:forces:R:3 unique_starting_index=46 config_type=initial n_minim_iter=17 energy=-971.1722688645956 stress="-0.002829675998873958 -1.6118242480492366e-12 -8.089984017944604e-13 -1.6118242480492366e-12 -0.002829675998872684 3.708177302153368e-15 -8.089984017944604e-13 3.708177302153368e-15 -0.002568418610664613" free_energy=-971.1722688645956 pbc="T T T"
Si       4.56344827       1.36073307       6.38681053       0.02394473      -0.02394473      -0.07938268
Si       1.36073307       4.56344827       6.38681053      -0.02394473       0.02394473      -0.07938268
Si       4.56344827       4.56344827       1.31678590       0.02394473       0.02394473       0.07938268
Si       1.36073307       1.36073307       1.31678590      -0.02394473      -0.02394473       0.07938268
Si       2.96209067       2.96209067       6.28737507      -0.00000000       0.00000000      -0.10294941
Si       2.96209067       2.96209067       1.41622136       0.00000000      -0.00000000       0.10294941
6
Lattice="5.931144821179104 1.592128381653859e-57 3.1603101070829907e-46 1.1797512037581407e-57 5.931144821179104 6.389935115985065e-16 -2.3844842248620945e-48 2.1462530142539406e-16 7.69284791615111" Properties=species:S:1:pos:R:3:forces:R:3 unique_starting_index=46 config_type=initial n_minim_iter=18 energy=-971.1747315143293 stress="-0.0003832993015380331 2.600981449065602e-12 2.658426825953382e-12 2.600981449065602e-12 -0.0003832993015364652 1.0689119031597556e-12 2.658426825953382e-12 1.0689119031597556e-12 -0.0008791836989713463" free_energy=-971.1747315143293 pbc="T T T"
Si       4.57071698       1.36042784       6.36757640      -0.03569126       0.03569126      -0.00232577
Si       1.36042784       4.57071698       6.36757640       0.03569126      -0.03569126      -0.00232577
Si       4.57071698       4.57071698       1.32527152      -0.03569126      -0.03569126       0.00232577
Si       1.36042784       1.36042784       1.32527152       0.03569126       0.03569126       0.00232577
Si       2.96557241       2.96557241       6.27484881      -0.00000000      -0.00000000      -0.03211152
Si       2.96557241       2.96557241       1.41799910      -0.00000000      -0.00000000       0.03211152
6
Lattice="5.931275413391699 1.594415158392581e-57 3.1658657364022043e-46 1.1761750065720826e-57 5.931275413391699 6.484156456809371e-16 -1.8189066463918077e-48 2.285467330915627e-16 7.697420532957578" Properties=species:S:1:pos:R:3:forces:R:3 unique_starting_index=46 config_type=initial n_minim_iter=19 energy=-971.175082029187 stress="-0.0004348188391392744 -3.957328862316047e-12 -1.5598714333115218e-12 -3.957328862316047e-12 -0.00043481883913775593 4.339211449147236e-13 -1.5598714333115218e-12 4.339211449147236e-13 -0.0006020833615509557" free_energy=-971.175082029187 pbc="T T T"
Si       4.56991184       1.36136357       6.37254108      -0.01892373       0.01892373      -0.00534059
Si       1.36136357       4.56991184       6.37254108       0.01892373      -0.01892373      -0.00534059
Si       4.56991184       4.56991184       1.32487946      -0.01892373      -0.01892373       0.00534059
Si       1.36136357       1.36136357       1.32487946       0.01892373       0.01892373       0.00534059
Si       2.96563771       2.96563771       6.27716696      -0.00000000       0.00000000      -0.00078857
Si       2.96563771       2.96563771       1.42025357      -0.00000000      -0.00000000       0.00078857
6
Lattice="5.9329370476185295 1.5948913584094622e-57 3.172630777751414e-46 1.1767294334174797e-57 5.9329370476185295 1.120522491342772e-15 -1.396193932920046e-48 9.530972350997976e-16 7.707182510481158" Properties=species:S:1:pos:R:3:forces:R:3 unique_starting_index=46 config_type=initial n_minim_iter=20 energy=-971.1752943680333 stress="-8.484200289049471e-05 -4.638053699325593e-12 -1.4015801568035354e-12 -4.638053699325593e-12 -8.48420028889209e-05 8.859788618545225e-13 -1.4015801568035354e-12 8.859788618545225e-13 -0.00019226345857773752" free_energy=-971.1752943680333 pbc="T T T"
Si       4.57010093       1.36283612       6.38226749       0.00490566      -0.00490566      -0.00133047
Si       1.36283612       4.57010093       6.38226749      -0.00490566       0.00490566      -0.00133047
Si       4.57010093       4.57010093       1.32491502       0.00490566       0.00490566       0.00133047
Si       1.36283612       1.36283612       1.32491502      -0.00490566      -0.00490566       0.00133047
Si       2.96646852       2.96646852       6.28571916      -0.00000000      -0.00000000      -0.00274271
Si       2.96646852       2.96646852       1.42146335      -0.00000000      -0.00000000       0.00274271
