14
Lattice="3.9151002963095567 0.0 0.0 0.0 8.49616991632422 0.0 0.0 0.0 7.993436737369094" Properties=species:S:1:pos:R:3:forces:R:3 unique_starting_index=444 config_type=initial n_minim_iter=1 energy=-2277.6577962776028 stress="0.007553372453555949 6.664733015524434e-12 1.475420981829421e-12 6.664733015524434e-12 0.0039462160857242625 -4.0470730065871704e-13 1.475420981829421e-12 -4.0470730065871704e-13 0.009183745539974426" free_energy=-2277.6577962776028 pbc="T T T"
Si       2.94371406       2.34869660       4.74019402       0.23012854       0.27085232       0.07895045
Si       0.97138624       6.14747331       4.74019402      -0.23012854      -0.27085232       0.07895045
Si       2.94371406       6.14747331       3.25324272       0.23012854      -0.27085232      -0.07895045
Si       0.97138624       2.34869660       3.25324272      -0.23012854       0.27085232      -0.07895045
Si      -0.97682658       7.77238199       5.76615693      -0.05482123       0.24239331       0.03382871
Si       4.89192688       0.72378793       5.76615693       0.05482123      -0.24239331       0.03382871
Si      -0.97682658       0.72378793       2.22727980      -0.05482123      -0.24239331      -0.03382871
Si       4.89192688       7.77238199       2.22727980       0.05482123       0.24239331      -0.03382871
Si       3.48999231       2.69875605       1.07951349       0.02400895      -0.12006880       0.01443131
Si       0.42510798       5.79741386       1.07951349      -0.02400895       0.12006880       0.01443131
Si       3.48999231       5.79741386       6.91392325       0.02400895       0.12006880      -0.01443131
Si       0.42510798       2.69875605       6.91392325      -0.02400895      -0.12006880      -0.01443131
Si       1.95755015       4.24808496       6.06750975      -0.00000000      -0.00000000      -0.57641696
Si       1.95755015       4.24808496       1.92592699       0.00000000      -0.00000000       0.57641696
14
Lattice="3.8903127952857086 0.0 0.0 0.0 8.468024277400987 0.0 0.0 0.0 7.931946666580484" Properties=species:S:1:pos:R:3:forces:R:3 unique_starting_index=444 config_type=initial n_minim_iter=2 energy=-2277.678402417704 stress="-0.0012133776841242575 1.1393934811497065e-11 -6.485744088787483e-13 1.1393934811497065e-11 -0.0019483479001976586 -4.114731229700284e-12 -6.485744088787483e-13 -4.114731229700284e-12 -0.00013176817124294177" free_energy=-2277.678402417704 pbc="T T T"
Si       2.92579982       2.34176970       4.70397750       0.23316708       0.29858180       0.08477304
Si       0.96451297       6.12625458       4.70397750      -0.23316708      -0.29858180       0.08477305
Si       2.92579982       6.12625458       3.22796916       0.23316708      -0.29858180      -0.08477304
Si       0.96451297       2.34176970       3.22796916      -0.23316708       0.29858180      -0.08477305
Si      -0.97081432       7.74739810       5.72190653      -0.07377651       0.24666796       0.03920902
Si       4.86112711       0.72062618       5.72190653       0.07377651      -0.24666796       0.03920902
Si      -0.97081432       0.72062618       2.21004014      -0.07377651      -0.24666796      -0.03920902
Si       4.86112711       7.74739810       2.21004014       0.07377651       0.24666796      -0.03920902
Si       3.46797173       2.68943731       1.07125454       0.00558934      -0.09238637       0.06094223
Si       0.42234107       5.77858697       1.07125454      -0.00558934       0.09238637       0.06094223
Si       3.46797173       5.77858697       6.86069212       0.00558935       0.09238637      -0.06094223
Si       0.42234107       2.68943731       6.86069212      -0.00558935      -0.09238637      -0.06094223
Si       1.94515640       4.23401214       6.01902612      -0.00000000       0.00000000      -0.56976267
Si       1.94515640       4.23401214       1.91292055       0.00000000      -0.00000000       0.56976267
14
Lattice="3.897163203422384 0.0 0.0 0.0 8.607188161224466 0.0 0.0 0.0 7.824938545343937" Properties=species:S:1:pos:R:3:forces:R:3 unique_starting_index=444 config_type=initial n_minim_iter=3 energy=-2277.721804078776 stress="-0.00035051790251055366 1.0310060994350345e-12 1.3076197720700737e-12 1.0310060994350345e-12 0.008742618412270796 4.846382683419234e-13 1.3076197720700737e-12 4.846382683419234e-13 -0.00668332704948207" free_energy=-2277.721804078776 pbc="T T T"
Si       2.94269891       2.39545516       4.64468365       0.12116909       0.30240730       0.14013728
Si       0.95446430       6.21173300       4.64468365      -0.12116909      -0.30240730       0.14013728
Si       2.94269891       6.21173300       3.18025490       0.12116909      -0.30240730      -0.14013728
Si       0.95446430       2.39545516       3.18025490      -0.12116909       0.30240730      -0.14013728
Si      -0.97612977       7.88739389       5.64662433       0.00306315       0.13630080       0.16624729
Si       4.87329297       0.71979427       5.64662433      -0.00306315      -0.13630080       0.16624729
Si      -0.97612977       0.71979427       2.17831421       0.00306315      -0.13630080      -0.16624729
Si       4.87329297       7.88739389       2.17831421      -0.00306315       0.13630080      -0.16624729
Si       3.47447405       2.72870473       1.05954107      -0.24529183      -0.13308102       0.33689556
Si       0.42268916       5.87848343       1.05954107       0.24529183       0.13308102       0.33689556
Si       3.47447405       5.87848343       6.76539748      -0.24529183       0.13308102      -0.33689556
Si       0.42268916       2.72870473       6.76539748       0.24529183      -0.13308102      -0.33689556
Si       1.94858160       4.30359408       5.90954424      -0.00000000      -0.00000000      -0.36958365
Si       1.94858160       4.30359408       1.91539431      -0.00000000       0.00000000       0.36958365
14
Lattice="3.9034777752333127 0.0 0.0 0.0 8.557947874093243 0.0 0.0 0.0 7.828815654664732" Properties=species:S:1:pos:R:3:forces:R:3 unique_starting_index=444 config_type=initial n_minim_iter=4 energy=-2277.8017620595647 stress="-0.0016422265250155452 2.1424971068743113e-12 9.27494726478473e-14 2.1424971068743113e-12 0.002616069642687347 7.694113095731545e-12 9.27494726478473e-14 7.694113095731545e-12 -0.004674325490787721" free_energy=-2277.8017620595647 pbc="T T T"
Si       2.96345863       2.40395602       4.65364785       0.00758929       0.21988111       0.01048620
Si       0.94001915       6.15399186       4.65364785      -0.00758929      -0.21988111       0.01048620
Si       2.96345863       6.15399186       3.17516781       0.00758929      -0.21988112      -0.01048620
Si       0.94001915       2.40395602       3.17516781      -0.00758929       0.21988111      -0.01048620
Si      -0.98217250       7.85951035       5.65354193       0.07720889       0.04711928       0.16405665
Si       4.88565027       0.69843752       5.65354193      -0.07720889      -0.04711928       0.16405665
Si      -0.98217250       0.69843752       2.17527372       0.07720889      -0.04711928      -0.16405665
Si       4.88565027       7.85951035       2.17527372      -0.07720889       0.04711928      -0.16405665
Si       3.47795652       2.70547703       1.06697583      -0.29466771      -0.07402298       0.18315142
Si       0.42552125       5.85247085       1.06697583       0.29466771       0.07402297       0.18315142
Si       3.47795652       5.85247085       6.76183982      -0.29466771       0.07402298      -0.18315142
Si       0.42552125       2.70547703       6.76183982       0.29466771      -0.07402298      -0.18315142
Si       1.95173889       4.27897394       5.87329609      -0.00000000       0.00000000      -0.12486342
Si       1.95173889       4.27897394       1.95551957      -0.00000000       0.00000000       0.12486342
14
Lattice="3.914478559842395 0.0 0.0 0.0 8.53984350047437 0.0 0.0 0.0 7.8460273287708775" Properties=species:S:1:pos:R:3:forces:R:3 unique_starting_index=444 config_type=initial n_minim_iter=5 energy=-2277.8349770874297 stress="-0.001365142866954872 -2.7277305156227555e-12 -2.789497791734473e-12 -2.7277305156227555e-12 -0.0012952813268057172 -1.5398897563997694e-11 -2.789497791734473e-12 -1.5398897563997694e-11 -0.00021015476959596318" free_energy=-2277.8349770874297 pbc="T T T"
Si       2.98591175       2.42214359       4.66891160      -0.05079394       0.12446330      -0.07130485
Si       0.92856681       6.11769991       4.66891160       0.05079394      -0.12446330      -0.07130485
Si       2.98591175       6.11769991       3.17711572      -0.05079394      -0.12446330       0.07130485
Si       0.92856681       2.42214359       3.17711572       0.05079394       0.12446330       0.07130485
Si      -0.98716765       7.85892926       5.67213917       0.14189763      -0.03664390       0.16997613
Si       4.90164621       0.68091424       5.67213917      -0.14189763       0.03664390       0.16997613
Si      -0.98716765       0.68091424       2.17388816       0.14189763       0.03664390      -0.16997613
Si       4.90164621       7.85892926       2.17388816      -0.14189763      -0.03664390      -0.16997613
Si       3.48096785       2.69201936       1.07654278      -0.29884815      -0.04044364       0.00990571
Si       0.43351071       5.84782414       1.07654278       0.29884815       0.04044364       0.00990571
Si       3.48096785       5.84782414       6.76948455      -0.29884815       0.04044364      -0.00990571
Si       0.43351071       2.69201936       6.76948455       0.29884815      -0.04044364      -0.00990571
Si       1.95723928       4.26992175       5.84967777       0.00000000       0.00000000       0.13633050
Si       1.95723928       4.26992175       1.99634956      -0.00000000       0.00000000      -0.13633050
14
Lattice="3.9579055548968514 0.0 0.0 0.0 8.568843547795138 0.0 0.0 0.0 7.81332365858348" Properties=species:S:1:pos:R:3:forces:R:3 unique_starting_index=444 config_type=initial n_minim_iter=6 energy=-2277.8597135916566 stress="0.006576895230800425 -8.14113720131991e-12 3.76231829777331e-12 -8.14113720131991e-12 -0.003163052624892204 6.307245669619538e-12 3.76231829777331e-12 6.307245669619538e-12 0.002302563380509841" free_energy=-2277.8597135916566 pbc="T T T"
Si       3.02942290       2.45865179       4.65060143      -0.03660348       0.02957592      -0.06609625
Si       0.92848266       6.11019176       4.65060143       0.03660348      -0.02957592      -0.06609625
Si       3.02942290       6.11019176       3.16272223      -0.03660348      -0.02957592       0.06609625
Si       0.92848266       2.45865179       3.16272223       0.03660348       0.02957592       0.06609625
Si      -0.99222686       7.89828329       5.66325563       0.07671172       0.04481027       0.14279420
Si       4.95013241       0.67056025       5.66325563      -0.07671172      -0.04481027       0.14279420
Si      -0.99222686       0.67056025       2.15006803       0.07671172      -0.04481027      -0.14279420
Si       4.95013241       7.89828329       2.15006803      -0.07671172       0.04481027      -0.14279420
Si       3.49663495       2.69148063       1.07940962      -0.20194928      -0.01713624      -0.18311802
Si       0.46127060       5.87736291       1.07940962       0.20194928       0.01713624      -0.18311802
Si       3.49663495       5.87736291       6.73391404      -0.20194928       0.01713624       0.18311802
Si       0.46127060       2.69148063       6.73391404       0.20194928      -0.01713624       0.18311802
Si       1.97895278       4.28442177       5.79919260       0.00000000      -0.00000000       0.27964706
Si       1.97895278       4.28442177       2.01413106      -0.00000000       0.00000000      -0.27964706
14
Lattice="3.9254321687087774 0.0 0.0 0.0 8.671509119592114 0.0 0.0 0.0 7.832512431008176" Properties=species:S:1:pos:R:3:forces:R:3 unique_starting_index=444 config_type=initial n_minim_iter=7 energy=-2277.8881853815 stress="0.0014192780075188605 1.8266013930319845e-11 -3.821864622330272e-12 1.8266013930319845e-11 0.0011989111381446693 -2.3013604258613275e-13 -3.821864622330272e-12 -2.3013604258613275e-13 0.005680758640207398" free_energy=-2277.8881853815 pbc="T T T"
Si       3.00841103       2.50660686       4.66080536      -0.06174549       0.06547009       0.03190366
Si       0.91702114       6.16490226       4.66080536       0.06174549      -0.06547010       0.03190367
Si       3.00841103       6.16490226       3.17170707      -0.06174549      -0.06547010      -0.03190366
Si       0.91702114       2.50660686       3.17170707       0.06174549       0.06547009      -0.03190366
Si      -0.97710000       7.99958878       5.69050539       0.02213121      -0.05910003       0.20156523
Si       4.90253217       0.67192034       5.69050539      -0.02213121       0.05910003       0.20156523
Si      -0.97710000       0.67192034       2.14200705       0.02213121       0.05910003      -0.20156523
Si       4.90253217       7.99958878       2.14200705      -0.02213121      -0.05910003      -0.20156523
Si       3.44638324       2.71727003       1.08497628      -0.07026146      -0.08159307      -0.31280213
Si       0.47904893       5.95423909       1.08497628       0.07026146       0.08159307      -0.31280213
Si       3.44638324       5.95423909       6.74753615      -0.07026146       0.08159307       0.31280213
Si       0.47904893       2.71727003       6.74753615       0.07026146      -0.08159307       0.31280213
Si       1.96271608       4.33575456       5.80575338       0.00000000       0.00000000       0.31024140
Si       1.96271608       4.33575456       2.02675905      -0.00000000      -0.00000000      -0.31024140
14
Lattice="3.9177899793282585 0.0 0.0 0.0 8.727591046108909 0.0 0.0 0.0 7.7845697583238636" Properties=species:S:1:pos:R:3:forces:R:3 unique_starting_index=444 config_type=initial n_minim_iter=8 energy=-2277.9184771540044 stress="0.00018591023677855926 -1.182305689930051e-11 -1.2102895351455734e-12 -1.182305689930051e-11 0.0016733320611797451 -2.105077463257361e-12 -1.2102895351455734e-12 -2.105077463257361e-12 0.0013901686417598937" free_energy=-2277.9184771540044 pbc="T T T"
Si       2.99931882       2.53369206       4.62970996      -0.03422125       0.09194931       0.11052504
Si       0.91847116       6.19389899       4.62970996       0.03422125      -0.09194931       0.11052504
Si       2.99931882       6.19389899       3.15485980      -0.03422125      -0.09194931      -0.11052504
Si       0.91847116       2.53369206       3.15485980       0.03422125       0.09194931      -0.11052504
Si      -0.96677381       8.05013892       5.67022709      -0.11241532       0.01190293       0.18699424
Si       4.88456379       0.67745213       5.67022709       0.11241532      -0.01190293       0.18699424
Si      -0.96677381       0.67745213       2.11434267      -0.11241532      -0.01190293      -0.18699424
Si       4.88456379       8.05013892       2.11434267       0.11241532       0.01190293      -0.18699424
Si       3.41860797       2.72998011       1.07454904       0.05745174      -0.09302345      -0.33965944
Si       0.49918201       5.99761093       1.07454904      -0.05745174       0.09302345      -0.33965944
Si       3.41860797       5.99761093       6.71002072       0.05745174       0.09302345       0.33965944
Si       0.49918201       2.72998011       6.71002072      -0.05745174      -0.09302345       0.33965944
Si       1.95889499       4.36379552       5.78208122       0.00000000       0.00000000       0.19963832
Si       1.95889499       4.36379552       2.00248854      -0.00000000       0.00000000      -0.19963832
14
Lattice="3.900303585083287 0.0 0.0 0.0 8.767998208834282 0.0 0.0 0.0 7.742208616192641" Properties=species:S:1:pos:R:3:forces:R:3 unique_starting_index=444 config_type=initial n_minim_iter=9 energy=-2277.9467614523955 stress="-0.0020394803945779213 1.1013885159821572e-11 -4.56322201164433e-12 1.1013885159821572e-11 -0.0009592512178648387 5.369644016779835e-12 -4.56322201164433e-12 5.369644016779835e-12 -0.004703011694599462" free_energy=-2277.9467614523955 pbc="T T T"
Si       2.97822744       2.56240387       4.60372239       0.06153908       0.10220589       0.18237588
Si       0.92207615       6.20559434       4.60372239      -0.06153908      -0.10220589       0.18237588
Si       2.97822744       6.20559434       3.13848622       0.06153908      -0.10220589      -0.18237588
Si       0.92207615       2.56240387       3.13848622      -0.06153908       0.10220589      -0.18237588
Si      -0.95439751       8.08506974       5.66635822      -0.24413935       0.10860801       0.10510859
Si       4.85470109       0.68292847       5.66635822       0.24413935      -0.10860801       0.10510859
Si      -0.95439751       0.68292847       2.07585040      -0.24413935      -0.10860801      -0.10510859
Si       4.85470109       8.08506974       2.07585040       0.24413935       0.10860801      -0.10510859
Si       3.37499059       2.73309570       1.05078111       0.18337198      -0.07380987      -0.24866343
Si       0.52531300       6.03490251       1.05078111      -0.18337198       0.07380987      -0.24866343
Si       3.37499059       6.03490251       6.69142751       0.18337198       0.07380987       0.24866343
Si       0.52531300       2.73309570       6.69142751      -0.18337198      -0.07380987       0.24866344
Si       1.95015179       4.38399910       5.77893588       0.00000000       0.00000000       0.02576594
Si       1.95015179       4.38399910       1.96327273      -0.00000000       0.00000000      -0.02576594
14
Lattice="3.8913757470594055 0.0 0.0 0.0 8.82074713147199 0.0 0.0 0.0 7.792710415674688" Properties=species:S:1:pos:R:3:forces:R:3 unique_starting_index=444 config_type=initial n_minim_iter=10 energy=-2277.9894015881546 stress="6.209853043684581e-05 -4.1634020983141835e-12 -3.6554560956908915e-12 -4.1634020983141835e-12 0.0007696737903853476 4.3656642935416145e-13 -3.6554560956908915e-12 4.3656642935416145e-13 -0.00012341250139976984" free_energy=-2277.9894015881546 pbc="T T T"
Si       2.97950739       2.61856269       4.64784941       0.10417687      -0.00567551       0.14216239
Si       0.91186835       6.20218445       4.64784941      -0.10417687       0.00567551       0.14216239
Si       2.97950739       6.20218445       3.14486100       0.10417687       0.00567552      -0.14216239
Si       0.91186835       2.61856269       3.14486100      -0.10417687      -0.00567551      -0.14216239
Si      -0.96131966       8.15124960       5.73986692      -0.02606934      -0.08698596       0.00351767
Si       4.85269540       0.66949753       5.73986692       0.02606934       0.08698596       0.00351767
Si      -0.96131966       0.66949753       2.05284349      -0.02606934       0.08698596      -0.00351767
Si       4.85269540       8.15124960       2.05284349       0.02606934      -0.08698596      -0.00351766
Si       3.34921734       2.72862263       1.02691107       0.03666139      -0.04455429       0.14262805
Si       0.54215841       6.09212450       1.02691107      -0.03666139       0.04455429       0.14262805
Si       3.34921734       6.09212450       6.76579935       0.03666139       0.04455429      -0.14262805
Si       0.54215841       2.72862263       6.76579935      -0.03666139      -0.04455429      -0.14262805
Si       1.94568787       4.41037357       5.81787065      -0.00000000       0.00000000       0.23214713
Si       1.94568787       4.41037357       1.97483976      -0.00000000      -0.00000000      -0.23214713
14
Lattice="3.8900698431138756 0.0 0.0 0.0 8.785644127484863 0.0 0.0 0.0 7.810940588005578" Properties=species:S:1:pos:R:3:forces:R:3 unique_starting_index=444 config_type=initial n_minim_iter=11 energy=-2277.9938222634746 stress="-4.0216247190964e-05 -2.3778205544052687e-12 1.0458982542785548e-12 -2.3778205544052687e-12 -0.0002675077389834855 1.4860315332251352e-13 1.0458982542785548e-12 1.4860315332251352e-13 0.0005627708978823944" free_energy=-2277.9938222634746 pbc="T T T"
Si       2.97590300       2.59440752       4.65948877       0.09595180       0.04871133       0.11673980
Si       0.91416684       6.19123661       4.65948877      -0.09595180      -0.04871133       0.11673980
Si       2.97590300       6.19123661       3.15145182       0.09595180      -0.04871133      -0.11673980
Si       0.91416684       2.59440752       3.15145182      -0.09595180       0.04871133      -0.11673980
Si      -0.96377642       8.11187835       5.74466643       0.01511457      -0.02363304       0.01293248
Si       4.85384626       0.67376578       5.74466643      -0.01511457       0.02363304       0.01293248
Si      -0.96377642       0.67376578       2.06627416       0.01511457       0.02363304      -0.01293248
Si       4.85384626       8.11187835       2.06627416      -0.01511457      -0.02363304      -0.01293248
Si       3.35969860       2.72232931       1.03042519       0.00242897      -0.04046800       0.15302921
Si       0.53037124       6.06331482       1.03042519      -0.00242897       0.04046800       0.15302921
Si       3.35969860       6.06331482       6.78051539       0.00242897       0.04046800      -0.15302921
Si       0.53037124       2.72232931       6.78051539      -0.00242897      -0.04046800      -0.15302921
Si       1.94503492       4.39282206       5.84261722       0.00000000       0.00000000       0.13544739
Si       1.94503492       4.39282206       1.96832337      -0.00000000       0.00000000      -0.13544739
14
Lattice="3.89455188231365 0.0 0.0 0.0 8.823820638667508 0.0 0.0 0.0 7.777896572218477" Properties=species:S:1:pos:R:3:forces:R:3 unique_starting_index=444 config_type=initial n_minim_iter=12 energy=-2278.0055584076867 stress="0.00033593419240651 6.834933045700961e-12 -1.547305534023377e-12 6.834933045700961e-12 -0.0007743378203730965 -3.357050551443329e-12 -1.547305534023377e-12 -3.357050551443329e-12 -0.001637898562224318" free_energy=-2278.0055584076867 pbc="T T T"
Si       2.99133378       2.61656180       4.65063041       0.01126539       0.03976892       0.08041890
Si       0.90321810       6.20725884       4.65063041      -0.01126539      -0.03976892       0.08041890
Si       2.99133378       6.20725884       3.12726616       0.01126539      -0.03976892      -0.08041890
Si       0.90321810       2.61656180       3.12726616      -0.01126539       0.03976892      -0.08041890
Si      -0.96439964       8.14779789       5.72451701       0.01143159       0.07308288      -0.00652500
Si       4.85895153       0.67602275       5.72451701      -0.01143159      -0.07308287      -0.00652500
Si      -0.96439964       0.67602275       2.05337956       0.01143159      -0.07308288       0.00652500
Si       4.85895153       8.14779789       2.05337956      -0.01143159       0.07308288       0.00652500
Si       3.36003751       2.72766198       1.03972001       0.08663564       0.00623528      -0.08204579
Si       0.53451438       6.09615866       1.03972001      -0.08663564      -0.00623528      -0.08204579
Si       3.36003751       6.09615866       6.73817656       0.08663564      -0.00623528       0.08204579
Si       0.53451438       2.72766198       6.73817656      -0.08663564       0.00623528       0.08204579
Si       1.94727594       4.41191032       5.82232888      -0.00000000       0.00000000       0.10205255
Si       1.94727594       4.41191032       1.95556770       0.00000000      -0.00000000      -0.10205255
14
Lattice="3.8866963267112404 0.0 0.0 0.0 8.845108193550839 0.0 0.0 0.0 7.793963563370691" Properties=species:S:1:pos:R:3:forces:R:3 unique_starting_index=444 config_type=initial n_minim_iter=13 energy=-2278.012108285136 stress="-0.00011318852780451812 4.127563545010775e-12 -1.3270444601433098e-12 4.127563545010775e-12 -0.00011197129739862324 1.2969622885313896e-11 -1.3270444601433098e-12 1.2969622885313896e-11 -0.000491219156973523" free_energy=-2278.012108285136 pbc="T T T"
Si       2.98977678       2.63178433       4.66905598      -0.00130190       0.04264392       0.04701400
Si       0.89691954       6.21332386       4.66905598       0.00130190      -0.04264392       0.04701400
Si       2.98977678       6.21332386       3.12490758      -0.00130190      -0.04264392      -0.04701400
Si       0.89691954       2.63178433       3.12490758       0.00130190       0.04264392      -0.04701400
Si      -0.96458698       8.16898233       5.74456272       0.06632971       0.05926900      -0.03593878
Si       4.85128330       0.67612587       5.74456272      -0.06632971      -0.05926900      -0.03593878
Si      -0.96458698       0.67612587       2.04940084       0.06632971      -0.05926900       0.03593878
Si       4.85128330       8.16898233       2.04940084      -0.06632971       0.05926900       0.03593878
Si       3.35211046       2.72835725       1.03779408       0.06107943       0.02040652      -0.04390620
Si       0.53458586       6.11675095       1.03779408      -0.06107943      -0.02040652      -0.04390620
Si       3.35211046       6.11675095       6.75616948       0.06107943      -0.02040652       0.04390620
Si       0.53458586       2.72835725       6.75616948      -0.06107943       0.02040652       0.04390620
Si       1.94334816       4.42255410       5.84614687      -0.00000000       0.00000000       0.07195602
Si       1.94334816       4.42255410       1.94781669       0.00000000       0.00000000      -0.07195602
14
Lattice="3.8839602575816894 0.0 0.0 0.0 8.852921294282464 0.0 0.0 0.0 7.804150383842634" Properties=species:S:1:pos:R:3:forces:R:3 unique_starting_index=444 config_type=initial n_minim_iter=14 energy=-2278.014816501376 stress="-0.00026653190506183285 -1.4021823455611651e-11 -5.230180189455787e-12 -1.4021823455611651e-11 -9.14545681863531e-06 -8.0472219149014e-12 -5.230180189455787e-12 -8.0472219149014e-12 7.075009502773174e-05" free_energy=-2278.014816501376 pbc="T T T"
Si       2.99137533       2.63964127       4.68272881      -0.00899529       0.04068977       0.00436606
Si       0.89258493       6.21328002       4.68272881       0.00899529      -0.04068977       0.00436606
Si       2.99137533       6.21328002       3.12142157      -0.00899529      -0.04068977      -0.00436606
Si       0.89258493       2.63964127       3.12142157       0.00899529       0.04068977      -0.00436606
Si      -0.96461857       8.17766795       5.75544651       0.08849013       0.04202376      -0.04619157
Si       4.84857882       0.67525334       5.75544651      -0.08849013      -0.04202376      -0.04619157
Si      -0.96461857       0.67525334       2.04870387       0.08849013      -0.04202376       0.04619157
Si       4.84857882       8.17766795       2.04870387      -0.08849013       0.04202376       0.04619157
Si       3.35201791       2.72755446       1.03718823       0.02798686       0.02334501      -0.01201209
Si       0.53194235       6.12536683       1.03718823      -0.02798686      -0.02334501      -0.01201209
Si       3.35201791       6.12536683       6.76696216       0.02798686      -0.02334501       0.01201209
Si       0.53194235       2.72755446       6.76696216      -0.02798686       0.02334501       0.01201209
Si       1.94198013       4.42646065       5.86367195       0.00000000      -0.00000000       0.04392697
Si       1.94198013       4.42646065       1.94047844       0.00000000      -0.00000000      -0.04392697
14
Lattice="3.8852811859619694 0.0 0.0 0.0 8.857111957389684 0.0 0.0 0.0 7.811236411364206" Properties=species:S:1:pos:R:3:forces:R:3 unique_starting_index=444 config_type=initial n_minim_iter=15 energy=-2278.016626923901 stress="6.279682698040986e-06 -1.9886189199678975e-12 -1.2256993853874047e-12 -1.9886189199678975e-12 0.00018998207410668563 9.305695588253892e-13 -1.2256993853874047e-12 9.305695588253892e-13 0.0005313790648470872" free_energy=-2278.016626923901 pbc="T T T"
Si       2.99529697       2.64601595       4.69345874      -0.00646833       0.03483111      -0.04212156
Si       0.88998421       6.21109601       4.69345874       0.00646833      -0.03483111      -0.04212156
Si       2.99529697       6.21109601       3.11777767      -0.00646833      -0.03483111       0.04212156
Si       0.88998421       2.64601595       3.11777767       0.00646833       0.03483111       0.04212156
Si      -0.96189408       8.18406375       5.76046599       0.03807681      -0.00127530      -0.03455404
Si       4.84717526       0.67304821       5.76046599      -0.03807681       0.00127530      -0.03455404
Si      -0.96189408       0.67304821       2.05077043       0.03807681       0.00127530       0.03455404
Si       4.84717526       8.18406375       2.05077043      -0.03807681      -0.00127530       0.03455404
Si       3.35692324       2.72773157       1.03764299      -0.00092464       0.00122075       0.01318287
Si       0.52835794       6.12938039       1.03764299       0.00092464      -0.00122075       0.01318287
Si       3.35692324       6.12938039       6.77359342      -0.00092464      -0.00122075      -0.01318287
Si       0.52835794       2.72773157       6.77359342       0.00092464       0.00122075      -0.01318287
Si       1.94264059       4.42855598       5.87914925      -0.00000000      -0.00000000       0.00791566
Si       1.94264059       4.42855598       1.93208717       0.00000000      -0.00000000      -0.00791566
14
Lattice="3.888122647852688 0.0 0.0 0.0 8.8508701008771 0.0 0.0 0.0 7.803393293460316" Properties=species:S:1:pos:R:3:forces:R:3 unique_starting_index=444 config_type=initial n_minim_iter=16 energy=-2278.017492415023 stress="2.1329539135551646e-06 2.89992848597595e-12 1.7113903289717786e-12 2.89992848597595e-12 -2.2158415277893535e-05 -1.7614469031145876e-11 1.7113903289717786e-12 -1.7614469031145876e-11 -0.00017244723611051436" free_energy=-2278.017492415023 pbc="T T T"
Si       2.99598874       2.64338232       4.68523930      -0.00106997       0.03005592      -0.03016881
Si       0.89213391       6.20748778       4.68523930       0.00106997      -0.03005592      -0.03016881