18
Lattice="3.7075313228838946 -0.724674803251039 0.31734913946685 -0.7503797877560108 8.416189470145934 -3.497468620365486 -0.7121343393386842 -8.239853989901938 16.33124130135606" Properties=species:S:1:pos:R:3:forces:R:3 unique_starting_index=394 config_type=initial n_minim_iter=1 energy=-2930.119907109018 stress="-0.0004070481304666092 0.0009864101763340273 0.0004158907932543422 0.0009864101763340273 0.0007482534838921259 -2.045178912867377e-05 0.0004158907932543422 -2.045178912867377e-05 -0.0003469459441200938" free_energy=-2930.119907109018 pbc="T T T"
Si       0.68626335      -3.13279491      10.09265628       0.02706852      -0.11566995      -0.05057105
Si       0.61733991       4.58944408      -0.85883419       0.03369414       0.02505212       0.03143421
Si       2.32260671      -4.81803215       9.65326663       0.03583272       0.10489909       0.03340672
Si       0.91292739       6.45732266       0.90095031      -0.12895153      -0.02007229      -0.04393514
Si       3.96883929       2.19952262       1.12669347      -0.08611721       0.14532997       0.07652860
Si       2.21737715       3.65572427       1.82586902       0.08749740      -0.02704723      -0.06461577
Si       0.21213808       1.00203136      -0.61014307      -0.01822429      -0.00650711       0.26862450
Si       0.43516604      -2.31108128      12.27631064      -0.03332250      -0.02200216       0.02399264
Si      -1.32374925      -0.99106979      13.13963450      -0.04480885       0.11646679      -0.15818119
Si       1.24314257      -6.68427588      10.70187747       0.12828014       0.06751415      -0.07139384
Si       1.53272885      -6.00873973      12.93937575      -0.02859405      -0.08076269       0.11017721
Si       0.79544081      -2.11476246       7.92232697       0.03487169       0.13213838      -0.25997555
Si       1.42557616      -7.80791738      14.48344162      -0.00720480       0.08223358       0.04300666
Si       2.43818361      -3.82248316       7.43951581       0.13957243       0.02003905       0.09029810
Si      -0.10608673      -4.38089352      13.22220835      -0.01156038       0.05929658       0.00540525
Si       2.81990874       5.83485241      -0.60829557      -0.14431011      -0.11784902      -0.18790152
Si       1.94735038      -0.11058487       7.18532437       0.19911590      -0.07841126       0.18006594
Si      -0.08069078      -0.62223206       5.54567528      -0.18283920      -0.28464798      -0.02636578
18
Lattice="3.71480156033518 -0.7354357751714422 0.31233176520003275 -0.7751271313039663 8.396768155634287 -3.499977827283687 -0.7085672446459045 -8.214956171983726 16.351311334712758" Properties=species:S:1:pos:R:3:forces:R:3 unique_starting_index=394 config_type=initial n_minim_iter=2 energy=-2930.1248986708206 stress="0.0005157751624046276 -0.0011875254947151363 -0.000570402165259137 -0.0011875254947151363 -0.0005490802304365603 0.0007738899239229754 -0.000570402165259137 0.0007738899239229754 8.917720048840035e-05" free_energy=-2930.1248986708206 pbc="T T T"
Si       0.68361713      -3.12732075      10.10313562       0.08566878      -0.11391869      -0.04012920
Si       0.60408191       4.57564384      -0.86014669       0.01886968       0.03999252       0.01375448
Si       2.32873444      -4.81190138       9.66146976      -0.01156098       0.14786785       0.00727684
Si       0.88975307       6.43743159       0.90080750      -0.13697644       0.00592788      -0.04067515
Si       3.96457215       2.18165037       1.12315828      -0.13966327       0.13266832       0.07201057
Si       2.20617653       3.63861349       1.82456900       0.12752940      -0.01189300      -0.01327002
Si       0.20973548       0.99861979      -0.60875743       0.02488954       0.03157318       0.20072943
Si       0.42567788      -2.30589257      12.29049282      -0.07045396       0.02943972      -0.02724250
Si      -1.34158305      -0.98201376      13.15589339       0.01293991       0.04177272      -0.12695726
Si       1.25341056      -6.66989496      10.71184319       0.13478765      -0.01880263      -0.03976803
Si       1.53650339      -5.99821586      12.95325671      -0.09811073      -0.04053928       0.07703518
Si       0.79266755      -2.11028682       7.92827913       0.08992286       0.07125788      -0.20795145
Si       1.43329682      -7.79084907      14.49861458      -0.05648417       0.06960911       0.09916436
Si       2.44517945      -3.82022225       7.44545878       0.09370342       0.01702073       0.04506839
Si      -0.11045259      -4.36773638      13.23799438       0.03000275      -0.01277011       0.04367049
Si       2.80360816       5.80909615      -0.61430972      -0.11630482      -0.11190095      -0.18801964
Si       1.94187052      -0.11710996       7.19272624       0.18623014       0.00252908       0.14513959
Si      -0.08827022      -0.62242165       5.55218881      -0.17498976      -0.27983434      -0.01983607
18
Lattice="3.714296501534491 -0.7352016863572348 0.3175432145326279 -0.7760816061985 8.395192595123252 -3.5424571679748365 -0.7019983438788905 -8.2681847761665 16.416263188896185" Properties=species:S:1:pos:R:3:forces:R:3 unique_starting_index=394 config_type=initial n_minim_iter=3 energy=-2930.1377917858044 stress="-0.0010391834376442944 -0.0005558578751262403 -0.0004157855687474218 -0.0005558578751262403 -0.0020054525389441606 -0.001433231031427308 -0.0004157855687474218 -0.001433231031427308 0.0009009953600708984" free_energy=-2930.1377917858044 pbc="T T T"
Si       0.68929390      -3.16756030      10.13401343       0.06440471      -0.00075659      -0.10771060
Si       0.60467371       4.57137407      -0.88020397      -0.00594864      -0.00501538       0.03671530
Si       2.33259919      -4.83946284       9.70144543       0.00893958       0.07564637      -0.04403062
Si       0.88610866       6.42086955       0.87416398      -0.12193318       0.02734061      -0.02313836
Si       3.96099618       2.17714092       1.11991854      -0.04598962       0.14950437       0.03439374
Si       2.21007631       3.62322979       1.81209052       0.05227438       0.03871011       0.00490047
Si       0.20952278       0.99956233      -0.60655626      -0.02584484       0.01997643       0.11525127
Si       0.42905436      -2.35335911      12.32329106      -0.05493183      -0.02375402      -0.03655540
Si      -1.33650278      -1.03323824      13.17938625      -0.01966897       0.02607505      -0.02389379
Si       1.26150610      -6.70132804      10.75875678       0.13638575      -0.01384974      -0.03624609
Si       1.53949853      -6.04325815      13.00640543      -0.06573382      -0.07860145       0.08145427
Si       0.79763674      -2.13642754       7.94481488       0.08342295       0.02506503      -0.08841178
Si       1.43781571      -7.83460583      14.56134960      -0.01728672       0.06062446       0.09074297
Si       2.45144548      -3.84365630       7.47868358       0.08768925      -0.01351805       0.05146824
Si      -0.10487767      -4.41444143      13.28178382       0.00651616       0.00181984       0.02875216
Si       2.79905042       5.79691646      -0.64489021      -0.09170050      -0.05264653      -0.21355280
Si       1.95062840      -0.14861489       7.21252670       0.18590688       0.02875357       0.15354670
Si      -0.09156034      -0.65350164       5.56440864      -0.17650154      -0.26537408      -0.02368568
18
Lattice="3.7349552439175366 -0.7356827063544689 0.32518809367346163 -0.7799221032251334 8.437010223124384 -3.547955965605145 -0.6808678605168113 -8.318632072950187 16.413749512156155" Properties=species:S:1:pos:R:3:forces:R:3 unique_starting_index=394 config_type=initial n_minim_iter=4 energy=-2930.156319914188 stress="0.00500123811357502 -0.00012011931387410563 0.0010060540954144295 -0.00012011931387410563 0.0017321708067801768 -0.0009002262472170923 0.0010060540954144295 -0.0009002262472170923 0.003135329631433441" free_energy=-2930.156319914188 pbc="T T T"
Si       0.71433833      -3.19548615      10.12928531      -0.03079345       0.09656834      -0.13911925
Si       0.61199405       4.59623930      -0.87966127      -0.02239492       0.01664845       0.06128441
Si       2.36149203      -4.85818110       9.70612604       0.06637912      -0.02956354       0.00323958
Si       0.88877767       6.45175989       0.86855335      -0.10664988       0.00853161      -0.03415592
Si       3.97986882       2.20080109       1.13084544       0.14585610       0.09441844       0.03743202
Si       2.23629273       3.64062210       1.81082221      -0.15146551       0.08959152      -0.00052977
Si       0.21005408       1.00565946      -0.59031803      -0.07710931       0.09208294      -0.01394997
Si       0.44996260      -2.37219087      12.32052885       0.00355844      -0.06275439      -0.03243928
Si      -1.32039479      -1.04190283      13.16300190      -0.08729614      -0.06314338      -0.02441523
Si       1.29360042      -6.73730681      10.75727339       0.19620717      -0.08530110      -0.00581193
Si       1.56399370      -6.08386304      13.01518055       0.02548251       0.04879261       0.04835837
Si       0.82045122      -2.14397938       7.92883113       0.06946346      -0.07790292      -0.00920771
Si       1.46562569      -7.87450728      14.56868708       0.03955816       0.06685304       0.20539008
Si       2.48497496      -3.86365900       7.48806809       0.09595463       0.02242374      -0.00502021
Si      -0.08273662      -4.44213050      13.28087770      -0.07075928      -0.04581222      -0.03418416
Si       2.80920946       5.81997972      -0.65703108      -0.06568106      -0.07141646      -0.12509613
Si       1.98990412      -0.15458526       7.22575246       0.14764984       0.10101033       0.09238875
Si      -0.09488917      -0.68069762       5.56083147      -0.17795987      -0.20102702      -0.02416365
18
Lattice="3.719924765908671 -0.7331334125928697 0.32137700320698637 -0.7695660707558708 8.442126175632868 -3.5121116502157173 -0.6876021951749629 -8.303526627298726 16.29833204356733" Properties=species:S:1:pos:R:3:forces:R:3 unique_starting_index=394 config_type=initial n_minim_iter=5 energy=-2930.1723054750787 stress="0.0005305562633092343 6.744565356756127e-05 0.0009269162760004499 6.744565356756127e-05 -0.0012654694962361398 -0.0004718832132561542 0.0009269162760004499 -0.0004718832132561542 -0.0018743689006601165" free_energy=-2930.1723054750787 pbc="T T T"
Si       0.71070186      -3.18823797      10.05672948      -0.08223464       0.21033261      -0.07791328
Si       0.61476171       4.60326618      -0.86488251      -0.04715700       0.02082797      -0.01592312
Si       2.34816018      -4.83970590       9.63821852       0.09928395      -0.17086286       0.04261985
Si       0.88147293       6.46268026       0.87078350      -0.10985156       0.00793061      -0.06118995
Si       3.96047839       2.21847672       1.13120815       0.23874822      -0.08406555       0.06438035
Si       2.23573619       3.65016059       1.80285095      -0.23927831       0.13425615       0.07080582
Si       0.20947283       1.00732172      -0.57109846      -0.09466408       0.19547407      -0.05384225
Si       0.44111809      -2.35533159      12.23960267      -0.00096134      -0.07465578      -0.07360859
Si      -1.32004956      -1.01808656      13.07160190      -0.06970563      -0.11506669       0.02110504
Si       1.29087674      -6.72663416      10.67575056       0.19861857      -0.13386781      -0.00465276
Si       1.54729677      -6.07355962      12.93041502       0.06516605       0.12682163      -0.02854402
Si       0.81859037      -2.12753462       7.86225902       0.09866505      -0.10321720       0.06521941
Si       1.44978545      -7.85504051      14.47055757       0.05620789      -0.01921835       0.24137685
Si       2.47893783      -3.85369297       7.43920302       0.01721489       0.03638578      -0.12456168
Si      -0.08810770      -4.42500238      13.19240545      -0.09957031      -0.08435516      -0.07694534
Si       2.79477812       5.82221287      -0.65687493      -0.03251649      -0.02947016      -0.05829051
Si       1.99404668      -0.14295296       7.19117662       0.15293771       0.20246405       0.07221782
Si      -0.10829777      -0.69139434       5.52361117      -0.15090297      -0.11971332      -0.00225363
18
Lattice="3.7091383162023077 -0.7333890243172275 0.31445922722771075 -0.7576371586608027 8.462173805562506 -3.5107297067076915 -0.7196329650652932 -8.31188447679501 16.32829933913687" Properties=species:S:1:pos:R:3:forces:R:3 unique_starting_index=394 config_type=initial n_minim_iter=6 energy=-2930.1770631235618 stress="-0.0012790835023791375 2.580501746219197e-05 -0.00039741645308528857 2.580501746219197e-05 0.0008863203713842857 -0.00027995827985440383 -0.00039741645308528857 -0.00027995827985440383 0.0007903332361330005" free_energy=-2930.1770631235618 pbc="T T T"
Si       0.68920778      -3.18808966      10.07327027      -0.05219415       0.26248532      -0.04395541
Si       0.61666870       4.61620619      -0.86325892      -0.06079931      -0.01029472      -0.04699363
Si       2.32277899      -4.84213081       9.65129985       0.06246318      -0.19425015       0.02378503
Si       0.87687051       6.48193514       0.87593314      -0.12224422      -0.00613459      -0.05518180
Si       3.94826798       2.22961145       1.13000619       0.21030467      -0.11897785       0.00002144
Si       2.22814866       3.66356164       1.80576547      -0.20889279       0.17981632       0.13525220
Si       0.20971258       1.01105948      -0.56809300      -0.05743981       0.19358026      -0.02867805
Si       0.41509374      -2.35088701      12.26338434      -0.03422117      -0.12198883      -0.12934367
Si      -1.34233602      -1.00861607      13.10001794      -0.03454945      -0.11072512       0.04904029
Si       1.26850409      -6.73541868      10.68990736       0.21501472      -0.12192031       0.04675470
Si       1.51577879      -6.07837843      12.95238118       0.03715217       0.09494825      -0.06836888
Si       0.80258302      -2.12477323       7.87266460       0.12975925      -0.09528819       0.08393654
Si       1.41551473      -7.86163659      14.49570812       0.02451031       0.00091209       0.22643783
Si       2.45918674      -3.85608834       7.44817484      -0.02325851       0.01607720      -0.16910234
Si      -0.11488058      -4.42522363      13.21788251      -0.07432194      -0.03207120      -0.02964999
Si       2.78827402       5.83683238      -0.66219402      -0.01656163      -0.01908983      -0.06789596
Si       1.97970340      -0.13527651       7.20682361       0.14307936       0.18396675       0.05029604
Si      -0.12296764      -0.69428638       5.53503747      -0.13780070      -0.10104540       0.02364565
18
Lattice="3.720562334115383 -0.7089753155777397 0.2993621861234107 -0.7058929452880546 8.402974234165368 -3.4636026080835123 -0.8157417186598355 -8.191814502226737 16.28885901642276" Properties=species:S:1:pos:R:3:forces:R:3 unique_starting_index=394 config_type=initial n_minim_iter=7 energy=-2930.2116727970943 stress="0.0008458102416102293 0.0015955238552028985 -0.0011482438829966146 0.0015955238552028985 -0.0020375722124809544 0.0021073568373794786 -0.0011482438829966146 0.0021073568373794786 0.0009080224768463607" free_energy=-2930.2116727970943 pbc="T T T"
Si       0.64546314      -3.10542598      10.04407280      -0.09620228       0.16151107       0.01389512
Si       0.64366868       4.59860063      -0.84042008      -0.01039792      -0.04494909      -0.16261948
Si       2.28712122      -4.76032428       9.62452256       0.09022912      -0.07962379      -0.01895748
Si       0.88604052       6.46303217       0.89850606      -0.05311810       0.02634580      -0.06358687
Si       3.98307012       2.25380026       1.14066888       0.06474840      -0.09120732       0.06712670
Si       2.24194550       3.68305276       1.82503098      -0.08919948       0.04255975       0.07207414
Si       0.21057703       1.02451365      -0.54215747       0.07141595       0.11469616      -0.08124619
Si       0.35989714      -2.28198039      12.24145721       0.08234119       0.05237408      -0.16058464
Si      -1.39987833      -0.94303522      13.08971493      -0.07658165      -0.18613067      -0.04593937
Si       1.24148154      -6.65181317      10.64810262      -0.00340890      -0.03337969       0.17366888
Si       1.44883958      -5.97104715      12.92345280       0.13134605       0.01233095      -0.17612890
Si       0.78956165      -2.06791596       7.84253410       0.03474884       0.01303008       0.05443741
Si       1.33676994      -7.73393846      14.48241883      -0.10331405       0.06804447       0.21754490
Si       2.44004899      -3.78218184       7.41508081       0.05140504      -0.01354417      -0.09243284
Si      -0.18570863      -4.33819625      13.19512891      -0.16260914      -0.05163380       0.05640714
Si       2.81653728       5.80810584      -0.66703797      -0.06778378       0.02564894       0.05195502
Si       2.00159380      -0.07067292       7.22514780       0.29682310      -0.04255033       0.01081057
Si      -0.17814590      -0.70446118       5.53123543      -0.16044241       0.02647757       0.08357590
18
Lattice="3.7248234951567594 -0.7250363418300483 0.30490715301151905 -0.7378100076230278 8.455808669692987 -3.4672017491560854 -0.7663049216036562 -8.26449584941381 16.23813686798093" Properties=species:S:1:pos:R:3:forces:R:3 unique_starting_index=394 config_type=initial n_minim_iter=8 energy=-2930.230865938545 stress="0.000889328570507627 -0.0007729168108560996 -0.0017748343411558328 -0.0007729168108560996 0.0013186723536922742 -4.054646416258265e-05 -0.0017748343411558328 -4.054646416258265e-05 -0.0024089899084778054" free_energy=-2930.230865938545 pbc="T T T"
Si       0.66993432      -3.13531745      10.00211434       0.03893006       0.01621254      -0.05880049
Si       0.62647771       4.62426595      -0.84631226      -0.07749292      -0.07580375      -0.11034798
Si       2.32425236      -4.81399965       9.60125021      -0.03190708       0.06287191      -0.04778042
Si       0.84819980       6.49193685       0.87595955      -0.05192529       0.03042261      -0.06750660
Si       3.98574805       2.25548893       1.14543767      -0.14294552       0.03191041       0.07358925
Si       2.22693099       3.70114976       1.81801707       0.14129997      -0.07950202      -0.06283160
Si       0.20226102       1.04481917      -0.52665571       0.10446214      -0.10251653      -0.01485986
Si       0.38053182      -2.32582429      12.18868735       0.02007440       0.08997884      -0.04931330
Si      -1.38391812      -0.97261465      13.02790199      -0.01177038      -0.02622355      -0.15863709
Si       1.30346731      -6.71847066      10.61868582      -0.03234298      -0.12373828       0.17079067
Si       1.48648122      -6.03079578      12.88831571       0.02876549      -0.02978216      -0.09937109
Si       0.82113677      -2.09556070       7.80326769       0.10302591       0.05244224       0.10553949
Si       1.38212190      -7.80070534      14.46429591      -0.13939909       0.14167041       0.06302261
Si       2.47400217      -3.82169392       7.39158178      -0.03315781       0.03501306       0.05714752
Si      -0.15913889      -4.38877291      13.14956912      -0.04511866      -0.05214654      -0.03319285
Si       2.78562774       5.82016465      -0.69141160       0.01448822       0.01880361       0.16521977
Si       2.04164412      -0.08260895       7.21636649       0.27363804      -0.06971148      -0.00853704
Si      -0.19389299      -0.74935953       5.50964928      -0.15862450       0.08009869       0.07586901
18
Lattice="3.7150498277907826 -0.7305188553237042 0.34073959074019894 -0.7851758021842011 8.435093295853905 -3.4783329560566183 -0.5911687901827771 -8.213725575840726 16.316261254401002" Properties=species:S:1:pos:R:3:forces:R:3 unique_starting_index=394 config_type=initial n_minim_iter=9 energy=-2930.241394467784 stress="-0.0012782010987779275 -0.0007993060819212653 0.0014663471709748445 -0.0007993060819212653 -0.0004439876161487644 0.0009305852038420947 0.0014663471709748445 0.0009305852038420947 0.0008305590179292268" free_energy=-2930.241394467784 pbc="T T T"
Si       0.77003872      -3.10283644      10.05584087       0.03082309      -0.01641276      -0.02357594
Si       0.60439141       4.61408239      -0.83799825      -0.13537579      -0.09562648      -0.19454567
Si       2.42329559      -4.78978636       9.67596907      -0.00638762       0.21598847      -0.11596525
Si       0.82126876       6.48119005       0.89513704       0.05587601       0.05432792      -0.01040803
Si       3.98019290       2.25279767       1.20431802      -0.16645235      -0.00817308       0.06802955
Si       2.22495225       3.70167348       1.86097413       0.15208698      -0.07538500      -0.09532750
Si       0.19169603       1.05292623      -0.51029342      -0.08207490      -0.06709330      -0.03413341
Si       0.49632525      -2.30101213      12.25645161       0.12858497       0.15080011      -0.12712343
Si      -1.25765536      -0.94212637      13.08385630      -0.10972790      -0.02983381      -0.19540034
Si       1.43676008      -6.69373945      10.68478924      -0.09883990      -0.20429798       0.37712182
Si       1.61585535      -5.99544917      12.97403805       0.01001611      -0.10719220      -0.19546881
Si       0.91044759      -2.07385220       7.84392046       0.06117144       0.02575657       0.20987152
Si       1.52859719      -7.74990267      14.57481048       0.07165987       0.12442460       0.02898894
Si       2.55314043      -3.80115799       7.45172994      -0.00627677       0.00929134       0.07431537
Si      -0.03017566      -4.35466967      13.22116736      -0.03522520      -0.06461025       0.10105225
Si       2.74398572       5.79286337      -0.67484467       0.08162204       0.04569398       0.18060382
Si       2.13454533      -0.06442416       7.29900344       0.31536825      -0.04993349      -0.04928099
Si      -0.16612232      -0.76515747       5.54116233      -0.26684833       0.09227537       0.00124609
18
Lattice="3.733466610978592 -0.7106612426945192 0.3225146876941079 -0.7261796813809712 8.426782541399177 -3.50261436801716 -0.7302479199033521 -8.259473848209296 16.341827001369843" Properties=species:S:1:pos:R:3:forces:R:3 unique_starting_index=394 config_type=initial n_minim_iter=10 energy=-2930.265305545839 stress="0.0006872901486401642 0.0015929056410307805 -0.0008043110099475246 0.0015929056410307805 -0.00017705121784314463 -0.0023572183615835104 -0.0008043110099475246 -0.0023572183615835104 0.0003514718968265873" free_energy=-2930.265305545839 pbc="T T T"
Si       0.70439485      -3.12575291      10.04834184      -0.02496867       0.03637552      -0.05942096
Si       0.63180518       4.60907322      -0.86418827      -0.08564902      -0.13578266      -0.03481690
Si       2.36425949      -4.79408322       9.67358161      -0.01694754       0.01983381      -0.06070535
Si       0.83958455       6.47127529       0.85933607       0.04181294       0.10383408       0.00461666
Si       4.00660555       2.27354550       1.18405000      -0.01138744       0.01682885      -0.01307544
Si       2.25243888       3.70227481       1.83229430       0.00641718      -0.01097675      -0.05062710
Si       0.19735369       1.05971281      -0.49958932       0.00213506      -0.12964945      -0.11478004
Si       0.41797383      -2.33733371      12.24691473       0.05721771       0.05231678      -0.06357157
Si      -1.35295560      -0.99476945      13.07094923      -0.06995243      -0.07625151      -0.00391240
Si       1.36825654      -6.72236333      10.70648125      -0.05489017      -0.03671249       0.19189942
Si       1.52081332      -6.02654265      12.97920688       0.07302193      -0.09467279      -0.03701097
Si       0.87510741      -2.08783424       7.83556971      -0.00513651       0.09701295       0.19301138
Si       1.41430582      -7.76622652      14.60718928      -0.04011311       0.15767258      -0.04044763
Si       2.51786409      -3.80398998       7.45045643       0.07553727      -0.03361151       0.05800391
Si      -0.13424915      -4.39685064      13.23312772      -0.03329445      -0.00048145      -0.06279355
Si       2.78603890       5.78984802      -0.72216624       0.03769340       0.10610447       0.08716799
Si       2.14566097      -0.07704763       7.29982033       0.28812327      -0.13532824       0.00156273
Si      -0.23584950      -0.80990534       5.54257619      -0.23961941       0.06348785       0.00489979
18
Lattice="3.7398372495896957 -0.7129449435396631 0.34333471331570464 -0.7654633191673549 8.394208511822965 -3.4231375640264288 -0.5950493987931769 -8.082093269505975 16.283808748812454" Properties=species:S:1:pos:R:3:forces:R:3 unique_starting_index=394 config_type=initial n_minim_iter=11 energy=-2930.331004333494 stress="-0.0002768417497052759 -0.0009771324386232986 -0.0009780546332192348 -0.0009771324386232986 0.00037954723773597987 0.0004930150473002472 -0.0009780546332192348 0.0004930150473002472 -0.0008838217353304563" free_energy=-2930.331004333494 pbc="T T T"
Si       0.78904120      -2.99372999      10.00642269       0.03449669      -0.15087822       0.16598633
Si       0.59534842       4.59111181      -0.83532760      -0.08994833      -0.02696452       0.09588863
Si       2.46607109      -4.67544134       9.65762225      -0.11905406       0.07118374       0.18414466
Si       0.77536045       6.49387068       0.90955014       0.02216249       0.18145628       0.08100238
Si       4.01233625       2.30494777       1.27874151      -0.03928884      -0.16309318      -0.09281984
Si       2.26269557       3.74165514       1.89397583       0.04354416       0.08282351       0.06274743
Si       0.17717348       1.08476162      -0.44024288      -0.05192078      -0.03226446      -0.01840906
Si       0.51095516      -2.20508417      12.21121176      -0.08928893       0.07288346      -0.09671213
Si      -1.28564373      -0.86245080      13.02389151       0.08606931      -0.08023170       0.07699063
Si       1.53293469      -6.65355747      10.70850451       0.28643879       0.06086136       0.09301779
Si       1.62990354      -5.89912383      12.94678835      -0.08035777       0.05281512       0.09635625
Si       0.99183750      -1.98608329       7.81997353      -0.01397495       0.12079609       0.12338868
Si       1.53157384      -7.56154183      14.64676833       0.01512664       0.06431699      -0.17095427
Si       2.62019276      -3.71691930       7.44473375       0.06610253      -0.04793822      -0.18424477
Si      -0.05428314      -4.26599431      13.21573245       0.19771111       0.02108576      -0.13314600
Si       2.73753821       5.75321212      -0.68319126       0.04862878       0.06714501       0.04757602
Si       2.35322711       0.01596502       7.39144088      -0.01429472      -0.22742745      -0.13034961
Si      -0.32358535      -0.84220083       5.54407954      -0.30215212      -0.06656956      -0.20046311
18
Lattice="3.742733862627484 -0.7094870002195154 0.35281824512792526 -0.7692105824832659 8.384755282939153 -3.420606059771863 -0.5581101818630603 -8.057849214433514 16.299368497220154" Properties=species:S:1:pos:R:3:forces:R:3 unique_starting_index=394 config_type=initial n_minim_iter=12 energy=-2930.340167114792 stress="-0.000552879244671127 -0.0005618432472933962 -0.0003790525509161037 -0.0005618432472933962 0.00040178095568369344 0.0005325526176640287 -0.0003790525509161037 0.0005325526176640287 -0.0004005624239176516" free_energy=-2930.340167114792 pbc="T T T"
Si       0.81487580      -2.97555490      10.01443985       0.01280821      -0.16116492       0.17572435
Si       0.59076070       4.58560158      -0.83389475      -0.08495247      -0.01860973       0.11765594
Si       2.49365485      -4.65423322       9.67555327      -0.10776715       0.04727871       0.20624844
Si       0.76848204       6.49586222       0.91497856       0.02552482       0.18380933       0.08543495
Si       4.01905899       2.31226214       1.30176289       0.00294674      -0.16345278      -0.10404064
Si       2.27207493       3.74891552       1.90790850       0.00684273       0.09005787       0.05507809
Si       0.17264550       1.09046121      -0.42775510      -0.08535933      -0.03742827      -0.02949603
Si       0.54020701      -2.18838664      12.21981705      -0.07429928       0.06829471      -0.08018756
Si      -1.25955878      -0.85028095      13.02857436       0.07067130      -0.06433722       0.10343311
Si       1.57757819      -6.64420435      10.73174266       0.35094368       0.09963033       0.07336675
Si       1.66048764      -5.88081640      12.96505788      -0.05706789       0.06599255       0.13074784
Si       1.02362515      -1.96923905       7.82925769      -0.03435969       0.09795429       0.13698620
Si       1.56514326      -7.52630535      14.68256471       0.04557564       0.04197894      -0.19166429
Si       2.64898560      -3.70193976       7.45789329       0.06621544      -0.06186379      -0.18718579
Si      -0.02669186      -4.24986204      13.23123990       0.19628395       0.04237762      -0.12977487
Si       2.73294722       5.74487182      -0.68078162       0.03709965       0.06550650       0.03083261
Si       2.40842508       0.02774662       7.42271375      -0.08654011      -0.26090665      -0.16539451
Si      -0.34282160      -0.85829397       5.54875380      -0.28456622      -0.03511748      -0.22776459
18