8
Lattice="6.079293541091182 0.0 0.0 0.0 4.698376808944126 -9.665125687203891e-17 0.0 1.2531097034669673e-16 6.091572691731147" Properties=species:S:1:pos:R:3:forces:R:3 unique_starting_index=2 config_type=initial n_minim_iter=1 energy=-1298.8374840684385 stress="-4.0954679750913936e-06 -3.1096062159089466e-12 -1.1003792642051757e-12 -3.1096062159089466e-12 0.00035755853067216074 -1.5822321307970721e-13 -1.1003792642051757e-12 -1.5822321307970721e-13 2.685050882518215e-05" free_energy=-1298.8374840684385 pbc="T T T"
Si       3.14437907       1.47180070       4.27586490      -0.58527748      -0.13144443       0.50690863
Si       2.93491447       1.47180070       1.81570779       0.58527748      -0.13144443      -0.50690863
Si       4.27015019       3.22660865       2.94029527       0.51136237       0.13260195       0.58542005
Si       1.80914335       3.22660865       3.15127742      -0.51136237       0.13260195      -0.58542005
Si       5.97456124       3.22657611       1.23007855       0.58527748       0.13144443       0.50690863
Si       0.10473230       3.22657611       4.86149414      -0.58527748       0.13144443      -0.50690863
Si       4.84879013       1.47176816       5.98608161      -0.51136237      -0.13260195       0.58542005
Si       1.23050342       1.47176816       0.10549108       0.51136237      -0.13260195      -0.58542005
8
Lattice="6.079794943026661 0.0 0.0 0.0 4.664667967910856 -9.599035982380165e-17 0.0 1.2520104723721658e-16 6.088279811068625" Properties=species:S:1:pos:R:3:forces:R:3 unique_starting_index=2 config_type=initial n_minim_iter=2 energy=-1299.2054405921435 stress="0.007639646646234784 -1.192432945564607e-13 1.148351224124485e-12 -1.192432945564607e-13 -0.002084127594592553 -5.0716281697702035e-12 1.148351224124485e-12 -5.0716281697702035e-12 0.0078061084192548955" free_energy=-1299.2054405921435 pbc="T T T"
Si       3.07689319       1.44613702       4.33219109      -0.29659623       0.22099603       0.03038125
Si       3.00290176       1.44613702       1.75608872       0.29659623       0.22099603      -0.03038125
Si       4.32969201       3.21869627       3.00642536       0.02787863      -0.22080452       0.29617570
Si       1.75010294       3.21869627       3.08185445      -0.02787863      -0.22080452      -0.29617570
Si       6.04279923       3.21853095       1.28805118       0.29659623      -0.22099603       0.03038125
Si       0.03699571       3.21853095       4.80022863      -0.29659623      -0.22099603      -0.03038125
Si       4.79000041       1.44597170       6.05056527      -0.02787863       0.22080452       0.29617570
Si       1.28979454       1.44597170       0.03771454       0.02787863       0.22080452      -0.29617570
8
Lattice="6.031568363483547 0.0 0.0 0.0 4.669544892311678 -9.699182591851693e-17 0.0 1.230117270200361e-16 6.038345030863035" Properties=species:S:1:pos:R:3:forces:R:3 unique_starting_index=2 config_type=initial n_minim_iter=3 energy=-1299.232872781109 stress="-0.003706819812568093 -3.888363573829937e-12 -3.58976071537105e-12 -3.888363573829937e-12 -0.002496372188290483 3.390107337838613e-12 -3.58976071537105e-12 3.390107337838613e-12 -0.0035580843794930793" free_energy=-1299.232872781109 pbc="T T T"
Si       3.04014868       1.44659235       4.30597759      -0.24740424       0.14998099      -0.15779713
Si       2.99141969       1.44659235       1.73236744       0.24740424       0.14998099       0.15779713
Si       4.30473972       3.22314010       2.99409297      -0.16081451      -0.14938272       0.24665129
Si       1.72682864       3.22314010       3.04425206       0.16081451      -0.14938272      -0.24665129
Si       6.00720387       3.22295254       1.28680508       0.24740424      -0.14998099      -0.15779713
Si       0.02436450       3.22295254       4.75153995      -0.24740424      -0.14998099       0.15779713
Si       4.74261282       1.44640479       6.01326548       0.16081450       0.14938272       0.24665129
Si       1.28895554       1.44640479       0.02507955      -0.16081450       0.14938272      -0.24665129
8
Lattice="6.0542694182421135 0.0 0.0 0.0 4.701217414296794 -9.748101123558739e-17 0.0 1.236155254139087e-16 6.057547560387572" Properties=species:S:1:pos:R:3:forces:R:3 unique_starting_index=2 config_type=initial n_minim_iter=4 energy=-1299.2453460022475 stress="0.0005987270561244554 8.4225667781425e-12 6.948944400260587e-13 8.4225667781425e-12 0.006253412280921922 1.154606701090957e-12 6.948944400260587e-13 1.154606701090957e-12 0.0008498602686613943" free_energy=-1299.2453460022475 pbc="T T T"
Si       3.03724782       1.45738415       4.32571724      -0.10193798       0.18214906      -0.17580700
Si       3.01702160       1.45738415       1.73183032       0.10193798       0.18214906       0.17580700
Si       4.32701249       3.24405053       3.01792201      -0.17774120      -0.18205541       0.10025012
Si       1.72725693       3.24405053       3.03962555       0.17774120      -0.18205541      -0.10025012
Si       6.04415630       3.24383326       1.29694346       0.10193798      -0.18214906      -0.17580700
Si       0.01011311       3.24383326       4.76060410      -0.10193798      -0.18214906       0.17580700
Si       4.75439163       1.45716688       6.04669579       0.17774120       0.18205541       0.10025012
Si       1.29987778       1.45716688       0.01085177      -0.17774120       0.18205541      -0.10025012
8
Lattice="6.06623376356671 0.0 0.0 0.0 4.660103881383559 -9.657797894213569e-17 0.0 1.238292540047775e-16 6.064067783790942" Properties=species:S:1:pos:R:3:forces:R:3 unique_starting_index=2 config_type=initial n_minim_iter=5 energy=-1299.2589166830346 stress="0.0010641793613947496 -4.072166732914579e-12 -2.6098139981838677e-13 -4.072166732914579e-12 -0.00278595344728092 -8.737072055849023e-12 -2.6098139981838677e-13 -8.737072055849023e-12 0.0013731562856016978" free_energy=-1299.2589166830346 pbc="T T T"
Si       3.03597317       1.44831394       4.32909044      -0.03144577       0.21576654      -0.12003472
Si       3.03026059       1.44831394       1.73497735       0.03144577       0.21576654       0.12003472
Si       4.33423370       3.21201844       3.02839646      -0.11783983      -0.21498848       0.02969355
Si       1.73200006       3.21201844       3.03567132       0.11783983      -0.21498848      -0.02969355
Si       6.06337747       3.21178994       1.29705655       0.03144577      -0.21576654      -0.12003472
Si       0.00285629       3.21178994       4.76701124      -0.03144577      -0.21576654       0.12003472
Si       4.76511695       1.44808544       6.06043036       0.11783983       0.21498848       0.02969355
Si       1.30111682       1.44808544       0.00363743      -0.11783983       0.21498848      -0.02969355
8
Lattice="6.0710488326868095 0.0 0.0 0.0 4.656411293737752 -9.656783174768842e-17 0.0 1.2360139027473937e-16 6.057148420248179" Properties=species:S:1:pos:R:3:forces:R:3 unique_starting_index=2 config_type=initial n_minim_iter=6 energy=-1299.2775677503712 stress="0.000750537856881158 -6.879709654415007e-12 3.015226275628167e-14 -6.879709654415007e-12 -0.00394441122048866 4.95922634604836e-12 3.015226275628167e-14 4.95922634604836e-12 0.0010432835829125718" free_energy=-1299.2775677503712 pbc="T T T"
Si       3.03595529       1.45667623       4.31465418      -0.00842463       0.16396138       0.00963577
Si       3.03509355       1.45667623       1.74249424       0.00842463       0.16396138      -0.00963577
Si       4.32806832       3.19997985       3.02728474       0.01576885      -0.16313753       0.00705916
Si       1.74298051       3.19997985       3.02986368      -0.01576885      -0.16313753      -0.00705916
Si       6.07061796       3.19973506       1.28607997       0.00842463      -0.16396138       0.00963577
Si       0.00043087       3.19973506       4.77106845      -0.00842463      -0.16396138      -0.00963577
Si       4.77850493       1.45643144       6.05585895      -0.01576885       0.16313753       0.00705916
Si       1.29254391       1.45643144       0.00128947       0.01576885       0.16313753      -0.00705916
8
Lattice="6.077006123066516 0.0 0.0 0.0 4.669060799149859 -9.695268471245807e-17 0.0 1.232226199667724e-16 6.046703476846026" Properties=species:S:1:pos:R:3:forces:R:3 unique_starting_index=2 config_type=initial n_minim_iter=7 energy=-1299.2863973052765 stress="-0.0012194445228274823 -1.7369132394991111e-12 -5.148655867854022e-13 -1.7369132394991111e-12 -0.0006689747345805442 1.0377645072754545e-11 -5.148655867854022e-13 1.0377645072754545e-11 -0.0010328652583987256" free_energy=-1299.2863973052765 pbc="T T T"
Si       3.03282626       1.47141586       4.30141331       0.04592858       0.09435627       0.09493488
Si       3.04417986       1.47141586       1.74529017      -0.04592858       0.09435627      -0.09493488
Si       4.32654455       3.19792355       3.02803801       0.10166733      -0.09551608      -0.04643139
Si       1.75046157       3.19792355       3.01866547      -0.10166733      -0.09551608       0.04643139
Si       6.08268292       3.19764494       1.27806157      -0.04592858      -0.09435627       0.09493488
Si      -0.00567680       3.19764494       4.76864191       0.04592858      -0.09435627      -0.09493488
Si       4.78896463       1.47113725       6.05138974      -0.10166733       0.09551608      -0.04643139
Si       1.28804149       1.47113725      -0.00468627       0.10166733       0.09551608       0.04643139
8
Lattice="6.137184917181531 0.0 0.0 0.0 4.680433438674131 -9.693771052237697e-17 0.0 1.240698350501686e-16 6.072149152993671" Properties=species:S:1:pos:R:3:forces:R:3 unique_starting_index=2 config_type=initial n_minim_iter=8 energy=-1299.297259786832 stress="0.0028473342374179616 7.632432966294199e-12 5.80692275838284e-14 7.632432966294199e-12 0.008083942726825466 -4.492461608743172e-12 5.80692275838284e-14 -4.492461608743172e-12 0.003166193315575902" free_energy=-1299.297259786832 pbc="T T T"
Si       3.05595016       1.49462323       4.32228549       0.09789575       0.08656847       0.15833396
Si       3.08123475       1.49462323       1.74986367      -0.09789575       0.08656847      -0.15833396
Si       4.37284185       3.18603679       3.04748178       0.17687612      -0.09409707      -0.09692228
Si       1.76434307       3.18603679       3.02466737      -0.17687612      -0.09409707       0.09692228
Si       6.14982721       3.18581021       1.28621091      -0.09789575      -0.08656847       0.15833396
Si      -0.01264230       3.18581021       4.78593824       0.09789575      -0.08656847      -0.15833396
Si       4.83293553       1.49439665       6.08355636      -0.17687612       0.09409707      -0.09692228
Si       1.30424939       1.49439665      -0.01140721       0.17687612       0.09409707       0.09692228
8
Lattice="6.311144660671451 0.0 0.0 0.0 4.635288692289383 -9.552818602545759e-17 0.0 1.2579877638397024e-16 6.125374360004851" Properties=species:S:1:pos:R:3:forces:R:3 unique_starting_index=2 config_type=initial n_minim_iter=9 energy=-1299.3274384696572 stress="0.001546588014494757 2.311744217430058e-12 7.908406333062395e-13 2.311744217430058e-12 0.012244061494716772 2.048387479663844e-12 7.908406333062395e-13 2.048387479663844e-12 0.004971743559403942" free_energy=-1299.3274384696572 pbc="T T T"
Si       3.12847772       1.53977756       4.38155536       0.18654709      -0.09641759       0.14079788
Si       3.18266694       1.53977756       1.74381900      -0.18654709      -0.09641759      -0.14079788
Si       4.52202614       3.09526451       3.08759929       0.25343725       0.08250137      -0.17909076
Si       1.78911852       3.09526451       3.03777507      -0.25343725       0.08250137       0.17909076
Si       6.33823927       3.09551113       1.31886818      -0.18654709       0.09641759       0.14079788
Si      -0.02709461       3.09551113       4.80650618       0.18654709       0.09641759      -0.14079788
Si       4.94469086       1.54002418       6.15028647      -0.25343725      -0.08250137      -0.17909076
Si       1.36645381       1.54002418      -0.02491211       0.25343725      -0.08250137       0.17909076
8
Lattice="6.3800836942658865 0.0 0.0 0.0 4.572820975144672 -9.462144423755634e-17 0.0 1.2486790638170795e-16 6.103605477667722" Properties=species:S:1:pos:R:3:forces:R:3 unique_starting_index=2 config_type=initial n_minim_iter=10 energy=-1299.377115778337 stress="-0.0055849503412700495 6.848198467786664e-13 1.8154480261517048e-13 6.848198467786664e-13 -0.007801753708681866 -3.2224534267755963e-12 1.8154480261517048e-13 -3.2224534267755963e-12 0.00353750009633149" free_energy=-1299.377115778337 pbc="T T T"
Si       3.18341979       1.51700424       4.38813184       0.04973111       0.02032982      -0.14321610
Si       3.19666391       1.51700424       1.71547364      -0.04973111       0.02032982       0.14321610
Si       4.59842518       3.05510100       3.05717066       0.07779809      -0.01048653      -0.04693745
Si       1.78165852       3.05510100       3.04643482      -0.07779809      -0.01048653       0.04693745
Si       6.38670576       3.05581673       1.33632910      -0.04973111      -0.02032982      -0.14321610
Si      -0.00662206       3.05581673       4.76727638       0.04973111      -0.02032982       0.14321610
Si       4.97170036       1.51771997       6.10897340      -0.07779809       0.01048653      -0.04693745
Si       1.40838333       1.51771997      -0.00536792       0.07779809       0.01048653       0.04693745
8
Lattice="6.680057566165344 0.0 0.0 0.0 4.570478126497907 -9.670846617754203e-17 0.0 1.1867336510846135e-16 5.937935884667764" Properties=species:S:1:pos:R:3:forces:R:3 unique_starting_index=2 config_type=initial n_minim_iter=11 energy=-1299.447767294302 stress="-0.0070830473338054836 -1.4605593047624595e-11 -7.44641015875273e-14 -1.4605593047624595e-11 0.007840887881382238 -5.254481412210307e-12 -7.44641015875273e-14 -5.254481412210307e-12 0.008377273670486877" free_energy=-1299.447767294302 pbc="T T T"
Si       3.36199475       1.53888864       4.28238903      -0.18311261      -0.17813132      -0.40396061
Si       3.31806281       1.53888864       1.65554686       0.18311261      -0.17813132       0.40396061
Si       4.84256627       3.03054096       2.94894889       0.00957587       0.20668062       0.15580865
Si       1.83749130       3.03054096       2.98898700      -0.00957587       0.20668062      -0.15580865
Si       6.65809159       3.03158949       1.31342109       0.18311261       0.17813132      -0.40396061
Si       0.02196597       3.03158949       4.62451480      -0.18311261       0.17813132       0.40396061
Si       5.17752008       1.53993717       5.91791683      -0.00957587      -0.20668062       0.15580865
Si       1.50253748       1.53993717       0.02001906       0.00957587      -0.20668062      -0.15580865
8
Lattice="6.839849021192142 0.0 0.0 0.0 4.574856117288902 -1.0131392217078085e-16 0.0 1.1011496000129139e-16 5.805839008035974" Properties=species:S:1:pos:R:3:forces:R:3 unique_starting_index=2 config_type=initial n_minim_iter=12 energy=-1299.475449533827 stress="-0.0037151474285652248 5.166272292939866e-12 1.3593974318257954e-12 5.166272292939866e-12 0.01283814040211531 -4.174712570560471e-12 1.3593974318257954e-12 -4.174712570560471e-12 0.006947664120787415" free_energy=-1299.475449533827 pbc="T T T"
Si       3.45716646       1.54062098       4.18710204      -0.31161061      -0.21560482      -0.39005066
Si       3.38268256       1.54062098       1.61873697       0.31161061      -0.21560482       0.39005066
Si       4.96630897       3.03324402       2.87091979      -0.07829136       0.25663492       0.24626276
Si       1.87354005       3.03324402       2.93491922       0.07829136       0.25663492      -0.24626276
Si       6.80260707       3.03423513       1.28418254       0.31161061       0.21560482      -0.39005066
Si       0.03724195       3.03423513       4.52165647      -0.31161061       0.21560482       0.39005066
Si       5.29346456       1.54161210       5.77383929       0.07829136      -0.25663492       0.24626276
Si       1.54638446       1.54161210       0.03199971      -0.07829136      -0.25663492      -0.24626276
8
Lattice="6.897417068890402 0.0 0.0 0.0 4.614277841103239 -1.0763826343538499e-16 0.0 9.887191258477118e-17 5.619293250263637" Properties=species:S:1:pos:R:3:forces:R:3 unique_starting_index=2 config_type=initial n_minim_iter=13 energy=-1299.5187327863673 stress="-0.0049655409035888574 3.0328660751298592e-12 -2.2978403170217776e-13 3.0328660751298592e-12 0.01920530517171198 -1.0504002193843885e-11 -2.2978403170217776e-13 -1.0504002193843885e-11 -0.005878198576368526" free_energy=-1299.5187327863673 pbc="T T T"
Si       3.48914934       1.52335575       4.03223714      -0.34991931      -0.15757071       0.13201667
Si       3.40826773       1.52335575       1.58705611       0.34991932      -0.15757071      -0.13201667
Si       4.98923002       3.09083447       2.77522659       0.10107623       0.21386919       0.25975625
Si       1.90818705       3.09083447       2.84406666      -0.10107623       0.21386919      -0.25975626
Si       6.85697626       3.09092209       1.22259051       0.34991932       0.15757071       0.13201667
Si       0.04044081       3.09092209       4.39670274      -0.34991932       0.15757071      -0.13201667
Si       5.35689558       1.52344337       5.58487321      -0.10107623      -0.21386919       0.25975625
Si       1.54052149       1.52344337       0.03442004       0.10107623      -0.21386919      -0.25975625
8
Lattice="7.056494489184289 0.0 0.0 0.0 4.560462117537775 -1.1218926245972997e-16 0.0 9.052166596771675e-17 5.568149825815527" Properties=species:S:1:pos:R:3:forces:R:3 unique_starting_index=2 config_type=initial n_minim_iter=14 energy=-1299.5866182871707 stress="0.006992715072783836 -1.2156258587615397e-11 7.781810341733633e-13 -1.2156258587615397e-11 0.007527407268022747 5.968651972015887e-12 7.781810341733633e-13 5.968651972015887e-12 -0.0027332834457673453" free_energy=-1299.5866182871707 pbc="T T T"
Si       3.53167313       1.50910441       4.00473827      -0.03977858      -0.14213831       0.17769445
Si       3.52482135       1.50910441       1.56341156       0.03977858      -0.14213831      -0.17769445
Si       5.12119730       3.05226977       2.77762704       0.00337436       0.19679405       0.03434598
Si       1.93529719       3.05226977       2.79052279      -0.00337437       0.19679405      -0.03434599
Si       7.05306860       3.05135771       1.22066335       0.03977858       0.14213831       0.17769445
Si       0.00342589       3.05135771       4.34748647      -0.03977858       0.14213831      -0.17769445
Si       5.46354444       1.50819235       5.56170195      -0.00337437      -0.19679405       0.03434599
Si       1.59295005       1.50819235       0.00644787       0.00337437      -0.19679405      -0.03434598
8
Lattice="6.957648061624226 0.0 0.0 0.0 4.556441708171244 -1.1809130733712433e-16 0.0 8.398711312585817e-17 5.618880248215358" Properties=species:S:1:pos:R:3:forces:R:3 unique_starting_index=2 config_type=initial n_minim_iter=15 energy=-1299.6104068608845 stress="0.0018682350589786204 5.5520785763084324e-12 2.608041546532568e-13 5.5520785763084324e-12 0.0031303232517988465 9.352320590385866e-12 2.608041546532568e-13 9.352320590385866e-12 0.004718391193040817" free_energy=-1299.6104068608845 pbc="T T T"
Si       3.47197253       1.49333037       4.04289312       0.04560857      -0.01318493      -0.00289157
Si       3.48567554       1.49333037       1.57598713      -0.04560857      -0.01318493       0.00289157
Si       5.04811387       3.06461310       2.81095106       0.02598251       0.07855619      -0.02936435
Si       1.90953419       3.06461310       2.80792919      -0.02598251       0.07855619       0.02936435
Si       6.96449957       3.06311134       1.23345300      -0.04560857       0.01318493      -0.00289157
Si      -0.00685151       3.06311134       4.38542725       0.04560857       0.01318493       0.00289157
Si       5.38835822       1.49182861       5.62039119      -0.02598251      -0.07855619      -0.02936435
Si       1.56928984       1.49182861      -0.00151094       0.02598251      -0.07855619       0.02936435
8
Lattice="6.9945390900159925 0.0 0.0 0.0 4.546070362399379 -1.2656040323002232e-16 0.0 6.787640683902807e-17 5.43224787817398" Properties=species:S:1:pos:R:3:forces:R:3 unique_starting_index=2 config_type=initial n_minim_iter=16 energy=-1299.6344850389492 stress="-0.005203316545333084 -1.62161341106804e-11 -9.900375894957325e-14 -1.62161341106804e-11 -0.0015837897539331344 5.996497172787427e-12 -9.900375894957325e-14 5.996497172787427e-12 -0.0035653815447897197" free_energy=-1299.6344850389492 pbc="T T T"
Si       3.50017497       1.43982661       3.91253609      -0.05199824       0.12313657       0.18478560
Si       3.49436412       1.43982661       1.51971179       0.05199824       0.12313657      -0.18478560
Si       5.08524405       3.11211933       2.70936452      -0.14641808       0.21119155       0.04022194
Si       1.90929504       3.11211933       2.72288336       0.14641808       0.21119155      -0.04022194
Si       6.99163366       3.10624375       1.19641215       0.05199824      -0.12313657       0.18478560
Si       0.00290543       3.10624375       4.23583573      -0.05199824      -0.12313657      -0.18478560
Si       5.40656459       1.43395103       5.42548846       0.14641809      -0.21119155       0.04022194
Si       1.58797450       1.43395103       0.00675942      -0.14641808      -0.21119154      -0.04022194
8
Lattice="7.292511561435017 0.0 0.0 0.0 4.541409456085961 -1.4599077345014585e-16 0.0 3.258381391607062e-17 5.108660290012691" Properties=species:S:1:pos:R:3:forces:R:3 unique_starting_index=2 config_type=initial n_minim_iter=17 energy=-1299.7101416191906 stress="-0.004097221953446701 -1.0049524847116228e-11 -1.0965500430422024e-12 -1.0049524847116228e-11 0.00042697510740800183 -5.274611022652843e-13 -1.0965500430422024e-12 -5.274611022652843e-13 -0.02211893651144501" free_energy=-1299.7101416191906 pbc="T T T"
Si       3.61861333       1.34592562       3.70467660       0.28360705       0.15609228       0.82726245
Si       3.67389823       1.34592562       1.40398369      -0.28360705       0.15609228      -0.82726245
Si       5.30843515       3.24156603       2.56581689      -0.36368545       0.47706902      -0.18055901
Si       1.98407642       3.24156603       2.54284340       0.36368545       0.47706902       0.18055901
Si       7.32015401       3.19548384       1.15034645      -0.28360705      -0.15609228       0.82726245
Si      -0.02764245       3.19548384       3.95831384       0.28360705      -0.15609228      -0.82726245
Si       5.63033220       1.29984343       5.12014704       0.36368546      -0.47706902      -0.18055901
Si       1.66217937       1.29984343      -0.01148675      -0.36368546      -0.47706902       0.18055901
8
Lattice="7.412920072743158 0.0 0.0 0.0 4.538932390257731 -1.5776479858663681e-16 0.0 1.3463193230501554e-17 5.001212543365342" Properties=species:S:1:pos:R:3:forces:R:3 unique_starting_index=2 config_type=initial n_minim_iter=18 energy=-1299.73722145742 stress="-0.00533589234951603 -3.0157214608604655e-12 6.377454691317162e-13 -3.0157214608604655e-12 0.005865522034896172 5.874255183069959e-12 6.377454691317162e-13 5.874255183069959e-12 -0.035443622835132665" free_energy=-1299.73722145742 pbc="T T T"
Si       3.67001679       1.30817400       3.63831756       0.37412652       0.09354593       1.17001170
Si       3.74290328       1.30817400       1.36289498      -0.37412652       0.09354593      -1.17001170
Si       5.39731113       3.29504052       2.51641754      -0.51723723       0.44593289      -0.21031647
Si       2.01560894       3.29504052       2.48479500       0.51723723       0.44593289       0.21031647
Si       7.44936332       3.23075839       1.13771129      -0.37412652      -0.09354593       1.17001170
Si      -0.03644325       3.23075839       3.86350125       0.37412652      -0.09354593      -1.17001170
Si       5.72206898       1.24389187       5.01702382       0.51723723      -0.44593288      -0.21031647
Si       1.69085109       1.24389187      -0.01581127      -0.51723723      -0.44593288       0.21031647
8
Lattice="7.571471112977121 0.0 0.0 0.0 4.5293736175500445 -1.6224936089226044e-16 0.0 5.061536983543062e-18 4.937920403793375" Properties=species:S:1:pos:R:3:forces:R:3 unique_starting_index=2 config_type=initial n_minim_iter=19 energy=-1299.797960647843 stress="0.002876788623358427 -8.736164298305751e-13 1.821293390680068e-12 -8.736164298305751e-13 0.011175311599894527 -1.0080059168064936e-11 1.821293390680068e-12 -1.0080059168064936e-11 -0.04574508947504671" free_energy=-1299.797960647843 pbc="T T T"
Si       3.73465745       1.27399974       3.60881311       0.50829977       0.03622669       1.23312626
Si       3.83681366       1.27399974       1.32910729      -0.50829977       0.03622669      -1.23312626
Si       5.50853088       3.34452666       2.49282538      -0.53938047       0.28509162      -0.30575921
Si       2.06294023       3.34452666       2.44509502       0.53938047       0.28509162       0.30575922
Si       7.62254922       3.25537388       1.13985291      -0.50829977      -0.03622669       1.23312626
Si      -0.05107811       3.25537388       3.79806750       0.50829977      -0.03622669      -1.23312626
Si       5.84867579       1.18484696       4.96178558       0.53938047      -0.28509162      -0.30575922
Si       1.72279532       1.18484696      -0.02386518      -0.53938047      -0.28509162       0.30575921
8
Lattice="7.645031898665748 0.0 0.0 0.0 4.527704644945582 -1.6590257345186082e-16 0.0 3.584623594308348e-18 5.014917561778691" Properties=species:S:1:pos:R:3:forces:R:3 unique_starting_index=2 config_type=initial n_minim_iter=20 energy=-1299.9528061886572 stress="0.02288362081021084 -9.89245548692754e-13 -2.946843334989836e-13 -9.89245548692754e-13 0.01673676774812507 6.224167258061098e-13 -2.946843334989836e-13 6.224167258061098e-13 -0.0084873867532249" free_energy=-1299.9528061886572 pbc="T T T"
Si       3.76646773       1.26751895       3.68041253       0.56975548       0.01445132       0.86381970
Si       3.87856417       1.26751895       1.33450503      -0.56975548       0.01445132      -0.86381970
Si       5.54363093       3.37893451       2.53515956      -0.13725498       0.09162387      -0.32250959
Si       2.10140097       3.37893451       2.47975800       0.13725498       0.09162387       0.32250959
Si       7.70108012       3.26018569       1.17295375      -0.56975548      -0.01445132       0.86381969
Si      -0.05604822       3.26018569       3.84196381       0.56975548      -0.01445132      -0.86381969
Si       5.92391692       1.14877014       5.04261835       0.13725499      -0.09162387      -0.32250959
Si       1.72111498       1.14877014      -0.02770078      -0.13725499      -0.09162387       0.32250959
8
Lattice="7.549924900102119 0.0 0.0 0.0 4.5030376687007 -1.6783392456654134e-16 0.0 2.6012834705668683e-18 5.051057699103299" Properties=species:S:1:pos:R:3:forces:R:3 unique_starting_index=2 config_type=initial n_minim_iter=21 energy=-1300.0973454508528 stress="-0.0031241637691052896 -8.988601460068571e-13 7.218684109720961e-13 -8.988601460068571e-13 0.008660577035131865 -4.320310828729738e-13 7.218684109720961e-13 -4.320310828729738e-13 0.0032885609511900263" free_energy=-1300.0973454508528 pbc="T T T"
Si       3.75421690       1.24518591       3.72061608       0.19895102       0.03651029       0.39304505
Si       3.79570800       1.24518591       1.33044162      -0.19895102       0.03651029      -0.39304505
Si       5.47017623       3.39136007       2.53394920      -0.15944551      -0.09805324      -0.12373699
Si       2.07974867       3.39136007       2.51710850       0.15944551      -0.09805323       0.12373699
Si       7.57067045       3.25785176       1.19508723      -0.19895102      -0.03651029       0.39304505
Si      -0.02074555       3.25785176       3.85597047       0.19895102      -0.03651029      -0.39304505
Si       5.85471112       1.11167760       5.05947805       0.15944550       0.09805324      -0.12373699
Si       1.69521378       1.11167760      -0.00842035      -0.15944550       0.09805324       0.12373699
