8
Lattice="5.841769239313166 0.6335715601972833 0.5004942300034845 2.3639217281982257 5.379549686565657 0.5004942300034823 2.3639217281982408 1.7322792225289456 5.117544137541939" Properties=species:S:1:pos:R:3:forces:R:3 unique_starting_index=42 config_type=initial n_minim_iter=1 energy=-1300.8024147270335 stress="0.0017261018906092572 0.0024636257021246766 0.001946158145020334 0.0024636257021246766 0.0001695043665433315 0.0014261425353183763 0.001946158145020334 0.0014261425353183763 -0.0005092466896477069" free_energy=-1300.8024147270335 pbc="T T T"
Si       6.89901611       6.01822086       1.85518775      -0.60867384       0.23026397      -0.63555600
Si       7.81692956       2.90804211       4.20666501       0.03621019      -0.76871303      -0.48498028
Si       5.12773802       5.61516645       5.42524984      -0.72209678      -0.41020339       0.37114172
Si       8.11519357       6.98702518       3.70628185       0.56835785       0.47632064      -0.17223954
Si       9.10709360       4.90975724       4.62239578       0.62540733      -0.07531376       0.42751839
Si       7.42511990       6.16481017       5.93920220       0.11658309       0.55921488       0.50325497
Si       6.57114575       4.81532833       3.80390187      -0.51436989      -0.37692969      -0.29775821
Si       1.80728431       1.32437594       1.04619992       0.49858206       0.36536038       0.28861896
8
Lattice="5.738415583331054 0.5072487817348313 0.40070467865623016 2.212332527484447 5.319050622190244 0.40070467865622544 2.2123325274844627 1.6211948242496543 5.08179014745252" Properties=species:S:1:pos:R:3:forces:R:3 unique_starting_index=42 config_type=initial n_minim_iter=2 energy=-1300.9911829505554 stress="-0.004020017089971626 -0.010026609327605145 -0.007920589292913503 -0.010026609327605145 0.0023151154493480947 -0.005804199055500645 -0.007920589292913503 -0.005804199055500645 0.005077536534958621" free_energy=-1300.9911829505554 pbc="T T T"
Si       6.61391265       5.86259568       1.64375908      -0.26144567       0.30248996      -0.38224018
Si       7.58264860       2.65027374       4.03674396       0.20968053      -0.45066533      -0.24268582
Si       4.81136845       5.41612041       5.32279868      -0.36656664      -0.15837770       0.38276229
Si       7.83003894       6.79602531       3.49785350       0.11371843       0.10598970       0.10527258
Si       8.83906576       4.65736337       4.46209949       0.13532293       0.12012449       0.05005824
Si       7.10370923       5.96730303       5.80164275       0.15530929       0.07019353       0.07873950
Si       6.28958983       4.60900446       3.64091491      -0.42277284      -0.30980747      -0.24473455
Si       1.76570178       1.29390431       1.02212865       0.43675397       0.32005282       0.25282794
8
Lattice="5.751485414491397 0.5655553148820157 0.44676432723418513 2.2718677763698825 5.313949011233618 0.44676432723418136 2.271867776369898 1.6648221886509853 5.066164183902359" Properties=species:S:1:pos:R:3:forces:R:3 unique_starting_index=42 config_type=initial n_minim_iter=3 energy=-1301.1051073618949 stress="-0.0023508358218502887 -0.0037317640471843227 -0.0029479327795824896 -0.0037317640471843227 7.012101965772159e-06 -0.0021602418819984225 -0.0029479327795824896 -0.0021602418819984225 0.001035146687401824" free_energy=-1301.1051073618949 pbc="T T T"
Si       6.66982942       5.91921032       1.69239856      -0.12488538       0.45973650       0.05645641
Si       7.65347781       2.70598727       4.06076329       0.40076022      -0.00470680      -0.26364830
Si       4.88583065       5.45123736       5.36661517       0.11623728      -0.16769037       0.43417757
Si       7.95357829       6.87485694       3.56768277      -0.24269015      -0.10369359      -0.07433970
Si       8.95145063       4.74706930       4.53743215      -0.17198506      -0.11866244      -0.17753204
Si       7.22310308       6.05914216       5.86216718      -0.16495930      -0.20239949      -0.08366682
Si       6.34950051       4.65290694       3.67559597      -0.30987467      -0.22707582      -0.17938011
Si       1.81023475       1.32653802       1.04790787       0.49739706       0.36449201       0.28793298
8
Lattice="5.779759551969006 0.6125059822307153 0.48385333119061297 2.3251548234898314 5.3267662895651195 0.4838533311906107 2.3251548234898474 1.7038708777233453 5.070047059130498" Properties=species:S:1:pos:R:3:forces:R:3 unique_starting_index=42 config_type=initial n_minim_iter=4 energy=-1301.1536052718998 stress="0.003222882555519107 0.0011511136665833682 0.0009093301907165619 0.0011511136665833682 0.002495572132260441 0.0006663561490427132 0.0009093301907165619 0.0006663561490427132 0.0021784299762410385" free_energy=-1301.1536052718998 pbc="T T T"
Si       6.73586565       5.98732477       1.74256368      -0.06724508       0.45549034       0.24469958
Si       7.73832103       2.76461689       4.09044659       0.41407493       0.19144277      -0.25251308
Si       4.96729506       5.49475463       5.42126586       0.30728625      -0.16759756       0.38646792
Si       8.06634551       6.95286324       3.63165897      -0.34642844      -0.21465017      -0.11452936
Si       9.05980351       4.82876078       4.60436899      -0.30903772      -0.17292254      -0.23194357
Si       7.33364017       6.14248239       5.92324370      -0.25798480      -0.28180314      -0.18230515
Si       6.41462146       4.70062750       3.71329316      -0.25962956      -0.19025626      -0.15029424
Si       1.85562766       1.35980189       1.07418490       0.51896443       0.38029656       0.30041789
8
Lattice="5.757042983457688 0.6375616393191545 0.5036462205649476 2.3422034321335365 5.297557157767397 0.503646220564947 2.342203432133553 1.716364079242765 5.037049305177289" Properties=species:S:1:pos:R:3:forces:R:3 unique_starting_index=42 config_type=initial n_minim_iter=5 energy=-1301.1966437777548 stress="-0.003858399361803943 0.0033669275722592856 0.00265972768695961 0.0033669275722592856 -0.005985731929591323 0.0019490455212948672 0.00265972768695961 0.0019490455212948672 -0.006913350734491026" free_energy=-1301.1966437777548 pbc="T T T"
Si       6.72207813       5.99904368       1.75832187       0.04713409       0.50970213       0.36684362
Si       7.74534220       2.77608615       4.07057429       0.50022417       0.33173714      -0.19057379
Si       4.98034662       5.47617226       5.42901835       0.46701535      -0.09810740       0.41093031
Si       8.08042929       6.95438441       3.64317279      -0.50235270      -0.21921179      -0.14600387
Si       9.06549662       4.84296472       4.61432246      -0.36035823      -0.23764405      -0.36796252
Si       7.34889930       6.15243166       5.92205806      -0.33515971      -0.42094244      -0.17945641
Si       6.39932178       4.68941591       3.70443649      -0.32035366      -0.23475481      -0.18544618
Si       1.88653244       1.38244888       1.09207504       0.50385069       0.36922123       0.29166886
8
Lattice="5.782401339216179 0.6808070927430604 0.5378082651898829 2.3910790266613007 5.3087102608410195 0.5378082651898832 2.391079026661319 1.7521800607447102 5.039990813324355" Properties=species:S:1:pos:R:3:forces:R:3 unique_starting_index=42 config_type=initial n_minim_iter=6 energy=-1301.2701078470786 stress="0.002794923252000618 0.00610928743611451 0.004826073800883123 0.00610928743611451 -0.0010651199510421394 0.003536541506072918 0.004826073800883123 0.003536541506072918 -0.002748283638951713" free_energy=-1301.2701078470786 pbc="T T T"
Si       6.76730742       6.09017908       1.80209057       0.32679714       0.31507300       0.45719757
Si       7.84586911       2.82229454       4.07569047       0.39888195       0.49494501       0.10497434
Si       5.05469137       5.50011819       5.50754541       0.59211346       0.15565891       0.20067124
Si       8.17609147       7.02503511       3.69433025      -0.51784169      -0.27468434      -0.08273827
Si       9.16168284       4.90892273       4.67051509      -0.41791990      -0.17564774      -0.38072032
Si       7.44076868       6.22373100       5.97894639      -0.29338319      -0.45038385      -0.24806818
Si       6.43061653       4.71234867       3.72255238      -0.36329392      -0.26622138      -0.21030342
Si       1.96721662       1.44157416       1.13878146       0.27464615       0.20126039       0.15898704
8
Lattice="5.767432137270075 0.6912348344179717 0.5460457317495147 2.3965130406037485 5.291295143964719 0.5460457317495181 2.3965130406037685 1.7561621001393095 5.021141794426913" Properties=species:S:1:pos:R:3:forces:R:3 unique_starting_index=42 config_type=initial n_minim_iter=7 energy=-1301.3696916388587 stress="-2.2605596727692217e-05 0.0060006594767902065 0.004740262407523301 0.0060006594767902065 -0.0038140142468306103 0.0034736590367632843 0.004740262407523301 0.0034736590367632843 -0.005467249919523021" free_energy=-1301.3696916388587 pbc="T T T"
Si       6.75660144       6.13127156       1.82442956       0.54539108      -0.01195885       0.25441574
Si       7.88182768       2.83879763       4.04854513       0.15289085       0.36873293       0.45053549
Si       5.08126006       5.48049720       5.54235004       0.39766156       0.44633210      -0.07053196
Si       8.14376326       7.00430750       3.68851976      -0.21222441      -0.03566695       0.00605762
Si       9.13217948       4.89757918       4.64794554      -0.09794086      -0.03846795      -0.18781861
Si       7.42106443       6.19605282       5.96012699      -0.06618484      -0.20165405      -0.03610038
Si       6.38216216       4.67684136       3.69450314      -0.50262928      -0.36832618      -0.29096181
Si       2.02487134       1.48382348       1.17215660      -0.21696410      -0.15899105      -0.12559608
8
Lattice="5.754608285044971 0.6449372411173533 0.5094726281480925 2.348502991429138 5.293013721740819 0.5094726281480988 2.3485029914291604 1.7209803893128852 5.031280464948176" Properties=species:S:1:pos:R:3:forces:R:3 unique_starting_index=42 config_type=initial n_minim_iter=8 energy=-1301.424237652556 stress="0.0038852451935195045 5.4999285828938575e-05 4.344707070433236e-05 5.4999285828938575e-05 0.003850494889020327 3.183794930475202e-05 4.344707070433236e-05 3.183794930475202e-05 0.0038353421036341805" free_energy=-1301.424237652556 pbc="T T T"
Si       6.71826231       6.09628483       1.79065694       0.17502220      -0.12918779      -0.08840084
Si       7.83691683       2.79991905       4.03105164      -0.07046289      -0.03835405       0.22068284
Si       5.03065847       5.45627622       5.51613221      -0.05779874       0.20180794      -0.10521325
Si       8.03220501       6.93484323       3.63150500       0.16858242       0.14922670       0.18100646
Si       9.03233604       4.82233120       4.57801530       0.19307877       0.20289690       0.07074895
Si       7.31923492       6.11122959       5.90574886       0.25163519       0.09729930       0.10326932
Si       6.31533215       4.62786841       3.65581661      -0.60872138      -0.44607035      -0.35237636
Si       1.99434340       1.46145264       1.15448460      -0.05133557      -0.03761865      -0.02971711
8
Lattice="5.69430454671757 0.6110452086774355 0.48269938303275267 2.298019348427908 5.245720883926907 0.48269938303275883 2.2980193484279305 1.6839860316717574 4.9914704578492115" Properties=species:S:1:pos:R:3:forces:R:3 unique_starting_index=42 config_type=initial n_minim_iter=9 energy=-1301.4576777320692 stress="-0.010564067289387497 -0.003241811020673636 -0.002560890995237564 -0.003241811020673636 -0.00851578738744996 -0.0018766180946598076 -0.002560890995237564 -0.0018766180946598076 -0.0076226392651063775" free_energy=-1301.4576777320692 pbc="T T T"
Si       6.61372072       6.03245636       1.72791877       0.34699181      -0.13955294      -0.00098919
Si       7.74456110       2.72025903       3.96730374      -0.02854224       0.08536799       0.36301097
Si       4.92687748       5.37942798       5.46856176       0.07280438       0.34089541      -0.13553287
Si       7.91328372       6.85059706       3.56280032       0.06815388       0.14941730       0.20920274
Si       8.91617929       4.73511634       4.50829298       0.16300732       0.20814440      -0.02899637
Si       7.20108018       6.02384204       5.83969663       0.24758018      -0.00674055       0.09692722
Si       6.17283823       4.52344901       3.57332979      -0.56842991      -0.41654481      -0.32905245
Si       1.98406590       1.45392129       1.14853517      -0.30156542      -0.22098680      -0.17457005
8
Lattice="5.696680116565935 0.592009231179116 0.46766178112805623 2.2805832490773357 5.253720522097341 0.4676617811280601 2.2805832490773583 1.6712088773917932 5.002734027905284" Properties=species:S:1:pos:R:3:forces:R:3 unique_starting_index=42 config_type=initial n_minim_iter=10 energy=-1301.5796715201784 stress="-0.00013337024293489912 -0.0014216981241576335 -0.0011230802447659734 -0.0014216981241576335 0.0007649041135705817 -0.000822991953007238 -0.0011230802447659734 -0.000822991953007238 0.0011565947088800492" free_energy=-1301.5796715201784 pbc="T T T"
Si       6.62353614       6.01791443       1.68995549       0.28048296       0.08794599       0.47865383
Si       7.73365148       2.68650793       3.98945918       0.16835372       0.52143400       0.12360538
Si       4.89140776       5.40092701       5.46320348       0.54792741       0.12104762      -0.02525287
Si       7.91061634       6.86615181       3.56516929      -0.19153984      -0.04881896      -0.08835286
Si       8.93020797       4.73574737       4.50071174      -0.10425089      -0.12483039      -0.14292010
Si       7.20590792       6.01951956       5.85428041      -0.15043642      -0.15334541      -0.02703881
Si       6.03985575       4.42599960       3.49634896      -0.42940278      -0.31466588      -0.24857249
Si       1.97487414       1.44718558       1.14321425      -0.12113415      -0.08876697      -0.07012208
8
Lattice="5.663580109290056 0.5581682901443075 0.44092889602106544 2.2383432052725145 5.232352357198328 0.44092889602106977 2.2383432052725367 1.6402554201055513 4.9881350861859675" Properties=species:S:1:pos:R:3:forces:R:3 unique_starting_index=42 config_type=initial n_minim_iter=11 energy=-1301.9049614720443 stress="-0.0005697800733552075 -0.0026357255321668646 -0.0020821095775897533 -0.0026357255321668646 0.0010955556652968597 -0.0015257676137914772 -0.0020821095775897533 -0.0015257676137914772 0.0018217217459886928" free_energy=-1301.9049614720443 pbc="T T T"
Si       6.64180028       6.00018151       1.65762097      -0.25560735       0.06653845       0.58370101
Si       7.72224419       2.66032025       4.01908411      -0.01355183       0.50677895      -0.39174073
Si       4.86300020       5.42905528       5.45343782       0.47915569      -0.41943218      -0.07039759
Si       7.81373156       6.83654352       3.55429116       0.02853840       0.08283317      -0.13718027
Si       8.87278936       4.70584235       4.42203239       0.08758234      -0.13293047       0.03395622
Si       7.16009520       5.93238801       5.82799477      -0.10037219       0.06163783       0.11234057
Si       5.66210729       4.14918595       3.27767810      -0.26161284      -0.19170960      -0.15144232
Si       1.98615024       1.45544869       1.14974175       0.03586776       0.02628386       0.02076312
8
Lattice="5.665292409353264 0.56346829425347 0.44511567087378484 2.2439128287758763 5.232388538608317 0.44511567087378695 2.2439128287758967 1.6443368340360955 4.987201034212389" Properties=species:S:1:pos:R:3:forces:R:3 unique_starting_index=42 config_type=initial n_minim_iter=12 energy=-1301.9215355781366 stress="-0.002796919996726238 -0.0024786347742727266 -0.001958014657431315 -0.0024786347742727266 -0.0012308392403726765 -0.0014348309810720708 -0.001958014657431315 -0.0014348309810720708 -0.0005479530603248879" free_energy=-1301.9215355781366 pbc="T T T"
Si       6.66040783       6.01531970       1.66905610      -0.30969034       0.00415131       0.51190012
Si       7.74228454       2.67449663       4.02926167      -0.08933298       0.42934058      -0.40700536
Si       4.88255504       5.44239162       5.46551750       0.38248610      -0.44561035      -0.11446782
Si       7.82260128       6.84922804       3.56675472       0.06754714       0.02847607      -0.12629857
Si       8.88755659       4.71904071       4.42365769       0.04750127      -0.10994247       0.08355306
Si       7.17712897       5.93630858       5.83744935      -0.09052609       0.09943633       0.05694098
Si       5.61311825       4.11328683       3.24931934      -0.04945703      -0.03624206      -0.02862966
Si       2.00054965       1.46600057       1.15807728       0.04147193       0.03039058       0.02400725
8
Lattice="5.737870191415226 0.6491326829423596 0.5127868463953315 2.3474613453948985 5.27578930639503 0.5127868463953261 2.3474613453949114 1.720217072253435 5.013756713247653" Properties=species:S:1:pos:R:3:forces:R:3 unique_starting_index=42 config_type=initial n_minim_iter=13 energy=-1301.9625467930923 stress="0.0058315994598146514 -0.0002217382847740609 -0.00017516368560218542 -0.0002217382847740609 0.005971700824839997 -0.0001283597692656107 -0.00017516368560218542 -0.0001283597692656107 0.0060327916954619944" free_energy=-1301.9625467930923 pbc="T T T"
Si       6.81708673       6.15539477       1.81827384      -0.06891020      -0.20851059       0.29602035
Si       7.92305097       2.84447890       4.09900953      -0.21958344       0.28730801      -0.07134809
Si       5.09909557       5.53829449       5.56724299       0.20781443      -0.13791906      -0.27137580
Si       8.02765339       6.99007234       3.68989427       0.14682434       0.12923071      -0.11671858
Si       9.08362851       4.87427793       4.54409042       0.16745721      -0.09014880       0.12534939
Si       7.38422002       6.08592640       5.94596035      -0.03551622       0.16519702       0.15274074
Si       5.77101060       4.22899018       3.34072000      -0.09207731      -0.06747415      -0.05330167
Si       2.07939819       1.52378069       1.20372108      -0.10600881      -0.07768314      -0.06136633
8
Lattice="5.745095033417527 0.7129942519921729 0.5632347339527476 2.4105328369421124 5.263440812662049 0.5632347339527282 2.410532836942115 1.7664357913581619 4.9900648441614575" Properties=species:S:1:pos:R:3:forces:R:3 unique_starting_index=42 config_type=initial n_minim_iter=14 energy=-1301.9986543736652 stress="-0.0022628764102912624 0.0044310138902497655 0.003500310030896941 0.0044310138902497655 -0.005062532770789073 0.002565023320223571 0.003500310030896941 0.002565023320223571 -0.006283316956703061" free_energy=-1301.9986543736652 pbc="T T T"
Si       6.90041132       6.17600564       1.93475358      -0.04201932      -0.10077906       0.31989937
Si       7.96780521       2.97475084       4.14329952      -0.10875562       0.30896147      -0.08350254
Si       5.23679794       5.58217585       5.56032855       0.26184794      -0.12678824      -0.17209895
Si       8.14058757       7.05532312       3.76518156       0.04159614       0.07089640      -0.28476537
Si       9.17986867       4.96789963       4.61230169       0.08013359      -0.27279137       0.08373369
Si       7.50248431       6.16700058       5.99200931      -0.23598014       0.11817239       0.13489446
Si       5.83974395       4.27935790       3.38050833       0.00399174       0.00292514       0.00231074
Si       2.08455490       1.52755953       1.20670620      -0.00081433      -0.00059674      -0.00047140
8
Lattice="5.729416112321149 0.6941212577984267 0.5483258818352181 2.3878133958020276 5.254175529565165 0.5483258818351869 2.387813395802019 1.7497870100702835 4.984502702131977" Properties=species:S:1:pos:R:3:forces:R:3 unique_starting_index=42 config_type=initial n_minim_iter=15 energy=-1302.0289886696544 stress="-0.004346730115969096 -0.001155382001354389 -0.0009127019897464946 -0.001155382001354389 -0.003616722792215615 -0.0006688270194901756 -0.0009127019897464946 -0.0006688270194901756 -0.0032984046548446113" free_energy=-1302.0289886696544 pbc="T T T"
Si       6.86536563       6.12126719       1.94802225      -0.08526018      -0.13848203      -0.04942595
Si       7.90505227       2.98374011       4.12375938      -0.15773313      -0.05724688      -0.02706565
Si       5.22646587       5.54868698       5.50400538      -0.10210335      -0.05715754      -0.12327780
Si       8.09786186       7.02457331       3.72708152       0.13183436       0.05128298      -0.04620441
Si       9.13767652       4.92354738       4.59049916       0.08861470      -0.01942330       0.11796296
Si       7.44748230       6.13956950       5.97091512       0.00817334       0.13567456       0.06058629
Si       5.82425101       4.26800469       3.37153978      -0.02420037      -0.01773400      -0.01400910
Si       2.04238531       1.49665770       1.18229509       0.14067462       0.10308621       0.08143366
8
Lattice="5.741465070235131 0.6997168812758361 0.5527461832497026 2.3967787324530065 5.263979157855166 0.5527461832496683 2.396778732452994 1.7563567988319886 4.993016694607309" Properties=species:S:1:pos:R:3:forces:R:3 unique_starting_index=42 config_type=initial n_minim_iter=16 energy=-1302.0352961395815 stress="-0.0005589777410193559 7.79194776950058e-05 6.155302986173957e-05 7.79194776950058e-05 -0.0006082097910275313 4.510599455485109e-05 6.155302986173957e-05 4.510599455485109e-05 -0.0006296772932494953" free_energy=-1302.0352961395815 pbc="T T T"
Si       6.87991768       6.13207232       1.95755120       0.00052459      -0.09387502      -0.01112742
Si       7.91973916       2.99546903       4.13188600      -0.08935631      -0.00416266       0.03057345
Si       5.24207425       5.55901700       5.51231100      -0.03088709       0.01030787      -0.08874880
Si       8.12742670       7.04651550       3.73716834       0.06350775      -0.03074260      -0.06676485
Si       9.16750559       4.93835639       4.60915936      -0.01018341      -0.04878791       0.08337821
Si       7.47058914       6.16327477       5.98992610      -0.04958928       0.08226757      -0.01445120
Si       5.84000229       4.27954721       3.38065788      -0.02707561      -0.01984098      -0.01567352
Si       2.04924498       1.50168445       1.18626601       0.14305936       0.10483374       0.08281414
8
Lattice="5.744381628907612 0.6968090453356649 0.5504491181645881 2.394884558523688 5.267636196202034 0.55044911816455 2.394884558523674 1.7549687502758662 4.997106163849348" Properties=species:S:1:pos:R:3:forces:R:3 unique_starting_index=42 config_type=initial n_minim_iter=17 energy=-1302.037771611718 stress="0.000604244369341741 -0.00017697760575709011 -0.00013980467990610152 -0.00017697760575709011 0.0007160644911893932 -0.00010244869246831445 -0.00013980467990610152 -0.00010244869246831445 0.0007648233899794248" free_energy=-1302.037771611718 pbc="T T T"
Si       6.87751817       6.13078892       1.95390996       0.04842845      -0.07938829      -0.00815174
Si       7.91779254       2.99148651       4.13087918      -0.06111191       0.00829665       0.07007686
Si       5.23769033       5.55788555       5.51190542      -0.01049817       0.05410418      -0.07534450
Si       8.13164633       7.05010024       3.73287474       0.03048998      -0.09473487      -0.04865916
Si       9.17219494       4.93486091       4.61301713      -0.08114941      -0.03400003       0.06731136
Si       7.46866866       6.16830668       5.99440744      -0.05686619       0.04994023      -0.08089658
Si       5.83275016       4.27423286       3.37645977       0.00650242       0.00476496       0.00376412
Si       2.05387793       1.50507948       1.18894793       0.12420484       0.09101717       0.07189964
8
Lattice="5.756050732506776 0.707092224265106 0.5585723863849632 2.4082052766503343 5.275665530937458 0.5585723863849146 2.408205276650312 1.764730157755947 5.003036815321278" Properties=species:S:1:pos:R:3:forces:R:3 unique_starting_index=42 config_type=initial n_minim_iter=18 energy=-1302.0413514248753 stress="0.0025553723978669132 0.0005116117799217992 0.000404151270564987 0.0005116117799217992 0.002232119704737149 0.00029616158278621856 0.000404151270564987 0.00029616158278621856 0.002091166061138828" free_energy=-1302.0413514248753 pbc="T T T"
Si       6.89683774       6.13629505       1.97410344       0.15072484      -0.03210825      -0.00188471
Si       7.92886275       3.01501221       4.14251240       0.01478775       0.03367804       0.14966490
Si       5.26345801       5.57000584       5.51258713       0.03656830       0.14651487      -0.03079969
Si       8.17076748       7.06993283       3.74099771      -0.02294615      -0.15365603      -0.02723987
Si       9.20289116       4.95001609       4.64161505      -0.15343073      -0.02084953       0.03005032
Si       7.49236681       6.20184698       6.01182077      -0.06610066      -0.00318172      -0.14317574
Si       5.85631498       4.29150113       3.39010096      -0.03854365      -0.02824474      -0.02231213
Si       2.07227062       1.51855762       1.19959508       0.07894030       0.05784736       0.04569692
8
Lattice="5.767567145546317 0.717042075907999 0.5664323404130777 2.4211621545367863 5.283649679761778 0.5664323404130046 2.421162154536747 1.774224943511255 5.008984466389875" Properties=species:S:1:pos:R:3:forces:R:3 unique_starting_index=42 config_type=initial n_minim_iter=19 energy=-1302.0561013920976 stress="0.0007673314222557864 -0.0008923673531581253 -0.0007049317476052227 -0.0008923673531581253 0.0013311577027108137 -0.0005165732102327671 -0.0007049317476052227 -0.0005165732102327671 0.0015770128918472762" free_energy=-1302.0561013920976 pbc="T T T"
Si       6.93454514       6.13477252       1.99508973       0.10510016      -0.04433169      -0.00125008
Si       7.93876997       3.04385845       4.17307925      -0.01061191       0.02507626       0.11077668
Si       5.29394875       5.59991764       5.50624757       0.02071467       0.10367600      -0.04283799
Si       8.21245933       7.07835411       3.74505804       0.01509416      -0.18241675       0.03198044
Si       9.22348056       4.96258227       4.67688235      -0.16939615       0.04716510       0.06005706
Si       7.51055163       6.23982497       6.01907330      -0.00605489       0.01774230      -0.18486482
Si       5.83755438       4.27775338       3.37924083       0.05655567       0.04144394       0.03273892
Si       2.11968662       1.55330401       1.22704323      -0.01140171      -0.00835516      -0.00660021
8
Lattice="5.802594985038119 0.765186374602957 0.6044642616958413 2.477621878888416 5.302547366457116 0.6044642616957121 2.477621878888334 1.8155985669427792 5.01856428283072" Properties=species:S:1:pos:R:3:forces:R:3 unique_starting_index=42 config_type=initial n_minim_iter=20 energy=-1302.0775325403401 stress="-0.0010270021934945114 -0.000767630315205985 -0.0006063948459005237 -0.000767630315205985 -0.0005419888085403502 -0.00044436547886171423 -0.0006063948459005237 -0.00044436547886171423 -0.0003304998299082011" free_energy=-1302.0775325403401 pbc="T T T"
Si       7.05785537       6.14147079       2.09165580      -0.03815333      -0.00837514       0.03090948
Si       7.98230319       3.16455472       4.26314896      -0.01947945       0.02223156      -0.04009394
Si       5.42215244       5.68873332       5.49040855       0.01533085      -0.04485522      -0.01530326
Si       8.35172707       7.12176789       3.78986823       0.10693471      -0.11321927       0.05740324
Si       9.30683084       5.03389079       4.78297683      -0.07574688       0.08734529       0.11908811
Si       7.60365626       6.35646388       6.05093403       0.06046985       0.09304063      -0.12343260
Si       5.87775361       4.30721134       3.40251135       0.01171286       0.00858317       0.00678033
Si       2.20875439       1.61857277       1.27860274      -0.06106861      -0.04475101      -0.03535137
8
Lattice="5.824816095522654 0.7935432671843338 0.6268649848492078 2.511355448651129 5.3151940015472645 0.6268649848490444 2.5113554486510217 1.840318489478555 5.02568152996164" Properties=species:S:1:pos:R:3:forces:R:3 unique_starting_index=42 config_type=initial n_minim_iter=21 energy=-1302.0828744081382 stress="-0.001079091804062843 -5.9491611977532794e-05 -4.69958186006633e-05 -5.9491611977532794e-05 -0.0010415030971734874 -3.443849443646224e-05 -4.69958186006633e-05 -3.443849443646224e-05 -0.0010251126131224806" free_energy=-1302.0828744081382 pbc="T T T"
Si       7.12599565       6.14919367       2.15117380      -0.05354575       0.02869015       0.01747574
Si       8.01019398       3.23695919       4.31031705       0.01122726       0.00318002      -0.06212496
Si       5.49959543       5.73572756       5.48414305       0.00641441      -0.05818064       0.02386508
Si       8.43705033       7.15452622       3.81918478       0.11690200      -0.10808230       0.05748275
Si       9.36377035       5.07896146       4.84573950      -0.06784598       0.08926466       0.12681037
Si       7.66378583       6.42694776       6.07601558       0.06468014       0.10216337      -0.11845358
Si       5.90766254       4.32912856       3.41982501      -0.02079135      -0.01523588      -0.01203569
Si       2.25160240       1.64997175       1.30340658      -0.05704072      -0.04179938      -0.03301971
