8
Lattice="3.6511690369605887 -0.3796120930332685 -1.2248992915525965 -1.6998897001243465 5.872136322911236 -0.7508155460537047 -3.4209074094316834 -4.261026723161646 9.43439143795993" Properties=species:S:1:pos:R:3:forces:R:3 unique_starting_index=314 config_type=initial n_minim_iter=10 energy=-1303.8910918217666 stress="-6.335561488467531e-05 1.704451619445141e-05 0.00016680572174853028 1.704451619445141e-05 0.00022741969492331296 6.054239656620251e-05 0.00016680572174853028 6.054239656620251e-05 6.635916890021678e-05" free_energy=-1303.8910918217666 pbc="T T T"
Si      -2.15021225      -2.04638699       7.36832110      -0.00553608      -0.00369391       0.00250956
Si       1.99259271       3.64560670      -0.33567336       0.00174051      -0.00337435      -0.00600498
Si      -1.03571938       0.90566169       3.73860682       0.00268932      -0.00598195       0.00234699
Si      -4.23191651      -1.03642396       6.96473099      -0.00268932       0.00598195      -0.00234699
Si       0.59449146       3.91987648       1.52266463      -0.00754486       0.00212106       0.00070665
Si      -3.91084801       1.44188548       7.20495835       0.00754486      -0.00212106      -0.00070665
Si      -0.18815215       0.10504566       0.37972044      -0.00174051       0.00337435       0.00600498
Si      -3.11742363       1.91562472       3.33501671       0.00553608       0.00369391      -0.00250956
