12
Lattice="5.60450997615985 -0.21224914276211337 -0.5547927551813984 -1.5859740309516162 8.142363657052039 -0.46840270160715886 -1.4874214121683227 -1.2361865894491535 8.898651208420237" Properties=species:S:1:pos:R:3:forces:R:3 unique_starting_index=44 config_type=initial n_minim_iter=1 energy=-1951.1277181098394 stress="6.034090566004298e-05 0.00015134910210323226 -0.00014444818368043925 0.00015134910210323226 -0.00023818974891823567 -0.00010141487182362266 -0.00014444818368043925 -0.00010141487182362266 -0.0002193775805817846" free_energy=-1951.1277181098394 pbc="T T T"
Si      -2.17557693       2.13432950       7.75311529      -0.00080609       0.08146439       0.02971789
Si      -0.16937621       4.45213100       3.30782506       0.03869023      -0.08317380      -0.03520017
Si      -0.32809195       6.14125778       5.02062328      -0.01451937      -0.06286904       0.02019382
Si       2.70080302       2.67073503       3.40169209       0.02218595       0.04382854      -0.00972237
Si       1.68611743       5.15937309       5.83862646      -0.01128381      -0.02619606      -0.04085464
Si       2.67895415      -0.08680951       6.43917384      -0.08522986      -0.03258739      -0.01968945
Si       3.32145789       4.84672919      -1.09698753       0.06554731      -0.04320214      -0.04083020
Si      -0.48845533       6.19283208       0.72033317      -0.02641091      -0.00153977       0.13020300
Si       0.11312918       1.98458343       7.56092158       0.17261908      -0.00654579       0.06714380
Si       5.24149841       0.80476337       1.72547480      -0.04091637       0.08801864      -0.06817062
Si      -0.67115836      -0.97836979       6.62836241      -0.05583352       0.04102735       0.04562173
Si       0.92948257      -0.15679135       8.18994039      -0.06404262       0.00177507      -0.07841279
12
Lattice="5.6023520485706575 -0.21759749029767164 -0.5510625168975843 -1.5927189402540036 8.154310745538679 -0.465635260263003 -1.4786752194422221 -1.2315204664732098 8.907685845453932" Properties=species:S:1:pos:R:3:forces:R:3 unique_starting_index=44 config_type=initial n_minim_iter=2 energy=-1951.1286309098286 stress="0.000495733793670143 -0.0005133958150976059 8.161493074015084e-05 -0.0005133958150976059 0.0013125270744869886 0.00037239065616746336 8.161493074015084e-05 0.00037239065616746336 0.001516685964920815" free_energy=-1951.1286309098286 pbc="T T T"
Si      -2.17039395       2.14459283       7.76252568       0.01871131       0.02471828       0.02936176
Si      -0.16986382       4.45890639       3.31378044       0.05787396      -0.02732342       0.00481995
Si      -0.32933179       6.15168713       5.03030753      -0.01492031      -0.09026377       0.01010450
Si       2.70069668       2.67457047       3.40943742       0.01418077       0.03990590       0.02066510
Si       1.68573747       5.16777351       5.84951473      -0.04553396      -0.02600053      -0.04627602
Si       2.68211570      -0.08600272       6.44892467      -0.06689822      -0.00636682      -0.01920594
Si       3.31627963       4.84914170      -1.09347976       0.07610099      -0.02365570      -0.05621550
Si      -0.49333216       6.20190135       0.72620411      -0.02152230       0.00289216       0.10671925
Si       0.11999034       1.99133724       7.57239830       0.12430561       0.00851724       0.06957171
Si       5.23985901       0.80363481       1.73131778      -0.03890388       0.07032086      -0.08527594
Si      -0.66553931      -0.97475321       6.63606485      -0.03461134       0.02639467       0.04169557
Si       0.93501060      -0.15310981       8.19954948      -0.06878264       0.00086113      -0.07596442
12
Lattice="5.592407015929185 -0.21973987560136493 -0.5434923121349198 -1.5937689970558202 8.150839871905692 -0.4655107863515445 -1.4646244372366468 -1.2286207794702404 8.895657639946469" Properties=species:S:1:pos:R:3:forces:R:3 unique_starting_index=44 config_type=initial n_minim_iter=3 energy=-1951.1306561705696 stress="-0.0013538889125805777 -0.000639704418178277 0.0005129017764085426 -0.000639704418178277 0.00013908084082493095 0.00046041905417291485 0.0005129017764085426 0.00046041905417291485 -0.0003344260338780923" free_energy=-1951.1306561705696 pbc="T T T"
Si      -2.15783045       2.14807500       7.75248474       0.04084058       0.00160809      -0.00796574
Si      -0.16586210       4.45518249       3.30988242       0.05803989       0.01824411      -0.01442719
Si      -0.32530718       6.14769785       5.02604740      -0.01795212      -0.08724431      -0.00262039
Si       2.70005670       2.67421782       3.40940051      -0.00614804       0.01394213       0.03811647
Si       1.68770849       5.16493346       5.84481562      -0.03254665      -0.04165074      -0.02756676
Si       2.68321028      -0.08658651       6.44445288      -0.01780549       0.01675470      -0.05215061
Si       3.30959405       4.84406435      -1.08850519       0.08938607       0.02318397      -0.01684490
Si      -0.49475445       6.19917856       0.72985988       0.00206060       0.03000266       0.09246614
Si       0.13350559       1.99166644       7.56657478       0.05473613       0.01783603       0.02466958
Si       5.23172289       0.80418403       1.73389800      -0.04847747       0.01010068      -0.01714509
Si      -0.65737030      -0.97154748       6.62901535      -0.05172517       0.01190283       0.03169383
Si       0.94174554      -0.15174785       8.18913675      -0.07040832      -0.01468015      -0.04822536
12
Lattice="5.603197926872423 -0.21242499172688223 -0.5435596302212582 -1.5871819738360262 8.144529615453767 -0.4731199127359832 -1.4693963305339006 -1.2380137488905518 8.897355138016174" Properties=species:S:1:pos:R:3:forces:R:3 unique_starting_index=44 config_type=initial n_minim_iter=4 energy=-1951.1328022391424 stress="0.0003620266747862193 0.00023385498764058753 0.0005797625421232017 0.00023385498764058753 -0.00033304050847390566 -3.7909417498097386e-05 0.0005797625421232017 -3.7909417498097386e-05 3.159714224310236e-05" free_energy=-1951.1328022391424 pbc="T T T"
Si      -2.15953918       2.13920027       7.75185954       0.13982399      -0.05507331      -0.02710842
Si      -0.15933294       4.44701712       3.30489295       0.00135898       0.03442398      -0.00279163
Si      -0.31944216       6.13620912       5.02112296      -0.01641085      -0.07294376       0.00672456
Si       2.70901879       2.67409153       3.40706772       0.01877483       0.01016662       0.03156847
Si       1.69615519       5.15726687       5.83870507      -0.02263567      -0.02712234      -0.02600397
Si       2.68538619      -0.09017570       6.44378795      -0.00829657       0.03830848      -0.02797609
Si       3.32465752       4.84505713      -1.09472791       0.05545516       0.07633039       0.03374077
Si      -0.48916128       6.19439332       0.72869809      -0.00856964       0.00121930       0.04773020
Si       0.14133312       1.98350918       7.56741072      -0.05520847       0.04080013       0.02002632
Si       5.24130457       0.81106029       1.73065484      -0.00052565       0.00811835      -0.03223399
Si      -0.66212859      -0.97670033       6.63193823      -0.05185728      -0.00877691       0.00777385
Si       0.94051349      -0.15829258       8.18689317      -0.05190883      -0.04545092      -0.03145007
12
Lattice="5.602279721257263 -0.21325732521220434 -0.5529022273027246 -1.5871166351405328 8.149676247238009 -0.4727258247958383 -1.4838471365975208 -1.2411478230296547 8.898107405276164" Properties=species:S:1:pos:R:3:forces:R:3 unique_starting_index=44 config_type=initial n_minim_iter=5 energy=-1951.1336200002372 stress="0.00012334954050552781 -0.00027150597635149483 -0.0003282371466824272 -0.00027150597635149483 -0.00030104131202975245 -1.8128130113642913e-05 -0.0003282371466824272 -1.8128130113642913e-05 -0.0001709693713119925" free_energy=-1951.1336200002372 pbc="T T T"
Si      -2.17116628       2.13896816       7.75320608       0.13434842      -0.05673166      -0.03466258
Si      -0.16490871       4.44805549       3.30265355      -0.02469284       0.02288909      -0.00346473
Si      -0.32918292       6.13674269       5.01892038      -0.03629232      -0.05023686       0.01128903
Si       2.70227850       2.67487180       3.40113500       0.02679078      -0.00258972       0.02560310
Si       1.68437852       5.15765157       5.83211308       0.00753030      -0.03059899      -0.00671823
Si       2.67241304      -0.09257411       6.43712475      -0.01387216       0.05276256      -0.00810163
Si       3.32613256       4.84782801      -1.10190140       0.05188639       0.07806659       0.03913652
Si      -0.49157654       6.19795188       0.72967716       0.02010404       0.01752381       0.03453550
Si       0.12987546       1.98270226       7.56583444      -0.08910064       0.04414491       0.01557765
Si       5.23584243       0.81135010       1.71991267      -0.00000405       0.00288154      -0.03434613
Si      -0.67419914      -0.97869115       6.63247530      -0.06417809      -0.04037589      -0.01306754
Si       0.92492093      -0.16131158       8.18206312      -0.01251984      -0.03773538      -0.02578097
12
Lattice="5.597147316009582 -0.2077831116253485 -0.5538928608249394 -1.5774516174088413 8.159126706486711 -0.47455547773480494 -1.485327079898555 -1.2465529576907788 8.899551692982076" Properties=species:S:1:pos:R:3:forces:R:3 unique_starting_index=44 config_type=initial n_minim_iter=6 energy=-1951.1342951892254 stress="-0.0005577243350576976 0.00045307803055668206 -0.00018174734651217486 0.00045307803055668206 0.00040576756409503356 -0.0001419766754291112 -0.00018174734651217486 -0.0001419766754291112 0.0001261267556694705" free_energy=-1951.1342951892254 pbc="T T T"
Si      -2.16615672       2.13757696       7.75361861       0.08694565      -0.07273681      -0.03121789
Si      -0.16051396       4.45269930       3.30150390      -0.05751353       0.03232604       0.00435836
Si      -0.32428099       6.14146414       5.01826007      -0.05475327      -0.05884010      -0.01036335
Si       2.70252926       2.68085574       3.40080414       0.04696585       0.00279575       0.03512284
Si       1.68665908       5.16392938       5.83032200       0.02914630      -0.03047763       0.01352577
Si       2.66766509      -0.09116072       6.43671961       0.00150110       0.07609957       0.00053464
Si       3.32999770       4.85878743      -1.10376907       0.02240924       0.06138925       0.03219163
Si      -0.48519310       6.20581615       0.73049058       0.00807956       0.02187837       0.02414219
Si       0.13113627       1.98425831       7.56713069      -0.02476064       0.04129714       0.01144198
Si       5.23110454       0.81829729       1.71757351       0.02202731       0.00797986      -0.04123936
Si      -0.67736367      -0.98235788       6.63397797      -0.07291675      -0.05430827      -0.00794413
Si       0.92117103      -0.16333314       8.18131876      -0.00713082      -0.02740315      -0.03055268
12
Lattice="5.602677683674948 -0.2095819913271622 -0.5503264891841813 -1.5816325017487467 8.16424889724063 -0.47352867678311167 -1.4813740023316229 -1.2450782320021863 8.89253716808443" Properties=species:S:1:pos:R:3:forces:R:3 unique_starting_index=44 config_type=initial n_minim_iter=7 energy=-1951.1359250486257 stress="0.0005803697147481814 0.00010831702545786555 -1.0032859184811259e-05 0.00010831702545786555 0.0009512275527652852 0.0004678182830454799 -1.0032859184811259e-05 0.0004678182830454799 -0.0009096126558980674" free_energy=-1951.1359250486257 pbc="T T T"
Si      -2.15815159       2.13968308       7.74679406       0.02764205      -0.02862656      -0.02039948
Si      -0.15998736       4.45577452       3.29933891      -0.03881483       0.00243581       0.01484236
Si      -0.32567285       6.14104631       5.01658942      -0.02902363      -0.03505202       0.00910400
Si       2.70853587       2.68362602       3.40225485       0.01026570      -0.01990772       0.00224961
Si       1.68995528       5.16531816       5.82695628       0.00327056       0.00006733       0.00690607
Si       2.67166100      -0.08848493       6.43267369      -0.00133680       0.06822206      -0.00871694
Si       3.33579497       4.86325002      -1.09956262       0.00945356      -0.01153826       0.04940238
Si      -0.48719076       6.21056968       0.73628183      -0.00602114       0.04466432      -0.01275888
Si       0.13636640       1.98902850       7.56517193       0.04192907       0.04833104      -0.00353043
Si       5.23634032       0.82011179       1.71595234       0.02462086       0.02213247       0.04009702
Si      -0.67862262      -0.98218403       6.62996904      -0.04083212      -0.07957996      -0.05334064
Si       0.92382939      -0.16391461       8.17277475      -0.00115329      -0.01114851      -0.02385507
12
Lattice="5.600950131549921 -0.21119559461523074 -0.5488196041183506 -1.5845737146680425 8.156406567350027 -0.48022488598716323 -1.477103971514126 -1.2491298184340904 8.9048261149384" Properties=species:S:1:pos:R:3:forces:R:3 unique_starting_index=44 config_type=initial n_minim_iter=8 energy=-1951.1369617955531 stress="-4.291015393559114e-05 -0.00016201309277791393 8.894614003546522e-05 -0.00016201309277791393 0.00011646288543563719 -0.0002872636430108033 8.894614003546522e-05 -0.0002872636430108033 4.972410063957277e-05" free_energy=-1951.1369617955531 pbc="T T T"
Si      -2.15091628       2.13198321       7.75432723      -0.02787643       0.00348901       0.01669414
Si      -0.16061242       4.44868335       3.30028742      -0.02520610       0.02646160       0.01401087
Si      -0.32777783       6.12752273       5.01961281      -0.02125972      -0.00737282       0.01946781
Si       2.70940326       2.67816233       3.40719848      -0.02063684      -0.02087088       0.02914730
Si       1.68939280       5.15357155       5.83100793      -0.01827015      -0.00179207       0.01740098
Si       2.67163375      -0.09194806       6.44148507      -0.00174164       0.03868095       0.00816656
Si       3.33554825       4.85931763      -1.10240274       0.00952345      -0.00863496       0.02243385
Si      -0.48936926       6.20436323       0.73654489       0.01386731       0.04894452      -0.02580593
Si       0.13942405       1.98343782       7.57587496       0.07292929       0.01437513      -0.00241286
Si       5.23462979       0.81778819       1.71735547       0.02820768      -0.00390054      -0.02079328
Si      -0.67894211      -0.98621128       6.63975695      -0.01359576      -0.08501072      -0.05171701
Si       0.92459533      -0.17094188       8.18168153       0.00405892      -0.00436923      -0.02659241
12
Lattice="5.600045712453623 -0.2082044954393426 -0.551492909260096 -1.5790836123755712 8.146592725767329 -0.4697504760344353 -1.4806713071539086 -1.2375086019768373 8.911461661172325" Properties=species:S:1:pos:R:3:forces:R:3 unique_starting_index=44 config_type=initial n_minim_iter=9 energy=-1951.1372828637216 stress="-6.436553682185343e-06 0.00014721858017159142 -7.498541438762617e-05 0.00014721858017159142 -0.00034307176917946916 0.0004126753933539428 -7.498541438762617e-05 0.0004126753933539428 0.00021401266650206206" free_energy=-1951.1372828637216 pbc="T T T"
Si      -2.14985963       2.13779968       7.76433872      -0.04108569       0.01790182       0.02021639
Si      -0.15943685       4.44859778       3.30880048      -0.03612635       0.04832125       0.03882600
Si      -0.32682022       6.12549303       5.03238103      -0.03506879       0.00282905      -0.01690023
Si       2.70986977       2.68153758       3.41360838      -0.00833391      -0.02703356       0.03812393
Si       1.68991808       5.15595401       5.84174518      -0.00917614       0.00256526       0.02160775
Si       2.66801061      -0.08050804       6.44564895      -0.01374465       0.02530508       0.01351720
Si       3.34007248       4.85597059      -1.09762516       0.00234345      -0.02153581       0.01280611
Si      -0.48556906       6.19986296       0.74668717       0.02028821       0.03190445      -0.03464397
Si       0.13954955       1.99223493       7.58576399       0.08292088       0.02121041      -0.00295570
Si       5.23380122       0.82323601       1.71660723       0.02743015       0.00225263      -0.01736065
Si      -0.68368768      -0.97896335       6.64392556      -0.00139186      -0.07378900      -0.05463372
Si       0.92050023      -0.16062160       8.18651240       0.01194469      -0.02993159      -0.01860309
12
Lattice="5.599297586153725 -0.20716941809253964 -0.5514583779249663 -1.5778358654909508 8.164879342815809 -0.48144244452749335 -1.481790265375792 -1.2538147111229228 8.906142976940817" Properties=species:S:1:pos:R:3:forces:R:3 unique_starting_index=44 config_type=initial n_minim_iter=10 energy=-1951.1390212861218 stress="0.00024539764719887377 -0.00014129920662335732 9.195932407458807e-05 -0.00014129920662335732 0.00018622358022934087 -0.00034699880630158073 9.195932407458807e-05 -0.00034699880630158073 -0.0005132896911256091" free_energy=-1951.1390212861218 pbc="T T T"
Si      -2.14694253       2.12987796       7.75552854       0.00212491       0.03903487       0.02266653
Si      -0.16222058       4.45623133       3.30086901      -0.00340676      -0.06350154      -0.00953619
Si      -0.33134104       6.12603226       5.02000689       0.00309538       0.01765173       0.00996775
Si       2.70993660       2.68149281       3.41072889      -0.03474421      -0.01081509       0.01029934
Si       1.68797487       5.15644014       5.82923720      -0.01733148      -0.00001942       0.03933114
Si       2.66387970      -0.08470454       6.43969709       0.01250093       0.01035618       0.01552893
Si       3.34494953       4.86997776      -1.10186380      -0.00483562      -0.02213827       0.00800498
Si      -0.48362265       6.21689492       0.73898350       0.02851218       0.02766408      -0.03652495
Si       0.14663425       1.98903447       7.57855045       0.02579022      -0.02924432      -0.00139085
Si       5.23466774       0.82532619       1.70856649       0.01190110       0.04859069       0.00313722
Si      -0.68995314      -0.99946637       6.63588040      -0.00887455      -0.03664755      -0.02833328
Si       0.91708196      -0.17643151       8.17439717      -0.01473210       0.01906866      -0.03315061
12
Lattice="5.593717117678389 -0.2037144561228042 -0.5554283740778229 -1.5701920501554594 8.1623585975698 -0.4732713328931281 -1.485924425293684 -1.2460320140177692 8.917816289298774" Properties=species:S:1:pos:R:3:forces:R:3 unique_starting_index=44 config_type=initial n_minim_iter=11 energy=-1951.1399630927506 stress="-0.00011030097970382948 1.3684316005105551e-05 -2.1959715325833883e-05 1.3684316005105551e-05 -2.3952290219422042e-05 0.0001121587123763601 -2.1959715325833883e-05 0.0001121587123763601 0.00014571867822061257" free_energy=-1951.1399630927506 pbc="T T T"
Si      -2.14530788       2.13645890       7.77055748       0.04128795       0.02195646       0.01678491
Si      -0.16305049       4.45957835       3.31096524      -0.00094668      -0.04310175       0.00221681
Si      -0.33292803       6.12670035       5.03361244       0.00030846       0.01053257      -0.03204701
Si       2.70677750       2.68530554       3.42033331      -0.01466266      -0.00323123       0.03266594
Si       1.68519113       5.16113247       5.84278746      -0.01344057      -0.00516191       0.04775160
Si       2.65577414      -0.07230667       6.44723652       0.01988878      -0.00435033       0.02114745
Si       3.34876702       4.87093447      -1.09851884      -0.00323028       0.00465193      -0.01322114
Si      -0.47727440       6.22077220       0.74680350       0.04542471      -0.00888287      -0.03169830
Si       0.15090037       1.99832401       7.59226917      -0.04195864      -0.03443895      -0.00034124
Si       5.23067144       0.83368860       1.70515449      -0.00267782       0.05339266      -0.02068521
Si      -0.69759362      -1.00058862       6.64042314      -0.00826345       0.01019270       0.00505826
Si       0.90970893      -0.16980248       8.17981020      -0.02172979      -0.00155926      -0.02763206
12
Lattice="5.594696672739997 -0.20151338178621592 -0.5580628528456286 -1.5673667174827766 8.165272379880285 -0.47757246767296546 -1.4907610152176094 -1.2524388668326234 8.921194830099937" Properties=species:S:1:pos:R:3:forces:R:3 unique_starting_index=44 config_type=initial n_minim_iter=12 energy=-1951.1410721943942 stress="7.721766802879789e-05 0.00011512447138801187 -2.802317371358488e-06 0.00011512447138801187 -0.00012783492548623199 -3.315579996034843e-06 -2.802317371358488e-06 -3.315579996034843e-06 -6.346530299205778e-05" free_energy=-1951.1410721943942 pbc="T T T"
Si      -2.14292021       2.13408842       7.77406125       0.00366197       0.00355381       0.00659416
Si      -0.16492609       4.45607373       3.30977911       0.00035016       0.00308598      -0.00335644
Si      -0.33607898       6.12350771       5.02971230       0.02080781      -0.00293218      -0.00650314
Si       2.70512510       2.68426855       3.42350400       0.00312717      -0.01003816       0.01997436
Si       1.68209812       5.15828651       5.84458745      -0.02744879       0.01059629       0.01747994
Si       2.65276377      -0.07206681       6.44898882       0.01877338      -0.00339084       0.01309513
Si       3.35427321       4.87540415      -1.10251397      -0.00781089      -0.01034984       0.00341878
Si      -0.47090788       6.22545273       0.74216622       0.01739058      -0.01781229      -0.01033462
Si       0.15075284       1.99376419       7.59416433      -0.00684990       0.00809733      -0.01307709
Si       5.23193857       0.84166469       1.69788980      -0.00497681       0.00955855      -0.01811192
Si      -0.70563324      -1.01031064       6.64017705      -0.01037475       0.01327500       0.00694398
Si       0.90231314      -0.17624205       8.17471809      -0.00664993      -0.00364366      -0.01612314
12
Lattice="5.59378137375188 -0.20187720208308343 -0.558770300922797 -1.5675952160082107 8.168044209770422 -0.4788154446772116 -1.4914062492280478 -1.2541738764618937 8.923423017919411" Properties=species:S:1:pos:R:3:forces:R:3 unique_starting_index=44 config_type=initial n_minim_iter=13 energy=-1951.141252972576 stress="9.87521580442978e-06 4.8679731351701734e-06 -4.07114594912872e-06 4.8679731351701734e-06 -1.1753209764658457e-06 -3.0072797288158284e-06 -4.07114594912872e-06 -3.0072797288158284e-06 -3.709861540398432e-05" free_energy=-1951.141252972576 pbc="T T T"
Si      -2.14190179       2.13451943       7.77649887      -0.00958507      -0.00509458       0.00212974
Si      -0.16627094       4.45604738       3.31006362       0.00591200       0.01907875      -0.00402362
Si      -0.33759326       6.12396666       5.02919287       0.02190431      -0.01051588       0.00199655
Si       2.70350953       2.68371901       3.42575182       0.00657346      -0.01003317       0.01665644
Si       1.67943437       5.15847713       5.84680304      -0.02926899       0.01271981       0.00764186
Si       2.65195367      -0.07218650       6.45092174       0.01849933      -0.00161875       0.00681822
Si       3.35415001       4.87682885      -1.10354574      -0.00260140      -0.01009068       0.00386801
Si      -0.46931554       6.22814497       0.74039104       0.00597725      -0.01608081       0.00084231
Si       0.15063400       1.99299506       7.59556062       0.00276361       0.01717945      -0.01558733
Si       5.23114824       0.84370564       1.69569137      -0.00817295      -0.00692599      -0.01682883
Si      -0.70775192      -1.01341824       6.64081412      -0.00932191       0.01230600       0.00905114
Si       0.90004620      -0.17826884       8.17387909      -0.00267963      -0.00092414      -0.01256447
12
Lattice="5.59241954445005 -0.20209006605247395 -0.5591889135486707 -1.5675500745280957 8.170291623380091 -0.4803416093080094 -1.4912591471376024 -1.255890398154841 8.928154693789857" Properties=species:S:1:pos:R:3:forces:R:3 unique_starting_index=44 config_type=initial n_minim_iter=14 energy=-1951.1414121516773 stress="-4.406165328959477e-05 -8.358834545682821e-05 -1.229883469891777e-05 -8.358834545682821e-05 9.10379116054225e-05 -2.3055401070325817e-06 -1.229883469891777e-05 -2.3055401070325817e-06 -5.6712176327744215e-06" free_energy=-1951.1414121516773 pbc="T T T"
Si      -2.13989990       2.13471741       7.78136909      -0.01847128      -0.00879062      -0.00329101
Si      -0.16715211       4.45637670       3.31120091       0.00973799       0.02360340      -0.00195392
Si      -0.33785819       6.12322376       5.03007024       0.00618800      -0.01170190       0.00872345
Si       2.70223262       2.68250051       3.43061037       0.00740518      -0.00574660       0.00790707
Si       1.67562509       5.15875920       5.85167143      -0.01536442       0.00866217       0.00131474
Si       2.65226179      -0.07194102       6.45544070       0.01366644      -0.00033070      -0.00309434
Si       3.35405366       4.87767891      -1.10437717       0.00590020       0.00019754       0.00064051
Si      -0.46672899       6.23002685       0.73875437      -0.01232185      -0.00740974       0.01200563
Si       0.15166121       1.99286675       7.59865300       0.00924735       0.01208040      -0.01269195
Si       5.22987551       0.84621209       1.69304581      -0.00779184      -0.01887938      -0.01022918
Si      -0.71025768      -1.01650684       6.64348978      -0.00114931       0.00445167       0.00802511
Si       0.89784935      -0.18053096       8.17418818       0.00295353       0.00386375      -0.00735611
12
Lattice="5.592149867168529 -0.20176004788372223 -0.5580757650104297 -1.5671353643926822 8.168108248406439 -0.47999149797404594 -1.4892661124343711 -1.254756960666846 8.930012561288777" Properties=species:S:1:pos:R:3:forces:R:3 unique_starting_index=44 config_type=initial n_minim_iter=15 energy=-1951.1415297560043 stress="3.267548357507848e-06 6.9349498841760986e-06 -4.585572572704893e-07 6.9349498841760986e-06 -7.406048545930079e-06 9.142499960479705e-07 -4.585572572704893e-07 9.142499960479705e-07 4.6088644028104245e-06" free_energy=-1951.1415297560043 pbc="T T T"
Si      -2.13886565       2.13425960       7.78289213      -0.00304285       0.00179350      -0.00144322
Si      -0.16548536       4.45700466       3.31217504       0.00330185      -0.00148033       0.00231460
Si      -0.33536694       6.12150767       5.03233781      -0.01220167       0.00104801       0.00115029
Si       2.70379273       2.68208506       3.43271594       0.00117414      -0.00103764       0.00376809
Si       1.67613237       5.15884482       5.85390625       0.00343740       0.00068915       0.01039173
Si       2.65447078      -0.07145839       6.45764790       0.00855673      -0.00217563      -0.00391019
Si       3.35405502       4.87633422      -1.10337026       0.00345166       0.00961628      -0.00345819
Si      -0.46680976       6.22747348       0.74029915      -0.01083787       0.00032711       0.00311418
Si       0.15365762       1.99412303       7.60007435      -0.00116743      -0.00771276      -0.00374111
Si       5.22955085       0.84536293       1.69412556      -0.00131821      -0.00146915      -0.00373229
Si      -0.70891992      -1.01453330       6.64585421       0.00617480      -0.00334814       0.00254318
Si       0.89979773      -0.17948118       8.17628310       0.00247144       0.00374960      -0.00699705
12
Lattice="5.591463723292941 -0.20180653536355211 -0.5579024176518067 -1.5670616648587294 8.168310996945577 -0.4804573934976934 -1.4887096160171949 -1.2551418427875924 8.931057943808154" Properties=species:S:1:pos:R:3:forces:R:3 unique_starting_index=44 config_type=initial n_minim_iter=16 energy=-1951.1415708751827 stress="1.6388978544877523e-05 2.9528237310511924e-07 3.3266292303568046e-06 2.9528237310511924e-07 -1.0511784871808472e-05 5.0228365972855815e-06 3.3266292303568046e-06 5.0228365972855815e-06 -3.0947905804064026e-05" free_energy=-1951.1415708751827 pbc="T T T"
Si      -2.13854562       2.13413298       7.78365090       0.00194162       0.00106378      -0.00249863
Si      -0.16512251       4.45708201       3.31253407      -0.00167071      -0.00607032       0.00090049
Si      -0.33589373       6.12124276       5.03273652      -0.00316653       0.00112569       0.00394194
Si       2.70368999       2.68164484       3.43392010       0.00112406      -0.00145831      -0.00002812
Si       1.67578871       5.15887453       5.85558381       0.00201621       0.00308421       0.00152756
Si       2.65538084      -0.07178159       6.45841068       0.00510100      -0.00360971      -0.00568192
Si       3.35389586       4.87703510      -1.10372062      -0.00553360      -0.00013795       0.00038143
Si      -0.46732681       6.22749371       0.74025152      -0.00441605       0.00018428       0.00376157
Si       0.15402868       1.99349941       7.60038155      -0.00059941       0.00436672       0.00045322
Si       5.22882467       0.84525779       1.69377084      -0.00108517       0.00371519      -0.00068599
Si      -0.70839980      -1.01517107       6.64682952       0.00098997      -0.00320700       0.00219282
Si       0.90005264      -0.17962256       8.17628529       0.00529860       0.00094341      -0.00426437
