24
Lattice="12.82538368785986 -1.4882884581381178e-21 -9.789300400349271e-21 4.258399915572343e-22 3.6657107781956806 -4.509728461659943e-15 7.439534083080696e-21 1.1886685412309861e-14 9.785446995062474" Properties=species:S:1:pos:R:3:forces:R:3 unique_starting_index=102 config_type=initial n_minim_iter=12 energy=-3907.6997049981496 stress="3.1532954908543055e-05 1.436279761217032e-14 8.294003189536862e-12 1.436279761217032e-14 4.7548760313985705e-06 8.185110183517096e-14 8.294003189536862e-12 8.185110183517096e-14 1.1251370646201703e-05" free_energy=-3907.6997049981496 pbc="T T T"
Si       5.19725647       0.91658436       4.18268080      -0.00277527      -0.00638786      -0.00431174
Si       5.19725647       2.74912642       5.60276620      -0.00277527       0.00638786       0.00431174
Si       1.21543538       0.91658436       5.60276620       0.00277527      -0.00638786       0.00431174
Si       1.21543538       2.74912642       4.18268080       0.00277527       0.00638786      -0.00431174
Si       7.62812722       2.74912642       5.60276620       0.00277527       0.00638786       0.00431174
Si       7.62812722       0.91658436       4.18268080       0.00277527      -0.00638786      -0.00431174
Si      11.60994831       2.74912642       4.18268080      -0.00277527       0.00638786      -0.00431174
Si      11.60994831       0.91658436       5.60276620      -0.00277527      -0.00638786       0.00431174
Si       2.31148957       2.75139863       2.10340034       0.00005066      -0.00212573      -0.00088279
Si       2.31148957       0.91431215       7.68204665       0.00005066       0.00212573       0.00088280
Si       4.10120228       2.75139863       7.68204665      -0.00005066      -0.00212573       0.00088279
Si       4.10120228       0.91431215       2.10340034      -0.00005066       0.00212573      -0.00088279
Si      10.51389412       0.91431215       7.68204665      -0.00005066       0.00212573       0.00088279
Si      10.51389412       2.75139863       2.10340034      -0.00005066      -0.00212573      -0.00088279
Si       8.72418141       0.91431215       2.10340034       0.00005066       0.00212573      -0.00088279
Si       8.72418141       2.75139863       7.68204665       0.00005066      -0.00212573       0.00088280
Si       7.59022119       2.74682019      10.70889415      -0.00227790       0.00146579      -0.00219244
Si       7.59022119       0.91889059      -0.92344715      -0.00227790      -0.00146579       0.00219244
Si      11.64785434       2.74682019      -0.92344715       0.00227790       0.00146579       0.00219244
Si      11.64785434       0.91889059      10.70889415       0.00227790      -0.00146579      -0.00219244
Si       5.23516249       0.91889059      -0.92344715       0.00227790      -0.00146579       0.00219244
Si       5.23516249       2.74682019      10.70889415       0.00227790       0.00146579      -0.00219244
Si       1.17752935       0.91889059      10.70889415      -0.00227790      -0.00146579      -0.00219244
Si       1.17752935       2.74682019      -0.92344715      -0.00227790       0.00146579       0.00219244
