14
Lattice="4.579209999999999 1.3503753882802985e-15 1.5880868749238508e-15 4.749523188197191e-16 7.756560000000002 -5.768624206641578e-15 4.749523188197195e-16 -1.246798665289906 7.655698277873236" Properties=species:S:1:pos:R:3:forces:R:3 unique_starting_index=100 config_type=initial n_minim_iter=1 energy=-2245.9209507854866 stress="-0.07043718863277185 -0.12367055115693991 -0.4625117827458785 0.07724064133658158 0.024950705581668387 -0.05434913479106505" pbc="T T T"
Si       4.00727537       6.94327268       0.82511508      -6.36323144     -12.59912822      17.86778220
Si       0.57193463       0.54453264       0.82511508       6.22748510       6.53011969      16.22703493
Si       4.17840457       6.29875840       3.00273406       0.05739670       0.04887210     -17.79353069
Si       0.40080543       0.47975762       3.00273406       0.95677438       5.60345647     -16.92206752
Si       0.57193463      -0.43351135       6.83058320       6.36323144      12.59912822     -17.86778220
Si       4.00727537       5.96522869       6.83058320      -6.22748510      -6.53011969     -16.22703493
Si       0.40080543       0.21100293       4.65296422      -0.05739670      -0.04887210      17.79353069
Si       4.17840457       6.03000371       4.65296422      -0.95677437      -5.60345647      16.92206752
Si       2.84830525       3.88954337       5.74177371       2.16650544       1.88470297       0.62116619
Si       1.73090475       2.62021796       1.91392457      -2.16650544      -1.88470297      -0.62116619
Si       1.73090475       1.99681863       5.74177371      -1.77471616      -1.36767095       1.02737924
Si       2.84830525       4.51294270       1.91392457       1.77471616       1.36767095      -1.02737924
Si       0.00000000       3.87828000      -0.00000000       0.00000000      -0.00000000      -0.00000000
Si       2.28960500      -0.62339933       3.82784914       0.00000000      -0.00000000       0.00000000
14
Lattice="4.587995238002793 0.006788666052644271 -0.003136595004054427 0.011499078565359467 7.782713975774667 -0.01642579056676767 -0.007092254940149076 -1.2672148857075287 7.755248981034406" Properties=species:S:1:pos:R:3:forces:R:3 unique_starting_index=100 config_type=initial n_minim_iter=2 energy=-2248.0055953217234 stress="-0.0606546378028847 -0.11181946399718388 -0.4130193651053628 0.07254489592969572 0.026011100177530434 -0.05517964434910511" pbc="T T T"
Si       4.02405092       6.96960894       0.81992402      -6.36822930     -12.28048804      16.37892905
Si       0.57389778       0.54612200       0.83565642       6.11789661       6.63305545      14.61065410
Si       4.19370896       6.31984125       3.02274186       0.00034625      -0.25716588     -16.18821154
Si       0.40032670       0.47617666       3.03773908       1.00220294       5.38126408     -15.54611555
Si       0.56835114      -0.44732118       6.91576258       6.36822930      12.28048804     -16.37892905
Si       4.01850428       5.97616576       6.90003017      -6.11789661      -6.63305545     -14.61065410
Si       0.39869310       0.20244650       4.71294474      -0.00034625       0.25716588      16.18821154
Si       4.19207536       6.04611109       4.69794752      -1.00220293      -5.38126408      15.54611555
Si       2.85582037       3.89491109       5.80433113       2.05779105       1.75909280       0.66127853
Si       1.73658169       2.62737667       1.93135546      -2.05779105      -1.75909280      -0.66127853
Si       1.73307478       1.99382081       5.80914676      -1.70429118      -1.32106951       1.03103100
Si       2.85932728       4.52846695       1.92653983       1.70429118       1.32106951      -1.03103100
Si       0.00574954       3.89135699      -0.00821290       0.00000000      -0.00000000       0.00000000
Si       2.29045149      -0.63021311       3.87605619      -0.00000000      -0.00000000       0.00000000
14
Lattice="4.675283909216453 0.08743454020821832 -0.04414476197852471 0.14810223973075157 8.05858034467397 -0.20749929342033827 -0.09760903000473069 -1.5001468693814004 8.83779409421197" Properties=species:S:1:pos:R:3:forces:R:3 unique_starting_index=100 config_type=initial n_minim_iter=3 energy=-2260.216378001754 stress="0.0071383821638002064 -0.04233270789026866 -0.08740479265677206 0.041850783162032286 0.02189314200609948 -0.053191868650008405" pbc="T T T"
Si       4.20757420       7.25180844       0.74829204      -5.71162711      -8.81556879       6.57022689
Si       0.59393825       0.56257041       0.94928706       5.61441194       6.14481482       4.18583397
Si       4.35759583       6.54375159       3.22154895      -0.11600283      -1.36076983      -5.79822339
Si       0.39099525       0.43314843       3.41435231       0.85215499       3.29360458      -6.17876157
Si       0.51820292      -0.60594042       7.83785800       5.71162711       8.81556879      -6.57022689
Si       4.13183887       6.08329761       7.63686298      -5.61441193      -6.14481482      -4.18583397
Si       0.36818129       0.10211642       5.36460109       0.11600283       1.36076983       5.79822339
Si       4.33478187       6.21271959       5.17179772      -0.85215499      -3.29360458       6.17876157
Si       2.92957142       3.94403585       6.47265898       1.34093572       0.92488105       1.39575733
Si       1.79620570       2.70183216       2.11349106      -1.34093572      -0.92488105      -1.39575733
Si       1.74783230       1.95226872       6.53474530      -0.80443864      -0.93017001       0.12461404
Si       2.97794482       4.69359930       2.05140474       0.80443865       0.93017001      -0.12461404
Si       0.07405112       4.02929017      -0.10374965      -0.00000000      -0.00000000      -0.00000000
Si       2.28883744      -0.70635616       4.39682467       0.00000000       0.00000000      -0.00000000
14
Lattice="4.663308445435201 0.2184245391084606 -0.10546900531526006 0.3699815127646731 8.246919338149942 -0.4038581299201799 -0.23579838142125714 -1.7242262050823947 9.276383315446385" Properties=species:S:1:pos:R:3:forces:R:3 unique_starting_index=100 config_type=initial n_minim_iter=4 energy=-2264.4834510094092 stress="0.008754317213190409 -0.012326194864396456 -0.08826959356241065 0.03588109684986267 0.023567305035437292 -0.035788600679696594" pbc="T T T"
Si       4.37356594       7.49661144       0.57969792      -3.80802073      -6.03075043       4.05118006
Si       0.60629405       0.58165236       0.98011528       4.01296365       4.04611878       1.99763361
Si       4.48689880       6.73917407       3.15262168      -0.10642374      -0.77952127      -4.32158309
Si       0.36596412       0.38743764       3.54169847       0.22487428       2.15808807      -3.63716577
Si       0.42392563      -0.75549377       8.18735826       3.80802073       6.03075043      -4.05118006
Si       4.19119753       6.15946531       7.78694090      -4.01296365      -4.04611878      -1.99763361
Si       0.31059278       0.00194361       5.61443450       0.10642374       0.77952127       4.32158309
Si       4.43152746       6.35368003       5.22535771      -0.22487428      -2.15808807       3.63716577
Si       2.95868953       3.97622481       6.64403658       0.71745537       0.18535225       1.49121017
Si       1.83880205       2.76489286       2.12301960      -0.71745537      -0.18535225      -1.49121017
Si       1.72208703       1.90310437       6.76685308      -0.50009510      -0.65979860       0.14754800
Si       3.07540454       4.83801330       2.00020310       0.50009510       0.65979860      -0.14754800
Si       0.18499076       4.12345967      -0.20192906      -0.00000000       0.00000000       0.00000000
Si       2.21375503      -0.75290083       4.58545716       0.00000000       0.00000000      -0.00000000
14
Lattice="4.63421614239116 0.4283163552425263 -0.2726465243948942 0.7255097513370109 8.415865699055072 -0.8360847346830783 -0.5724401779600272 -2.1779890291972688 10.384722385079844" Properties=species:S:1:pos:R:3:forces:R:3 unique_starting_index=100 config_type=initial n_minim_iter=5 energy=-2267.7768552862694 stress="0.016743130429102603 0.025693190012564354 0.01988737534853217 0.00499344070415215 0.012852494330502343 -0.005587352058881973" pbc="T T T"
Si       4.61634955       7.75459893       0.19182945      -1.36956577      -1.80534655       1.27782593
Si       0.61246639       0.58986358       1.04960190       1.34714425       1.02775790       0.19111722
Si       4.64111445       6.90182771       3.02988978       0.38300548      -0.30788246      -1.53882024
Si       0.28048416       0.26173106       3.88197088      -0.64941202       0.37307589      -1.21819766
Si       0.17093617      -1.08840591       9.08416168       1.36956577       1.80534655      -1.27782593
Si       4.17481933       6.07632944       8.22638923      -1.34714425      -1.02775790      -0.19111722
Si       0.14617126      -0.23563468       6.24610135      -0.38300549       0.30788246       1.53882024
Si       4.50680156       6.40446197       5.39402024       0.64941202      -0.37307589       1.21819766
Si       2.91134051       3.87179427       7.11018747       0.52873918       0.23793780       0.62655140
Si       1.87594520       2.79439875       2.16580365      -0.52873918      -0.23793780      -0.62655140
Si       1.59071788       1.70278270       7.37340546      -0.46854476      -0.83611500       0.39491711
Si       3.19656784       4.96341032       1.90258567       0.46854476       0.83611500      -0.39491711
Si       0.36275488       4.20793285      -0.41804237       0.00000000      -0.00000000       0.00000000
Si       2.03088798      -0.87483634       5.05603793       0.00000000       0.00000000       0.00000000
14
Lattice="4.552433378138358 0.4525575029378973 -0.34744880315218324 0.7665709642029882 8.17970724009304 -0.8747867409181644 -0.7040977143592857 -2.1782273862851245 10.170912595371572" Properties=species:S:1:pos:R:3:forces:R:3 unique_starting_index=100 config_type=initial n_minim_iter=6 energy=-2268.586493902352 stress="0.008964843820779344 0.008853319586475589 0.008892853366777085 0.006932877179333508 0.01120309033479323 -0.009889265069939838" pbc="T T T"
Si       4.56166715       7.55343468       0.07611059      -1.55650452      -1.93130794       1.21359869
Si       0.59533696       0.57539704       1.01177160       1.72836535       1.32054756       0.29519241
Si       4.55327437       6.71795335       2.83733118       0.36203730      -0.62476362      -1.74371258
Si       0.22648140       0.23574629       3.78152918      -0.72771877       0.88554680      -1.39755215
Si       0.05323948      -1.09939732       8.87256646       1.55650452       1.93130794      -1.21359868
Si       4.01956967       5.87864032       7.93690545      -1.72836535      -1.32054756      -0.29519241
Si       0.06163225      -0.26391600       6.11134587      -0.36203730       0.62476362       1.74371258
Si       4.38842523       6.21829106       5.16714787       0.72771877      -0.88554680       1.39755215
Si       2.78843391       3.74030420       6.88165222       0.52109793       0.28273836       0.64600916
Si       1.82647272       2.71373316       2.06702483      -0.52109793      -0.28273836      -0.64600916
Si       1.47449057       1.61916698       7.17314210      -0.38611818      -0.54505397       0.50342985
Si       3.14041606       4.83487037       1.77553496       0.38611818       0.54505397      -0.50342985
Si       0.38328548       4.08985362      -0.43739337      -0.00000000       0.00000000      -0.00000000
Si       1.92416783      -0.86283494       4.91173190      -0.00000000      -0.00000000       0.00000000
14
Lattice="4.504110543489421 0.5227002881978566 -0.43780593828290937 0.8853833188309727 8.092061821949555 -0.9709791708125314 -0.8742582649467678 -2.2590807580796617 10.07277821892307" Properties=species:S:1:pos:R:3:forces:R:3 unique_starting_index=100 config_type=initial n_minim_iter=7 energy=-2269.175738670573 stress="0.008978135630218773 0.007256689009727319 0.0031473464726590097 0.0070200140953905355 0.0014414126290529664 -0.009692211778080531" pbc="T T T"
Si       4.59844660       7.51353714      -0.08834045      -1.10831433      -1.53933232       1.01832310
Si       0.58909508       0.57497412       0.97893127       1.38331771       1.02303684       0.48269404
Si       4.54984181       6.67379373       2.62097229       0.66991331      -0.76334004      -1.68308759
Si       0.17070161       0.20480507       3.71307436      -0.97960607       1.17890904      -1.30549412
Si      -0.08321100      -1.15785579       8.75233356       1.10831433       1.53933232      -1.01832310
Si       3.92614052       5.78070724       7.68506184      -1.38331771      -1.02303684      -0.48269404
Si      -0.03460622      -0.31811238       6.04302082      -0.66991331       0.76334004       1.68308759
Si       4.34453399       6.15087628       4.95091875       0.97960607      -1.17890904       1.30549412
Si       2.70628148       3.66974905       6.69546730       0.53737294       0.08180858       0.40882021
Si       1.80895412       2.68593230       1.96852581      -0.53737295      -0.08180858      -0.40882021
Si       1.37080231       1.54831485       7.03380229      -0.28932252      -0.24848905       0.66005458
Si       3.14443328       4.80736650       1.63019082       0.28932252       0.24848905      -0.66005458
Si       0.44269166       4.04603091      -0.48548959       0.00000000       0.00000000       0.00000000
Si       1.81492614      -0.86819023       4.81748614       0.00000000      -0.00000000      -0.00000000
14
Lattice="4.431496909281358 0.612486174340457 -0.45873369667343616 1.03746841932172 8.002089010057587 -1.1037766576903905 -0.9336924308562918 -2.37568908829531 10.04592500486011" Properties=species:S:1:pos:R:3:forces:R:3 unique_starting_index=100 config_type=initial n_minim_iter=8 energy=-2269.7655371876253 stress="0.012513150858628379 0.011132665309777696 0.00016938367440864297 0.005471408412370173 -0.0035760755763908692 -0.00761819639252666" pbc="T T T"
Si       4.65579009       7.48208562      -0.21460370      -0.77296880      -1.25545338       0.76131194
Si       0.59610849       0.57369547       0.96165911       1.00212352       0.83278575       0.59242797
Si       4.59869578       6.63171049       2.45874049       1.09133754      -0.96767677      -1.61405582
Si       0.15875684       0.16537745       3.66965324      -1.24359647       1.39059706      -1.27365977
Si      -0.12051719      -1.24319952       8.69801835       0.77296880       1.25545338      -0.76131194
Si       3.93916440       5.66519062       7.52175554      -1.00212352      -0.83278575      -0.59242797
Si      -0.06342289      -0.39282440       6.02467416      -1.09133754       0.96767677       1.61405582
Si       4.37651606       6.07350864       4.81376141       1.24359647      -1.39059706       1.27365976
Si       2.71375432       3.58266533       6.58275474       0.53196681      -0.08024667       0.26142516
Si       1.82151858       2.65622076       1.90065991      -0.53196681       0.08024667      -0.26142516
Si       1.35307140       1.45716464       6.96347456      -0.42602393       0.17321155       0.83008708
Si       3.18220150       4.78172146       1.51994009       0.42602393      -0.17321155      -0.83008708
Si       0.51873421       4.00104451      -0.55188833      -0.00000000       0.00000000      -0.00000000
Si       1.74890224      -0.88160146       4.79359565       0.00000000      -0.00000000      -0.00000000
14
Lattice="4.35769742479961 0.6514727251330297 -0.43491416322324716 1.1035063429844556 7.895585448182108 -1.1657080172304168 -0.9044850388122754 -2.419695620028701 10.058382598449995" Properties=species:S:1:pos:R:3:forces:R:3 unique_starting_index=100 config_type=initial n_minim_iter=9 energy=-2270.171523554093 stress="0.011874472526460267 0.011630038836242654 -0.003110775319504251 0.005076024552312427 -0.00356330031370777 -0.007368383920980555" pbc="T T T"
Si       4.64972893       7.40642985      -0.24039004      -0.80212293      -1.26858658       0.61153325
Si       0.60006413       0.56818035       0.96243111       1.04770535       0.89663226       0.58926804
Si       4.60486495       6.55689456       2.41996180       1.48113014      -1.20847303      -1.74536844
Si       0.16996673       0.14510587       3.65860642      -1.42391961       1.59907036      -1.32817827
Si      -0.09301020      -1.27906730       8.69815045       0.80212293       1.26858658      -0.61153325
Si       3.95665459       5.55918220       7.49532930      -1.04770535      -0.89663226      -0.58926804
Si      -0.04814622      -0.42953201       6.03779861      -1.48113015       1.20847303       1.74536844
Si       4.38675200       5.98225668       4.79915400       1.42391961      -1.59907036       1.32817827
Si       2.73254451       3.50743980       6.56987224       0.45227283      -0.14989779       0.26203603
Si       1.82417422       2.61992275       1.88788818      -0.45227283       0.14989779      -0.26203603
Si       1.36982618       1.39766193       6.96461954      -0.50605772       0.47538450       0.91915378
Si       3.18689255       4.72970063       1.49314088       0.50605772      -0.47538451      -0.91915378
Si       0.55175317       3.94779272      -0.58285401       0.00000000       0.00000000       0.00000000
Si       1.72660619      -0.88411145       4.81173422       0.00000000       0.00000000      -0.00000000
14
Lattice="4.336646265654724 0.6625839039541105 -0.4280775951729809 1.1223271712925014 7.861629181624482 -1.183560603200181 -0.8960806853702925 -2.4318578909119286 10.076074506445485" Properties=species:S:1:pos:R:3:forces:R:3 unique_starting_index=100 config_type=initial n_minim_iter=10 energy=-2270.301014196167 stress="0.01162151548141208 0.01238275924207042 -0.0034821337739370482 0.005034393622987323 -0.003336734636598665 -0.007137739746751276" pbc="T T T"
Si       4.64785334       7.38146518      -0.24625820      -0.81879887      -1.25967082       0.57680587
Si       0.60140271       0.56652698       0.96423968       1.07142855       0.89987069       0.57562055
Si       4.60713000       6.53251860       2.41354091       1.58426164      -1.26691983      -1.78139307
Si       0.17306045       0.13943968       3.66030040      -1.46699383       1.64342445      -1.33832378
Si      -0.08496059      -1.28910998       8.71069451       0.81879887       1.25967082      -0.57680587
Si       3.96149005       5.52582822       7.50019662      -1.07142855      -0.89987069      -0.57562055
Si      -0.04423725      -0.44016341       6.05089540      -1.58426164       1.26691983       1.78139307
Si       4.38983230       5.95291552       4.80413591       1.46699383      -1.64342445       1.33832378
Si       2.73785651       3.48391102       6.57686315       0.42280080      -0.17742916       0.26209920
Si       1.82503625       2.60844418       1.88757316      -0.42280080       0.17742916      -0.26209920
Si       1.37460903       1.37992928       6.97579404      -0.51762906       0.53694211       0.92715238
Si       3.18828372       4.71242591       1.48864227       0.51762906      -0.53694211      -0.92715238
Si       0.56116359       3.93081459      -0.59178030      -0.00000000       0.00000000       0.00000000
Si       1.72028279      -0.88463699       4.82399846      -0.00000000      -0.00000000      -0.00000000
14
Lattice="4.189226699652861 0.7367522622291933 -0.3829808961892558 1.247958300037882 7.600268715485157 -1.3108753994120295 -0.8408803974072184 -2.515505769064712 10.220342696458589" Properties=species:S:1:pos:R:3:forces:R:3 unique_starting_index=100 config_type=initial n_minim_iter=11 energy=-2271.3116281344683 stress="0.004964909320508464 0.01803647825677713 -0.005180055335070242 0.007177486637237853 -0.0016616335924180185 -0.008208603495421057" pbc="T T T"
Si       4.62815594       7.18171598      -0.28863561      -0.85366736      -1.16689604       0.34293728
Si       0.61050025       0.55285199       0.97859963       1.34530486       0.77931447       0.32925652
Si       4.61688395       6.33929656       2.36939791       2.32258271      -1.49503614      -2.11224421
Si       0.19252447       0.09789579       3.67686135      -1.59390176       1.85962201      -1.47627986
Si      -0.03185133      -1.36020077       8.81512201       0.85366736       1.16689604      -0.34293728
Si       3.98580435       5.26866322       7.54788677      -1.34530486      -0.77931447      -0.32925652
Si      -0.02057935      -0.51778135       6.15708849      -2.32258271       1.49503614       2.11224421
Si       4.40378013       5.72361942       4.84962505       1.59390176      -1.85962201       1.47627986
Si       2.76814910       3.30293738       6.63852858       0.24267018      -0.51280315       0.22706081
Si       1.82815551       2.51857783       1.88795782      -0.24267018       0.51280315      -0.22706081
Si       1.40318023       1.24678587       7.06838428      -0.41349733       0.77985736       0.83516118
Si       3.19312437       4.57472934       1.45810212       0.41349733      -0.77985736      -0.83516118
Si       0.62397915       3.80013436      -0.65543770       0.00000000      -0.00000000       0.00000000
Si       1.67417315      -0.88937675       4.91868090      -0.00000000       0.00000000      -0.00000000
14
Lattice="4.143646176719103 0.8179057793864124 -0.3762549158027063 1.385421339523079 7.260412215230739 -1.4799037441945047 -0.8517316185595333 -2.627707231717704 10.431392017018851" Properties=species:S:1:pos:R:3:forces:R:3 unique_starting_index=100 config_type=initial n_minim_iter=12 energy=-2272.387686672328 stress="-0.0016371725566811579 0.008150178339614537 -0.0037665267561766236 0.006726873670531165 0.0010528833830498537 -0.010302408485137792" pbc="T T T"
Si       4.69950705       6.91619232      -0.39700501      -0.86634723      -0.73663351       0.25261978
Si       0.62972043       0.52926031       0.98674477       1.10079606       0.76031205       0.10784387
Si       4.71007113       6.07771874       2.27196739       2.25352727      -1.39722004      -1.99199218
Si       0.19814733       0.03689798       3.70476630      -1.31536991       1.79230906      -1.61413268
Si      -0.02217115      -1.46558156       8.97223836       0.86634723       0.73663351      -0.25261978
Si       4.04761546       4.92135045       7.58848859      -1.10079606      -0.76031206      -0.10784387
Si      -0.03273523      -0.62710798       6.30326597      -2.25352727       1.39722004       1.99199218
Si       4.47918857       5.41371278       4.87046705       1.31536991      -1.79230906       1.61413268
Si       2.81697675       3.05235511       6.70202394       0.26855862      -0.87090282      -0.08518675
Si       1.86035915       2.39825566       1.87320942      -0.26855862       0.87090282       0.08518675
Si       1.42708659       1.06701271       7.17869602      -0.18999699       0.88925646       0.78117041
Si       3.25024931       4.38359805       1.39653734       0.18999699      -0.88925646      -0.78117041
Si       0.69271067       3.63020611      -0.73995187       0.00000000       0.00000000      -0.00000000
Si       1.64595728      -0.90490073       5.02756855      -0.00000000       0.00000000       0.00000000
14
Lattice="4.207597325583565 0.9843411582237986 -0.4323548002037169 1.6673402735913747 7.13445543573187 -1.7166593274286173 -0.990837533463897 -2.8411377429596514 10.668224769460434" Properties=species:S:1:pos:R:3:forces:R:3 unique_starting_index=100 config_type=initial n_minim_iter=13 energy=-2273.240369857322 stress="0.015716674287207966 0.013904150102849056 0.009090049983640587 0.0006790321470753233 -0.0002606376847612943 -0.000513297884454533" pbc="T T T"
Si       4.97599761       6.90423179      -0.61537461      -0.40566487      -0.01265403       0.15808050
Si       0.66762758       0.53126584       0.97657407       0.45652465       0.24606911       0.12366887
Si       4.98844733       6.04905469       2.05412627       1.56369725      -0.81812530      -1.49424522
Si       0.18716521      -0.01942761       3.70915094      -1.18698373       1.15078870      -1.64543436
Si      -0.09189755      -1.62657294       9.13458526       0.40566487       0.01265403      -0.15808049
Si       4.21647248       4.74639301       7.54263658      -0.45652466      -0.24606911      -0.12366887
Si      -0.10434726      -0.77139583       6.46508437      -1.56369725       0.81812530       1.49424522
Si       4.69693485       5.29708646       4.81005971       1.18698373      -1.15078870       1.64543436
Si       2.92666898       2.90809257       6.70066632       0.10816677      -1.07343812      -0.15696072
Si       1.95743109       2.36956628       1.81854432      -0.10816677       1.07343812       0.15696071
Si       1.45232220       0.92557185       7.26178499      -0.03708239       0.78718306       0.66522213
Si       3.43177786       4.35208700       1.25742566       0.03708239      -0.78718306      -0.66522213
Si       0.83367014       3.56722772      -0.85832966       0.00000000       0.00000000       0.00000000
Si       1.60837990      -0.92839829       5.11793498      -0.00000000       0.00000000       0.00000000
14
Lattice="4.063487145309885 0.9571462461518007 -0.4190875335939959 1.621275784917309 6.920580046505943 -1.6862162244675505 -0.9612523495107197 -2.776711920077166 10.455940414746319" Properties=species:S:1:pos:R:3:forces:R:3 unique_starting_index=100 config_type=initial n_minim_iter=14 energy=-2273.3338889143397 stress="-0.031015023619811937 -0.037200230966776604 -0.03032900998081421 -0.00036507418689096907 0.004177237111144282 -0.012616757277155737" pbc="T T T"
Si       4.81181488       6.69468902      -0.59927799      -0.70426945      -0.18211864       0.01049329
Si       0.64903626       0.51605780       0.95734803       0.52903640       0.07509747      -0.00367879
Si       4.83668750       5.86733524       1.99252748       2.03606248      -0.92163672      -1.77395455
Si       0.17944503      -0.01521623       3.60872534      -1.30389755       2.05276209      -1.91014749
Si      -0.08830430      -1.59367465       8.94991465       0.70426945       0.18211864      -0.01049329
Si       4.07447432       4.58495657       7.39328863      -0.52903640      -0.07509746       0.00367879
Si      -0.11317692      -0.76632087       6.35810917      -2.03606248       0.92163672       1.77395455
Si       4.54406555       5.11623060       4.74191131       1.30389755      -2.05276210       1.91014749
Si       2.82764906       2.79996545       6.56977729      -0.06537766      -0.97100467      -0.56102226
Si       1.89586152       2.30104892       1.78085937       0.06537766       0.97100467       0.56102226
Si       1.40439651       0.88585754       7.12428080       0.04385473       0.87067691       0.81508137
Si       3.31911407       4.21515683       1.22635585      -0.04385473      -0.87067691      -0.81508137
Si       0.81063789       3.46029002      -0.84310811       0.00000000       0.00000000       0.00000000
Si       1.55111740      -0.90978284       5.01842644      -0.00000000      -0.00000000      -0.00000000
14
Lattice="4.141808148103663 1.0054103490265633 -0.44136687050308604 1.7030286221521858 7.075946088565928 -1.7209704440193248 -1.011640844524654 -2.835987938394963 10.636058140041134" Properties=species:S:1:pos:R:3:forces:R:3 unique_starting_index=100 config_type=initial n_minim_iter=15 energy=-2273.6612906122587 stress="0.0058438585021967 0.002612016791694148 0.00036074170388342684 0.0011435778747393669 0.00160553773972326 -0.0014534972754644902" pbc="T T T"
Si       4.94457841       6.86726551      -0.62697143      -0.45925140      -0.00160872       0.05497301
Si       0.66400681       0.53252896       0.97067380       0.48129107       0.11903422       0.09094832
Si       4.96587130       6.02704907       2.00073143       1.53616804      -0.70853818      -1.49126085
Si       0.17840606      -0.00739625       3.65982980      -1.23632914       1.28908935      -1.64222211
Si      -0.11138249      -1.62189701       9.10069225       0.45925140       0.00160872      -0.05497301
Si       4.16918912       4.71283953       7.50304702      -0.48129108      -0.11903422      -0.09094832
Si      -0.13267538      -0.78168057       6.47298940      -1.53616804       0.70853818       1.49126085
Si       4.65478986       5.25276475       4.81389102       1.23632914      -1.28908935       1.64222211
Si       2.88881574       2.88058417       6.66884555       0.05577795      -1.03057409      -0.31219605
Si       1.94438018       2.36478433       1.80487527      -0.05577794       1.03057409       0.31219605
Si       1.42692208       0.91888662       7.24147529      -0.03934601       0.77755026       0.67409973
Si       3.40627385       4.32648187       1.23224554       0.03934601      -0.77755026      -0.67409973
Si       0.85151431       3.53797304      -0.86048522       0.00000000      -0.00000000      -0.00000000
Si       1.56508365      -0.91528879       5.09734563      -0.00000000       0.00000000       0.00000000
14
Lattice="4.129606829965807 1.0069910465424556 -0.44593347541282224 1.7057061091256684 7.068092432279382 -1.7262440420717962 -1.0197058515665383 -2.8399305556573538 10.636555218053681" Properties=species:S:1:pos:R:3:forces:R:3 unique_starting_index=100 config_type=initial n_minim_iter=16 energy=-2273.7325239278366 stress="0.004300316533813036 0.00043687782644991036 -0.0009265511728010279 0.0011293882938031158 0.0018267785883113446 -0.0019047738185048245" pbc="T T T"
Si       4.93473015       6.86063003      -0.63508563      -0.46447944      -0.00426320       0.03974698
Si       0.66247121       0.53206801       0.96949322       0.48057285       0.09680279       0.07618238
Si       4.95678552       6.02183540       1.98628428       1.50926924      -0.68386162      -1.47296853
Si       0.17464708      -0.00667195       3.65193763      -1.23803092       1.31318196      -1.63501628