22
Lattice="2.550303530348539 7.922291016906145e-12 9.188076199786198e-14 -3.29444300100765e-11 10.605302933295892 -1.1891571144589763e-16 -5.431041760734395e-13 1.6903108602465908e-16 15.074760673179387" Properties=species:S:1:pos:R:3:forces:R:3 unique_starting_index=486 config_type=initial n_minim_iter=1 energy=-3576.502584031873 stress="-0.00012737903817912683 2.422338747046201e-12 2.7314466803208067e-12 2.422338747046201e-12 0.00018232690165999432 5.756421270144496e-12 2.7314466803208067e-12 5.756421270144496e-12 0.0004746557546932522" free_energy=-3576.502584031873 pbc="T T T"
Si       1.38080362       3.61896531      12.80691756       0.14729666       0.05890333      -0.16999397
Si       1.38080362       6.98633762       2.26784311       0.14729666      -0.05890333       0.16999397
Si       0.10565186       8.92161678       9.80522345       0.14729666       0.05890333       0.16999397
Si       0.10565186       1.68368616       5.26953723       0.14729666      -0.05890333      -0.16999397
Si       1.30219387       2.44856800       2.20456524       0.24499248      -0.27872492       0.08719441
Si       1.30219387       8.15673494      12.87019544       0.24499248       0.27872492      -0.08719441
Si       0.02704211       7.75121946       5.33281510       0.24499248      -0.27872492      -0.08719441
Si       0.02704211       2.85408347       9.74194557       0.24499248       0.27872492       0.08719441
Si       0.49824326       3.00349332       7.32154027      -0.21090425      -0.80470287       0.24498958
Si       0.49824326       7.60180961       7.75322041      -0.21090425       0.80470287      -0.24498958
Si       1.77339503       8.30614479       0.21584007      -0.21090425      -0.80470287      -0.24498958
Si       1.77339503       2.29915815      14.85892060      -0.21090425       0.80470287       0.24498958
Si       1.39355833       5.88703237       9.63257673      -0.12660085      -0.06910741       0.20775234
Si       1.39355833       4.71827057       5.44218395      -0.12660085       0.06910741      -0.20775234
Si       0.11840656       0.58438090      12.97956428      -0.12660085      -0.06910741      -0.20775234
Si       0.11840656      10.02092203       2.09519639      -0.12660085       0.06910741       0.20775234
Si       0.40245567       9.95010061       4.44223945      -0.12106107       0.46811231       0.32166416
Si       0.40245567       0.65520232      10.63252122      -0.12106107      -0.46811231      -0.32166416
Si       1.67760744       4.64744914       3.09514088      -0.12106107       0.46811231      -0.32166416
Si       1.67760744       5.95785379      11.97961979      -0.12106107      -0.46811231       0.32166416
Si       1.08903850       0.00000000       0.00000000       0.13255405      -0.00000000      -0.00000000
Si       2.36419027       5.30265147       7.53738034       0.13255405      -0.00000000       0.00000000
22
Lattice="2.56445343062149 7.96624642318957e-12 9.239054587409535e-14 -3.2684548342285934e-11 10.521643151873478 -1.2464802178128882e-16 -5.320212605452797e-13 1.5609297322155785e-16 14.76713589968572" Properties=species:S:1:pos:R:3:forces:R:3 unique_starting_index=486 config_type=initial n_minim_iter=2 energy=-3576.811351831289 stress="0.0066465924822142735 -6.814152692440398e-13 3.741397221033666e-12 -6.814152692440398e-13 -0.004400806993443329 -9.13430128965352e-12 3.741397221033666e-12 -9.13430128965352e-12 -0.019442204619988943" free_energy=-3576.811351831289 pbc="T T T"
Si       1.40424422       3.59664297      12.52783089       0.07253395      -0.18705144      -0.10570850
Si       1.40424422       6.92500018       2.23930501       0.07253395       0.18705144       0.10570850
Si       0.12201750       8.85746455       9.62287296       0.07253395      -0.18705144       0.10570850
Si       0.12201750       1.66417860       5.14426294       0.07253395       0.18705144      -0.10570850
Si       1.33566418       2.39979252       2.16867731       0.17019807       0.03899146       0.40744800
Si       1.33566418       8.12185063      12.59845859       0.17019807      -0.03899146      -0.40744800
Si       0.05343746       7.66061410       5.21489064       0.17019807       0.03899146      -0.40744800
Si       0.05343746       2.86102905       9.55224526       0.17019807      -0.03899146       0.40744800
Si       0.47841413       2.89474681       7.19770002      -0.14654064      -0.32542091       0.02935136
Si       0.47841413       7.62689634       7.56943588      -0.14654064       0.32542091      -0.02935136
Si       1.76064085       8.15556838       0.18586793      -0.14654064      -0.32542091      -0.02935136
Si       1.76064085       2.36607477      14.58126797      -0.14654064       0.32542091       0.02935136
Si       1.38772786       5.83328825       9.45768991      -0.16110194      -0.01154143      -0.07895846
Si       1.38772786       4.68835490       5.30944599      -0.16110194       0.01154143       0.07895846
Si       0.10550114       0.57246667      12.69301394      -0.16110194      -0.01154143       0.07895846
Si       0.10550114       9.94917648       2.07412196      -0.16110194       0.01154143      -0.07895846
Si       0.39171971       9.92108676       4.38515789      -0.05987977      -0.12113801       0.40111504
Si       0.39171971       0.60055639      10.38197801      -0.05987977       0.12113801      -0.40111504
Si       1.67394643       4.66026519       2.99841006      -0.05987977      -0.12113801      -0.40111504
Si       1.67394643       5.86137796      11.76872583      -0.05987977       0.12113801       0.40111504
Si       1.10928096       0.00000000       0.00000000       0.24958068       0.00000000       0.00000000
Si       2.39150767       5.26082158       7.38356795       0.24958068       0.00000000       0.00000000
22
Lattice="2.5483642496381953 7.916266813916976e-12 9.181089478900877e-14 -3.27622973764529e-11 10.546671724529302 -1.2873501568643036e-16 -5.40896427363371e-13 1.5359763302911963e-16 15.013480931838778" Properties=species:S:1:pos:R:3:forces:R:3 unique_starting_index=486 config_type=initial n_minim_iter=3 energy=-3576.947592871916 stress="0.006867373105550401 -8.737459523384604e-13 -9.60530276453551e-13 -8.737459523384604e-13 0.004835994278732233 2.10718385905819e-12 -9.60530276453551e-13 2.10718385905819e-12 -0.000980173279971543" free_energy=-3576.947592871916 pbc="T T T"
Si       1.40227026       3.60722400      12.72889359       0.04075737      -0.42902037       0.04050413
Si       1.40227026       6.93944773       2.28458734       0.04075737       0.42902037      -0.04050413
Si       0.12808814       8.88055986       9.79132781       0.04075737      -0.42902037      -0.04050413
Si       0.12808814       1.66611186       5.22215312       0.04075737       0.42902037       0.04050413
Si       1.33881674       2.39319905       2.21004269       0.20278075       0.14725385       0.26829300
Si       1.33881674       8.15347268      12.80343824       0.20278075      -0.14725385      -0.26829300
Si       0.06463461       7.66653491       5.29669778       0.20278075       0.14725385      -0.26829300
Si       0.06463461       2.88013681       9.71678315       0.20278075      -0.14725385       0.26829300
Si       0.46548473       2.86470882       7.32880434      -0.21953736      -0.13876889       0.02987224
Si       0.46548473       7.68196290       7.68467659      -0.21953736       0.13876889      -0.02987224
Si       1.73966685       8.13804469       0.17793612      -0.21953736      -0.13876889      -0.02987224
Si       1.73966685       2.40862704      14.83554481      -0.21953736       0.13876889       0.02987224
Si       1.37282265       5.84404600       9.62448860      -0.06589019      -0.02647753       0.04624611
Si       1.37282265       4.70262573       5.38899233      -0.06589019       0.02647753      -0.04624611
Si       0.09864052       0.57071013      12.89573280      -0.06589019      -0.02647753      -0.04624611
Si       0.09864052       9.97596159       2.11774814      -0.06589019       0.02647753       0.04624611
Si       0.38364268       9.96516897       4.47394792      -0.05497404      -0.41094194       0.06080162
Si       0.38364268       0.58150275      10.53953301      -0.05497404       0.41094194      -0.06080162
Si       1.65782481       4.69183311       3.03279254      -0.05497404      -0.41094194      -0.06080162
Si       1.65782481       5.85483861      11.98068839      -0.05497404       0.41094194       0.06080162
Si       1.10907627       0.00000000       0.00000000       0.19372693       0.00000000      -0.00000000
Si       2.38325840       5.27333586       7.50674047       0.19372693      -0.00000000      -0.00000000
22
Lattice="2.5283111449618656 7.853973628361673e-12 9.108843390693781e-14 -3.258418739503253e-11 10.489335467449461 -1.2829992983299321e-16 -5.418195511968565e-13 1.5382566334260594e-16 15.039103770834622" Properties=species:S:1:pos:R:3:forces:R:3 unique_starting_index=486 config_type=initial n_minim_iter=4 energy=-3576.9685232860807 stress="-0.003250374722116616 3.104670758656327e-12 -6.319099017630557e-13 3.104670758656327e-12 -0.0002920872965938158 -7.61224704750198e-13 -6.319099017630557e-13 -7.61224704750198e-13 -0.0028808678161420342" free_energy=-3576.9685232860807 pbc="T T T"
Si       1.39265178       3.58691933      12.74920486       0.04812333      -0.53164654       0.06134652
Si       1.39265178       6.90241614       2.28989891       0.04812333       0.53164654      -0.06134651
Si       0.12849621       8.83158706       9.80945080       0.04812333      -0.53164654      -0.06134651
Si       0.12849621       1.65774841       5.22965297       0.04812333       0.53164654       0.06134652
Si       1.33101646       2.37817107       2.21542642       0.20344425       0.09971305       0.25572265
Si       1.33101646       8.11116439      12.82367735       0.20344425      -0.09971305      -0.25572265
Si       0.06686089       7.62283881       5.30412547       0.20344425       0.09971305      -0.25572265
Si       0.06686089       2.86649666       9.73497830       0.20344425      -0.09971305       0.25572265
Si       0.45934590       2.84166775       7.34355095      -0.22025739      -0.17137608       0.06280722
Si       0.45934590       7.64766771       7.69555282      -0.22025739       0.17137608      -0.06280722
Si       1.72350147       8.08633549       0.17600094      -0.22025739      -0.17137608      -0.06280722
Si       1.72350147       2.40299998      14.86310283      -0.22025739       0.17137608       0.06280722
Si       1.36068985       5.81159972       9.64283905      -0.04976210      -0.04183221       0.10451150
Si       1.36068985       4.67773575       5.39626472      -0.04976210       0.04183221      -0.10451150
Si       0.09653428       0.56693198      12.91581660      -0.04976210      -0.04183221      -0.10451150
Si       0.09653428       9.92240348       2.12328717      -0.04976210       0.04183221       0.10451150
Si       0.37940188       9.91392682       4.48468795      -0.06963308      -0.48454151      -0.00389389
Si       0.37940188       0.57540865      10.55441582      -0.06963308       0.48454151       0.00389389
Si       1.64355745       4.66925908       3.03486393      -0.06963308      -0.48454151       0.00389389
Si       1.64355745       5.82007639      12.00423984      -0.06963308       0.48454151      -0.00389389
Si       1.10210292       0.00000000       0.00000000       0.17616998      -0.00000000      -0.00000000
Si       2.36625849       5.24466773       7.51955189       0.17616998       0.00000000      -0.00000000
22
Lattice="2.5376947568622716 7.883122983871743e-12 9.142650088659011e-14 -3.214179485587814e-11 10.346922716895657 -1.2771435001586e-16 -5.46788827289089e-13 1.5426554209732223e-16 15.177034302599168" Properties=species:S:1:pos:R:3:forces:R:3 unique_starting_index=486 config_type=initial n_minim_iter=5 energy=-3577.0043895379517 stress="0.0038002354133444363 4.750894762061515e-12 3.947370986402669e-12 4.750894762061515e-12 -0.008474414170617867 8.491447436935474e-12 3.947370986402669e-12 8.491447436935474e-12 0.002946093422873393" free_energy=-3577.0043895379517 pbc="T T T"
Si       1.40149750       3.52948667      12.86408533       0.03145413      -0.71518728       0.11820658
Si       1.40149750       6.81743605       2.31294897       0.03145413       0.71518728      -0.11820658
Si       0.13265013       8.70294803       9.90146612       0.03145413      -0.71518728      -0.11820658
Si       0.13265013       1.64397469       5.27556818       0.03145413       0.71518728       0.11820658
Si       1.34462745       2.34294845       2.24248862       0.19356998      -0.04699420       0.09686232
Si       1.34462745       8.00397426      12.93454568       0.19356998       0.04699420      -0.09686232
Si       0.07578007       7.51640981       5.34602853       0.19356998      -0.04699420      -0.09686232
Si       0.07578007       2.83051291       9.83100578       0.19356998       0.04699420       0.09686232
Si       0.45266575       2.78512738       7.41667804      -0.22973551      -0.18866595       0.15597254
Si       0.45266575       7.56179533       7.76035626      -0.22973551       0.18866595      -0.15597254
Si       1.72151313       7.95858874       0.17183911      -0.22973551      -0.18866595      -0.15597254
Si       1.72151313       2.38833397      15.00519519      -0.22973551       0.18866595       0.15597254
Si       1.36234189       5.73067843       9.73712321      -0.01440561      -0.08964406       0.14957895
Si       1.36234189       4.61624429       5.43991110      -0.01440561       0.08964406      -0.14957895
Si       0.09349451       0.55721707      13.02842825      -0.01440561      -0.08964406      -0.14957895
Si       0.09349451       9.78970564       2.14860605      -0.01440561       0.08964406       0.14957895
Si       0.37722880       9.77892422       4.53202808      -0.03624210      -0.50989690      -0.19984395
Si       0.37722880       0.56799849      10.64500622      -0.03624210       0.50989690       0.19984395
Si       1.64607617       4.60546286       3.05648907      -0.03624210      -0.50989690       0.19984395
Si       1.64607617       5.74145985      12.12054523      -0.03624210       0.50989690      -0.19984395
Si       1.11222563       0.00000000       0.00000000       0.11071821      -0.00000000      -0.00000000
Si       2.38107300       5.17346136       7.58851715       0.11071821       0.00000000      -0.00000000
22
Lattice="2.5154739071531207 7.814095891235937e-12 9.062594182402317e-14 -3.206607589695344e-11 10.322547655710984 -1.304500081684849e-16 -5.542262435203271e-13 1.525504985356207e-16 15.383472173365167" Properties=species:S:1:pos:R:3:forces:R:3 unique_starting_index=486 config_type=initial n_minim_iter=6 energy=-3577.1882417999623 stress="-0.0012707571655986287 2.6145451731068546e-12 -6.428013789651984e-13 2.6145451731068546e-12 0.0032351433732190965 6.190415555619611e-12 -6.428013789651984e-13 6.190415555619611e-12 0.009341014475656325" free_energy=-3577.1882417999623 pbc="T T T"
Si       1.40278135       3.47925126      13.03354641       0.03988572      -0.49596059       0.02683221
Si       1.40278135       6.84329640       2.34992576       0.03988572       0.49596059      -0.02683221
Si       0.14504440       8.64052509      10.04166185       0.03988572      -0.49596059      -0.02683221
Si       0.14504440       1.68202257       5.34181032       0.03988572       0.49596059       0.02683221
Si       1.36671534       2.32650931       2.29925217       0.17414822      -0.14300919      -0.05657655
Si       1.36671534       7.99603835      13.08422001       0.17414822       0.14300919       0.05657655
Si       0.10897839       7.48778314       5.39248392       0.17414822      -0.14300919       0.05657655
Si       0.10897839       2.83476452       9.99098825       0.17414822       0.14300919      -0.05657655
Si       0.41529574       2.71163951       7.54094090      -0.26350267       0.10416352       0.29346685
Si       0.41529574       7.61090815       7.84253127      -0.26350267      -0.10416352      -0.29346685
Si       1.67303269       7.87291334       0.15079518      -0.26350267       0.10416352      -0.29346685
Si       1.67303269       2.44963432      15.23267699      -0.26350267      -0.10416352       0.29346685
Si       1.33810741       5.70866946       9.89321486       0.03203539      -0.11645704       0.21371354
Si       1.33810741       4.61387820       5.49025732       0.03203539       0.11645704      -0.21371354
Si       0.08037046       0.54739563      13.18199340       0.03203539      -0.11645704      -0.21371354
Si       0.08037046       9.77515203       2.20147877       0.03203539       0.11645704       0.21371354
Si       0.36060093       9.74660568       4.61309034      -0.04138099      -0.18464936      -0.29433889
Si       0.36060093       0.57594197      10.77038184      -0.04138099       0.18464936       0.29433889
Si       1.61833789       4.58533185       3.07864575      -0.04138099      -0.18464936       0.29433889
Si       1.61833789       5.73721580      12.30482642      -0.04138099       0.18464936      -0.29433889
Si       1.12572417       0.00000000       0.00000000       0.11762864      -0.00000000      -0.00000000
Si       2.38346112       5.16127383       7.69173609       0.11762864       0.00000000      -0.00000000
22
Lattice="2.48977975924064 7.734279306750295e-12 8.97002489168885e-14 -3.07522086892048e-11 9.899594223278351 -1.0252802183496865e-16 -5.655862318923261e-13 1.885181245836782e-16 15.698787564964796" Properties=species:S:1:pos:R:3:forces:R:3 unique_starting_index=486 config_type=initial n_minim_iter=7 energy=-3577.615175979488 stress="-0.009193709146110753 -1.6727866422379913e-12 -4.544801367706526e-12 -1.6727866422379913e-12 0.0004474219703788551 -5.025793133483738e-12 -4.544801367706526e-12 -5.025793133483738e-12 0.0089431973981476" free_energy=-3577.615175979488 pbc="T T T"
Si       1.43704243       3.18870845      13.27695915       0.13967116      -0.30576988       0.07232396
Si       1.43704243       6.71088577       2.42182841       0.13967116       0.30576988      -0.07232396
Si       0.19215255       8.13850556      10.27122220       0.13967116      -0.30576988      -0.07232396
Si       0.19215255       1.76108866       5.42756537       0.13967116       0.30576988       0.07232396
Si       1.47379376       2.18470303       2.43563295       0.12869167      -1.06203221      -0.50624840
Si       1.47379376       7.71489119      13.26315462       0.12869167       1.06203221       0.50624840
Si       0.22890388       7.13450014       5.41376083       0.12869167      -1.06203221       0.50624840
Si       0.22890388       2.76509408      10.28502673       0.12869167       1.06203221      -0.50624840
Si       0.28787723       2.38454810       7.79399087      -0.22378178       0.33691882       0.58008131
Si       0.28787723       7.51504613       7.90479669      -0.22378178      -0.33691882      -0.58008131
Si       1.53276711       7.33434521       0.05540291      -0.22378178       0.33691882      -0.58008131
Si       1.53276711       2.56524901      15.64338465      -0.22378178      -0.33691882       0.58008131
Si       1.28232123       5.44193986      10.18634854      -0.01805723      -0.17970182       0.25726300
Si       1.28232123       4.45765437       5.51243903      -0.01805723       0.17970182      -0.25726300
Si       0.03743135       0.49214275      13.36183281      -0.01805723      -0.17970182      -0.25726300
Si       0.03743135       9.40745148       2.33695476      -0.01805723       0.17970182       0.25726300
Si       0.30997377       9.32264193       4.76891456      -0.09556376       0.93106032      -0.33516500
Si       0.30997377       0.57695229      10.92987301      -0.09556376      -0.93106032       0.33516500
Si       1.55486365       4.37284482       3.08047922      -0.09556376       0.93106032       0.33516500
Si       1.55486365       5.52674940      12.61830834      -0.09556376      -0.93106032      -0.33516500
Si       1.19944581       0.00000000       0.00000000       0.13807988      -0.00000000      -0.00000000
Si       2.44433569       4.94979711       7.84939378       0.13807988       0.00000000       0.00000000
22
Lattice="2.4850494865468478 7.719585135478668e-12 8.952982957095923e-14 -3.0284641526129704e-11 9.749077386151189 -1.1777405177271506e-16 -5.683929510032249e-13 1.6494000422523752e-16 15.776692727063798" Properties=species:S:1:pos:R:3:forces:R:3 unique_starting_index=486 config_type=initial n_minim_iter=8 energy=-3577.738838459419 stress="-0.013018899980869674 -7.40921307524348e-12 -1.0920063470203703e-13 -7.40921307524348e-12 -0.0033305413672654618 -1.6865876339409314e-13 -1.0920063470203703e-13 -1.6865876339409314e-13 0.011559471403841462" free_energy=-3577.738838459419 pbc="T T T"
Si       1.45565875       3.08617459      13.33095669       0.12661652      -0.32037145       0.20984223
Si       1.45565875       6.66290280       2.44573604       0.12661652       0.32037145      -0.20984223
Si       0.21313401       7.96071328      10.33408240       0.12661652      -0.32037145      -0.20984223
Si       0.21313401       1.78836410       5.44261033       0.12661652       0.32037145       0.20984223
Si       1.52089926       2.12561787       2.48085681       0.14307974      -1.28722041      -0.58746732
Si       1.52089926       7.62345952      13.29583592       0.14307974       1.28722041       0.58746732
Si       0.27837451       7.00015656       5.40748956       0.14307974      -1.28722041       0.58746732
Si       0.27837451       2.74892083      10.36920317       0.14307974       1.28722042      -0.58746732
Si       0.23698155       2.25654629       7.87668985      -0.11601763       0.50943348       0.43144254
Si       0.23698155       7.49253109       7.90000288      -0.11601762      -0.50943348      -0.43144254
Si       1.47950629       7.13108499       0.01165652      -0.11601763       0.50943348      -0.43144254
Si       1.47950629       2.61799240      15.76503621      -0.11601762      -0.50943348       0.43144254
Si       1.26154434       5.34544477      10.27532343      -0.07347223      -0.17939735       0.18073024
Si       1.26154434       4.40363262       5.50136930      -0.07347223       0.17939734      -0.18073024
Si       0.01901960       0.47090607      13.38971566      -0.07347223      -0.17939735      -0.18073024
Si       0.01901960       9.27817131       2.38697706      -0.07347223       0.17939734       0.18073024
Si       0.28936227       9.18377786       4.82113842      -0.14082782       1.15745020      -0.30342458
Si       0.28936227       0.56529952      10.95555431      -0.14082782      -1.15745020       0.30342458
Si       1.53188701       4.30923917       3.06720795      -0.14082782       1.15745020       0.30342458
Si       1.53188701       5.43983822      12.70948478      -0.14082782      -1.15745019      -0.30342458
Si       1.23208690       0.00000000       0.00000000       0.12124284       0.00000000      -0.00000000
Si       2.47461164       4.87453869       7.88834636       0.12124284       0.00000000       0.00000000
22
Lattice="2.51550962530391 7.814206846493527e-12 9.062722865552102e-14 -3.003063143888446e-11 9.66730775400019 -1.198221686825434e-16 -5.577246013470478e-13 1.5710109602177626e-16 15.480574919597457" Properties=species:S:1:pos:R:3:forces:R:3 unique_starting_index=486 config_type=initial n_minim_iter=9 energy=-3578.1107694729353 stress="-0.0017753665689475646 -2.2611132712607928e-12 7.763366813639935e-13 -2.2611132712607928e-12 0.009629983689471015 6.623369473684075e-13 7.763366813639935e-13 6.623369473684075e-13 0.005188033903383466" free_energy=-3578.1107694729353 pbc="T T T"
Si       1.50487413       2.99419838      13.06531543       0.08475185      -0.27941253       0.25052861
Si       1.50487413       6.67310937       2.41525949       0.08475185       0.27941253      -0.25052861
Si       0.24711932       7.82785226      10.15554695       0.08475185      -0.27941253      -0.25052861
Si       0.24711932       1.83945549       5.32502797       0.08475185       0.27941253       0.25052861
Si       1.60897336       2.05389944       2.46797002       0.15955001      -0.82918488      -0.37543341
Si       1.60897336       7.61340831      13.01260490       0.15955001       0.82918488       0.37543341
Si       0.35121854       6.88755332       5.27231744       0.15955001      -0.82918488       0.37543341
Si       0.35121854       2.77975444      10.20825748       0.15955001       0.82918488      -0.37543341
Si       0.17206206       2.11873842       7.79267920       0.03255012       0.53853218       0.18613808
Si       0.17206206       7.54856933       7.68789572       0.03255012      -0.53853218      -0.18613808
Si       1.42981687       6.95239230      -0.05239174       0.03255012       0.53853218      -0.18613808
Si       1.42981687       2.71491545      15.53296666       0.03255012      -0.53853218       0.18613808
Si       1.24900042       5.28044231      10.13334590      -0.19594052      -0.13173532      -0.19121905
Si       1.24900042       4.38686544       5.34722902      -0.19594052       0.13173532       0.19121905
Si      -0.00875439       0.44678844      13.08751648      -0.19594052      -0.13173532       0.19121905
Si      -0.00875439       9.22051932       2.39305844      -0.19594052       0.13173532      -0.19121905
Si       0.26330235       9.13760888       4.77109493      -0.09667359       0.75693630       0.18293503
Si       0.26330235       0.52969888      10.70947999      -0.09667359      -0.75693630      -0.18293503
Si       1.52105716       4.30395500       2.96919253      -0.09667359       0.75693630      -0.18293503
Si       1.52105716       5.36335275      12.51138239      -0.09667359      -0.75693630       0.18293503
Si       1.29645579       0.00000000       0.00000000       0.03152424       0.00000000      -0.00000000
Si       2.55421060       4.83365388       7.74028746       0.03152424       0.00000000      -0.00000000
22
Lattice="2.53701399112016 7.881008245661484e-12 9.140197467848072e-14 -2.928831079756816e-11 9.428343678058026 -1.4624983353167983e-16 -5.496576259293714e-13 1.1350760085615491e-16 15.256662585398326" Properties=species:S:1:pos:R:3:forces:R:3 unique_starting_index=486 config_type=initial n_minim_iter=10 energy=-3578.358757620138 stress="0.00040572901730126965 2.9444454654666552e-12 7.228950248119815e-13 2.9444454654666552e-12 -0.0003612244157276466 -3.760253542816638e-13 7.228950248119815e-13 -3.760253542816638e-13 0.0034827090389842677" free_energy=-3578.358757620138 pbc="T T T"
Si       1.55097868       2.84995653      12.86527111       0.03868349      -0.35529103       0.42225996
Si       1.55097868       6.57838715       2.39139148       0.03868349       0.35529103      -0.42225996
Si       0.28247168       7.56412837      10.01972277       0.03868349      -0.35529103      -0.42225996
Si       0.28247168       1.86421531       5.23693981       0.03868349       0.35529103       0.42225996
Si       1.69663537       1.94182884       2.46218442       0.13170266      -0.41519431      -0.26936267
Si       1.69663537       7.48651484      12.79447817       0.13170266       0.41519431       0.26936267
Si       0.42812838       6.65600068       5.16614688       0.13170266      -0.41519431       0.26936267
Si       0.42812838       2.77234300      10.09051571       0.13170266       0.41519431      -0.26936267
Si       0.10579121       1.95100686       7.74496911       0.09124457       0.36266507       0.00364137
Si       0.10579121       7.47733682       7.51169347       0.09124457      -0.36266507      -0.00364137
Si       1.37429821       6.66517870      -0.11663782       0.09124457       0.36266507      -0.00364137
Si       1.37429821       2.76316498      15.37330040       0.09124457      -0.36266507       0.00364137
Si       1.22702798       5.12836053      10.03252238      -0.27860732       0.02802799      -0.42470013
Si       1.22702798       4.29998315       5.22414021      -0.27860732      -0.02802799       0.42470013
Si      -0.04147901       0.41418869      12.85247150      -0.27860732       0.02802799       0.42470013
Si      -0.04147901       9.01415499       2.40419109      -0.27860732      -0.02802799      -0.42470013
Si       0.23403420       8.94777574       4.74947836       0.03323134       0.35631447       0.46775499
Si       0.23403420       0.48056794      10.50718422       0.03323134      -0.35631447      -0.46775499
Si       1.50254119       4.23360390       2.87885293       0.03323134       0.35631447      -0.46775499
Si       1.50254119       5.19473978      12.37780965       0.03323134      -0.35631447       0.46775499
Si       1.35706560       0.00000000       0.00000000      -0.03250946       0.00000000      -0.00000000
Si       2.62557260       4.71417184       7.62833129      -0.03250946      -0.00000000      -0.00000000
22
Lattice="2.550842525638848 7.923965357821156e-12 9.190018058760916e-14 -2.91130606932595e-11 9.371928058036175 -1.4197264280074926e-16 -5.415512378888322e-13 1.158179481143094e-16 15.031656288229794" Properties=species:S:1:pos:R:3:forces:R:3 unique_starting_index=486 config_type=initial n_minim_iter=11 energy=-3578.4608817238563 stress="0.0016121162039922968 3.6112858899874396e-12 -5.744263397233484e-12 3.6112858899874396e-12 -0.005829057256019381 5.7001339818504854e-12 -5.744263397233484e-12 5.7001339818504854e-12 -0.006291471053086589" free_energy=-3578.4608817238563 pbc="T T T"
Si       1.57033058       2.80985888      12.67987777       0.03617680      -0.40146618       0.37336590
Si       1.57033058       6.56206918       2.35177851       0.03617680       0.40146617      -0.37336590
Si       0.29490932       7.49582291       9.86760666       0.03617680      -0.40146617      -0.37336590
Si       0.29490932       1.87610515       5.16404963       0.03617680       0.40146617       0.37336590