22
Lattice="5.408891072090927 1.2128349194519283 -0.33716133982507696 3.9269447138175444 6.499404965955863 -0.8303382883400173 0.5112076877479456 -1.150923387655062 13.459484174174117" Properties=species:S:1:pos:R:3:forces:R:3 unique_starting_index=40 config_type=initial n_minim_iter=1 energy=-3581.10665729067 stress="0.004730642034547947 0.0014776355052020702 -0.0008001058390409116 0.0014776355052020702 0.001498820859369349 -0.0008314363193624934 -0.0008001058390409116 -0.0008314363193624934 -0.0005756608275906746" free_energy=-3581.10665729067 pbc="T T T"
Si       7.06820370       2.71779920      10.32681554      -0.08628637      -0.01412452      -0.07237457
Si       1.72355673       2.12812558       3.69089243      -0.24220336       0.19448359       0.19748100
Si       4.82643316       1.31078999       5.37552061      -0.16560055       0.01155276      -0.07212569
Si       3.59779506       3.14787675      10.14061888       0.17645230      -0.19605533      -0.16941818
Si       3.53690925       0.73936824      12.03865110       0.14541731      -0.12263946      -0.05757287
Si       8.04014557       5.33375118       4.49354792      -0.26074360       0.01243430      -0.00532587
Si       6.70015672       2.93440880       1.04435655       0.14613053       0.34340552      -0.09484777
Si       5.37080457       4.48550770       7.16276909       0.21847819       0.00828028      -0.11049248
Si       4.71073224       4.05408991       0.26029982      -0.01125444      -0.02156377      -0.08751251
Si       5.44871015       4.03763819      11.59788175       0.03528348      -0.09130069       0.05579533
Si       5.20974862       2.21655131       8.47823337       0.02079831      -0.01582451       0.06908829
Si       3.60163486       5.00911693       8.59067899       0.06163621       0.22934353      -0.02995984
Si       2.43067068       3.51301834       0.23773946       0.20103715      -0.09341730       0.09390706
Si       1.37881602       0.19197682       6.98275651       0.19489786       0.02051364      -0.07397511
Si       3.10420482      -1.05185609      13.56327798      -0.13432345       0.23677047      -0.02988278
Si       7.62868958       4.96067875       6.81112755      -0.09337044      -0.11261814      -0.03891871
Si       4.74515388       3.37298610       3.88173420      -0.15830878      -0.12213093       0.13761380
Si       6.17848083       6.43535307       3.43538289       0.25473119      -0.24910443      -0.06091863
Si       4.53993501       5.17055536       2.29328022       0.14255933       0.09137873      -0.04639362
Si       3.28129592       1.67355142       7.09852449      -0.42309396      -0.02308338       0.12642420
Si       5.76587335       0.67104716      11.17825561      -0.15679846       0.01453201       0.18232343
Si       4.09476624       1.22742119       3.03135435       0.13456156      -0.10083237       0.08708553
22
Lattice="5.377994191477467 1.2015627499487243 -0.33141522103768883 3.89471838205285 6.48125483956085 -0.8213155052648073 0.5224362304563509 -1.137310461814652 13.467568495849497" Properties=species:S:1:pos:R:3:forces:R:3 unique_starting_index=40 config_type=initial n_minim_iter=2 energy=-3581.1162109203647 stress="-0.0016566439845136973 0.00042683485335646656 -0.00044673560671875377 0.00042683485335646656 -0.0014746756591201189 -0.00019311827998010447 -0.00044673560671875377 -0.00019311827998010447 -0.0023532237162136034" free_energy=-3581.1162109203647 pbc="T T T"
Si       7.03534753       2.71115185      10.34213730      -0.09511751      -0.00582499      -0.07429506
Si       1.71356760       2.12568605       3.69734455      -0.21677985       0.20098435       0.15721612
Si       4.80310568       1.30566380       5.38432954      -0.15194901       0.01534075      -0.09931399
Si       3.58313130       3.14555838      10.15285034       0.16602961      -0.18900256      -0.17356233
Si       3.52815289       0.74315802      12.05012226       0.10109090      -0.09710337      -0.04126580
Si       7.99214120       5.31575903       4.50858816      -0.24824016       0.02612215       0.03246965
Si       6.66122737       2.92035066       1.05349131       0.13673750       0.28989035      -0.04184896
Si       5.34201320       4.47581262       7.17606934       0.15731434      -0.02595599      -0.10070692
Si       4.67934115       4.03970212       0.26821045       0.04320918       0.00356816      -0.05722373
Si       5.42370848       4.03242007      11.61415974       0.01652714      -0.10177343       0.04953302
Si       5.18618618       2.21208564       8.49062362       0.03753243      -0.01011951       0.07497023
Si       3.58217728       5.00340216       8.60403049       0.04442780       0.24402166      -0.00182779
Si       2.41278954       3.50308041       0.24359519       0.15930219      -0.09102354       0.07030265
Si       1.37798720       0.19593411       6.98847671       0.17731301       0.00200213      -0.06004230
Si       3.10128472      -1.04193810      13.57375730      -0.11944182       0.24305948       0.00206547
Si       7.58600784       4.94580252       6.82685784      -0.03503373      -0.09487596      -0.06567339
Si       4.71753921       3.36277808       3.89200340      -0.17439175      -0.13009480       0.14051759
Si       6.13897116       6.41687750       3.44894733       0.23322393      -0.23790300      -0.06394552
Si       4.50984399       5.15678012       2.30350537       0.13505645       0.04771704      -0.10611246
Si       3.26637214       1.67187628       7.10795105      -0.40236704      -0.00102618       0.12706396
Si       5.74384718       0.67085293      11.19176200      -0.08443352       0.01023905       0.16428808
Si       4.07417390       1.22114967       3.03835691       0.11998992      -0.09824178       0.06739147
22
Lattice="5.371386330668732 1.193090520293226 -0.32446392942277213 3.878938859962628 6.482236680760524 -0.8135264322723553 0.5422860222126838 -1.1270632689783413 13.526471504213609" Properties=species:S:1:pos:R:3:forces:R:3 unique_starting_index=40 config_type=initial n_minim_iter=3 energy=-3581.1226367937043 stress="-0.0006508518120023087 -0.0008498432725880409 0.00042233897409854366 -0.0008498432725880409 0.0014380103408287272 0.00042618745493104717 0.00042233897409854366 0.00042618745493104717 0.0018203807009445892" free_energy=-3581.1226367937043 pbc="T T T"
Si       7.03861454       2.71178117      10.39928857      -0.08951537      -0.00188988      -0.04482361
Si       1.71208142       2.13017233       3.71897091      -0.20214472       0.17001051       0.10950049
Si       4.80351197       1.30388208       5.41520589      -0.13639683       0.03018572      -0.08569329
Si       3.58946425       3.15178748      10.20431780       0.19320632      -0.15475244      -0.18345291
Si       3.54113237       0.74852197      12.10835271       0.05258840      -0.04132539      -0.01152132
Si       7.98114341       5.31286755       4.54439451      -0.24802206       0.02641352       0.05878263
Si       6.65323341       2.91503349       1.06955684       0.12873328       0.25744792       0.00677666
Si       5.34064764       4.47889066       7.21849059       0.08629182      -0.01263303      -0.07285206
Si       4.66905074       4.03692279       0.27914244       0.07937498       0.04286433      -0.00186397
Si       5.42816541       4.03845393      11.67673821       0.01085827      -0.09134240       0.03755379
Si       5.18997574       2.21362710       8.53754263       0.00480109      -0.02719118       0.07149848
Si       3.58232076       5.01329541       8.65142185       0.06752935       0.20922741       0.03353029
Si       2.40598894       3.50314726       0.25171704       0.12469276      -0.07857164       0.01535617
Si       1.38712522       0.20034870       7.02089795       0.10299337      -0.02656918      -0.04429126
Si       3.11845358      -1.03470920      13.63666011      -0.10817076       0.20652792       0.02585383
Si       7.58029759       4.94460053       6.87149569       0.04899878      -0.09441187      -0.09862274
Si       4.71218127       3.36170310       3.91953519      -0.20361053      -0.13392262       0.10471818
Si       6.12884327       6.41626976       3.47812405       0.22575693      -0.20782738      -0.09854059
Si       4.50104930       5.15815154       2.32409732       0.13380010       0.00278979      -0.14187797
Si       3.26807378       1.67490617       7.14599410      -0.34471504       0.04876193       0.09958655
Si       5.75284614       0.67197558      11.25044579      -0.06021273      -0.03837403       0.11417474
Si       4.07378414       1.21767466       3.05883901       0.13316258      -0.08541803       0.10620793
22
Lattice="5.384800323337624 1.1899528378580497 -0.31995944104912605 3.890686497397288 6.453941963557297 -0.8115031263284109 0.555207045990436 -1.1236220182471048 13.535266762167685" Properties=species:S:1:pos:R:3:forces:R:3 unique_starting_index=40 config_type=initial n_minim_iter=4 energy=-3581.1449873788843 stress="0.0006799529059963518 -0.0003280914759082403 0.0012924181663202536 -0.0003280914759082403 -0.0025172451056490806 0.0007366805776476792 0.0012924181663202536 0.0007366805776476792 0.0016728267382664626" free_energy=-3581.1449873788843 pbc="T T T"
Si       7.06375768       2.70056549      10.40973932      -0.04225966      -0.01177177      -0.03442385
Si       1.71437018       2.12589724       3.72654997      -0.22406527       0.08874837       0.06362713
Si       4.81645491       1.29977296       5.41998952      -0.09114052       0.04652284       0.05679233
Si       3.61409333       3.13209009      10.20797662       0.17300894      -0.13505316      -0.14357960
Si       3.56344203       0.74261521      12.11787251       0.02161567      -0.00851664      -0.07569071
Si       7.99993863       5.29174849       4.55469221      -0.16292080       0.00322472       0.07351400
Si       6.67568037       2.91244319       1.07506731       0.08108720       0.22718325       0.09054056
Si       5.36607202       4.45889483       7.22438115       0.04699491      -0.03558679      -0.04328686
Si       4.68411009       4.02071262       0.28190842       0.06216827      -0.00354197      -0.00136728
Si       5.45427108       4.01754691      11.68936889       0.02100270      -0.04281930       0.03788947
Si       5.21191519       2.20377748       8.54918436      -0.01407784      -0.03579632       0.01810412
Si       3.60280143       4.99681522       8.65945005       0.05541621       0.14837513      -0.02499903
Si       2.41805486       3.48538452       0.25490818       0.13688688       0.04795313      -0.02344382
Si       1.40107326       0.19867947       7.02475472      -0.04715511      -0.04104322      -0.12303714
Si       3.13441782      -1.02403032      13.64811762      -0.07966001       0.06656513       0.04143722
Si       7.60720444       4.92107606       6.87943934       0.03572766       0.05677376      -0.02821045
Si       4.72340330       3.34379260       3.92923436      -0.17653102      -0.05252116       0.09518217
Si       6.15670042       6.38202894       3.48241963       0.16239999      -0.11520641      -0.13294459
Si       4.52044058       5.13672207       2.32541254       0.14809352       0.01527544      -0.09011897
Si       3.27229126       1.66813063       7.15630426      -0.13901998      -0.03003002       0.07463318
Si       5.77491227       0.66933729      11.26653018      -0.04576939      -0.05046807       0.10686574
Si       4.09082173       1.21064179       3.06683812       0.07819764      -0.13826694       0.06251636
22
Lattice="5.380184665410287 1.200863534307326 -0.34157851557727337 3.893283395828413 6.4925545089225425 -0.8407525131148013 0.5051425803746327 -1.1673908808892233 13.48194178992332" Properties=species:S:1:pos:R:3:forces:R:3 unique_starting_index=40 config_type=initial n_minim_iter=5 energy=-3581.1704900696473 stress="-0.0015077869732090107 -0.0007306280393868207 -0.00035440663256163733 -0.0007306280393868207 0.0008784676224848412 -0.0014690630154781871 -0.00035440663256163733 -0.0014690630154781871 -0.00041191759656036635" free_energy=-3581.1704900696473 pbc="T T T"
Si       7.01483349       2.68977018      10.33120708      -0.01068157      -0.02295451      -0.03190079
Si       1.68769440       2.13750258       3.70678444      -0.19207371      -0.17922326       0.12469802
Si       4.78402806       1.29617317       5.37342336      -0.12687554       0.04463555       0.22693621
Si       3.58560429       3.11215725      10.13474763       0.06535425      -0.06809155      -0.13472909
Si       3.52043347       0.71094067      12.05169446      -0.06806023      -0.02338847      -0.05637353
Si       7.96383800       5.31327186       4.49487587       0.05587875      -0.05711956       0.09045165
Si       6.67284165       2.94532001       1.03788425       0.08160339       0.20167787       0.09368374
Si       5.34357750       4.46432810       7.15833220      -0.08430500      -0.00061781      -0.00951541
Si       4.68317010       4.04487340       0.25051195       0.08048017      -0.00282378      -0.08722394
Si       5.40945781       4.00419990      11.61364641      -0.01461967      -0.00094178       0.03724236
Si       5.17715050       2.19343303       8.49322844       0.03709559      -0.06294808      -0.05358948
Si       3.57401120       5.01321599       8.59740158       0.08891575       0.04157940      -0.10276735
Si       2.42524799       3.50093128       0.23729180       0.02511023       0.16511938      -0.07576824
Si       1.38066137       0.17997187       6.98676375      -0.14018328      -0.15240361      -0.09979214
Si       3.07441576      -1.05428607      13.58551646       0.05191189      -0.02893869       0.04964868
Si       7.57662090       4.92858586       6.80619455       0.05584637       0.10137350       0.06632781
Si       4.69519131       3.34667768       3.89373671      -0.16499098       0.07588354       0.04334555
Si       6.15391400       6.39761364       3.42260334       0.03856029       0.22266815      -0.19634230
Si       4.51813380       5.16186139       2.27866200       0.07471658      -0.05987126       0.02164464
Si       3.22429514       1.65942678       7.11716347       0.06523086      -0.00339329      -0.01053075
Si       5.72329041       0.64396044      11.20644657       0.06605196      -0.05225421       0.10871200
Si       4.08258563       1.20514584       3.04112361       0.01503391      -0.13796752      -0.00415762
22
Lattice="5.388424312800314 1.2106841754554598 -0.3397483561145004 3.9107260551970393 6.4995239718351465 -0.8166307072351219 0.49524254195142825 -1.1134801535955745 13.46501878005159" Properties=species:S:1:pos:R:3:forces:R:3 unique_starting_index=40 config_type=initial n_minim_iter=6 energy=-3581.1774041974304 stress="-0.0006581454464658585 0.0005951806781475248 -0.0004209389684388665 0.0005951806781475248 0.0005654145836410246 0.0013467256969416125 -0.0004209389684388665 0.0013467256969416125 -0.0005321020318155349" free_energy=-3581.1774041974304 pbc="T T T"
Si       7.01977624       2.74532812      10.32715070      -0.03265670      -0.01844825      -0.02557029
Si       1.68572054       2.15792612       3.71436315      -0.17828563      -0.17475411       0.12036916
Si       4.78483195       1.32837585       5.37194514      -0.12756798       0.03101973       0.28208796
Si       3.59332685       3.15689190      10.13158065       0.05862462      -0.06842436      -0.10596103
Si       3.51910711       0.76456669      12.04030952      -0.06609518       0.04217968      -0.03585517
Si       7.97621114       5.34885416       4.50873866       0.11324499      -0.11631985       0.06544305
Si       6.68798412       2.97072357       1.04542826       0.09609910       0.13820881       0.10423867
Si       5.35524305       4.50467738       7.16485968      -0.08768540      -0.01347264       0.02610495
Si       4.69751782       4.05687711       0.26216763       0.01854789       0.02040605      -0.00370215
Si       5.41633013       4.06098318      11.61706886       0.03145555       0.02808428       0.00170803
Si       5.18232147       2.23724625       8.49187402       0.04423965      -0.04859442      -0.08180854
Si       3.58430941       5.06054519       8.60653353       0.07075961       0.01500319      -0.15320838
Si       2.43764862       3.50853607       0.24947638       0.07029508       0.16593201      -0.12484976
Si       1.37889963       0.20888914       6.97812303      -0.16012317      -0.09921337      -0.11218579
Si       3.06576515      -0.99161580      13.56810042       0.00006202      -0.09732660       0.06225913
Si       7.59064251       4.97235062       6.81453969       0.05187569       0.15259576       0.14346313
Si       4.69964842       3.37136388       3.90329748      -0.15432621       0.04302927       0.05037676
Si       6.17535624       6.42401588       3.43777430      -0.04614848       0.22810549      -0.24287352
Si       4.53498398       5.18203907       2.29263755       0.11261828      -0.03570145      -0.00658934
Si       3.22129352       1.69464897       7.11736766       0.12032224      -0.06162989      -0.02265564
Si       5.72285809       0.69915587      11.19911637       0.06021947      -0.03628876       0.06892484
Si       4.08972013       1.22259385       3.04222897       0.00452457      -0.09439059      -0.00971607
22
Lattice="5.426633269677154 1.1971842971429218 -0.3288663040909057 3.930496857467462 6.45210908457319 -0.828007503042649 0.5383914008975997 -1.15054669525257 13.485469038947718" Properties=species:S:1:pos:R:3:forces:R:3 unique_starting_index=40 config_type=initial n_minim_iter=7 energy=-3581.2036927959366 stress="0.004150795960727159 0.0006324803435342197 0.002565134157027631 0.0006324803435342197 -0.003048510612829876 -2.652075024701619e-05 0.002565134157027631 -2.652075024701619e-05 0.00012108840438982549" free_energy=-3581.2036927959366 pbc="T T T"
Si       7.09159748       2.68211206      10.34373579       0.08449142      -0.04405071      -0.00135665
Si       1.67759893       2.12883581       3.73371864      -0.25748260      -0.17093819       0.06785984
Si       4.81615720       1.30058304       5.40101060      -0.02226711       0.01729936       0.28013375
Si       3.66304652       3.08035878      10.12232543      -0.02064141       0.03924838       0.01026843
Si       3.57993358       0.71171699      12.05484367      -0.13552181       0.05779319      -0.13960527
Si       8.03167506       5.28288157       4.52723350       0.10272155      -0.07386550       0.01831214
Si       6.75273735       2.97039915       1.06245387      -0.00328174       0.06444176       0.16643454
Si       5.41392771       4.44151504       7.16800031      -0.01135720      -0.03206964      -0.00850152
Si       4.73578017       4.02324167       0.25703079       0.07214437      -0.09585389      -0.02793261
Si       5.48760356       3.98308766      11.63683341       0.03430126       0.13066134      -0.02824950
Si       5.24628392       2.18224195       8.50850965       0.04713113      -0.04372792      -0.18200046
Si       3.63950906       5.00954511       8.60079914       0.06982033      -0.10123980      -0.06946790
Si       2.46741960       3.48774690       0.24078437       0.05439974       0.31072976      -0.14809048
Si       1.40580259       0.17353765       6.97628991      -0.27036424      -0.11480960      -0.22315630
Si       3.12193266      -1.02368252      13.60031339       0.06305306      -0.20631858       0.05052760
Si       7.66474042       4.91089996       6.83007822      -0.06311557       0.24123735       0.24511635
Si       4.71819436       3.32555658       3.92180429      -0.06715480       0.14372136      -0.03782764
Si       6.24011275       6.36074070       3.41620382       0.01234587       0.23217798      -0.14189496
Si       4.58658205       5.13238356       2.28400797       0.03018159       0.00583542       0.15742424
Si       3.24658107       1.65341096       7.13567690       0.22665931      -0.09773009       0.05562017
Si       5.79493533       0.64646129      11.24205615       0.04742039      -0.09357808      -0.00149444
Si       4.13703230       1.18363344       3.05890687       0.00651645      -0.16896390      -0.04211934
22
Lattice="5.431304818395657 1.189901764078334 -0.37063000177140465 3.9345111704907167 6.42823998663614 -0.8663484137652325 0.4423432556908965 -1.1593582074737476 13.548190328221986" Properties=species:S:1:pos:R:3:forces:R:3 unique_starting_index=40 config_type=initial n_minim_iter=8 energy=-3581.226280173459 stress="0.0036642309534603863 0.00022862893694875063 -0.0019195816969185735 0.00022862893694875063 -0.004520268547403223 5.072365399277376e-05 -0.0019195816969185735 5.072365399277376e-05 0.003643770720516892" free_energy=-3581.226280173459 pbc="T T T"
Si       7.01599319       2.65698277      10.33667920       0.06919241       0.02958530       0.02583982
Si       1.62845775       2.11253022       3.75063351      -0.29288307      -0.10470185       0.02077854
Si       4.76645051       1.29125697       5.40574178      -0.12367423       0.00900549       0.21743116
Si       3.60052542       3.04844491      10.12897303      -0.04630425       0.04830868      -0.00718396
Si       3.49241402       0.69461343      12.08138352      -0.08114228       0.02068815      -0.07410332
Si       7.99642322       5.25081796       4.49259316       0.11897330      -0.07849691       0.08998675
Si       6.75666309       2.97540258       1.02313182       0.09816397       0.00302839       0.13232630
Si       5.36272968       4.41481850       7.15670063      -0.02847162      -0.04084428       0.04186953
Si       4.73976272       4.00608260       0.21649549       0.07370118      -0.02930269      -0.02776827
Si       5.40596594       3.95413807      11.65250725       0.04653368       0.03589799      -0.02591752
Si       5.19001259       2.15924214       8.50664541       0.07547146      -0.01231873      -0.14836359
Si       3.58390565       4.99073137       8.60431106       0.16712521      -0.11469963      -0.02211164
Si       2.47393980       3.48383248       0.21505940      -0.00926557       0.20770223      -0.11832478
Si       1.34970764       0.15709270       6.98887572      -0.18183255      -0.07784601      -0.11836345
Si       3.02411129      -1.03252233      13.64905840       0.09716931      -0.04988999       0.06977534
Si       7.61876374       4.88938293       6.80948105      -0.13562166       0.21124617       0.11062282
Si       4.67373161       3.30768472       3.91060056      -0.03503000       0.15335020      -0.07287217
Si       6.22395783       6.33815249       3.36484241       0.11544216       0.21705873      -0.07301859
Si       4.58021068       5.10846650       2.25523033      -0.13236663      -0.07053880       0.06628938
Si       3.18983502       1.63679740       7.14973301       0.24277817      -0.11212487      -0.02911645
Si       5.71761692       0.62591410      11.26453330      -0.06163597      -0.06779436      -0.03935092
Si       4.12221124       1.16204444       3.04550598       0.02367696      -0.17731321      -0.01842499
22
Lattice="5.420553714529455 1.199121036144074 -0.3644376061161697 3.928171159524842 6.467968763490035 -0.8623947866277855 0.4544047924254089 -1.173035859635274 13.493056710755015" Properties=species:S:1:pos:R:3:forces:R:3 unique_starting_index=40 config_type=initial n_minim_iter=9 energy=-3581.2643375512835 stress="-0.0005548040759672851 0.0008675172250088717 -4.9404067981088705e-05 0.0008675172250088717 0.0006173816830955777 -0.00023877311593026486 -4.9404067981088705e-05 -0.00023877311593026486 0.001237742762220977" free_energy=-3581.2643375512835 pbc="T T T"
Si       7.00938151       2.66742578      10.29427787       0.08778544       0.01222832       0.01068594
Si       1.59558928       2.11352295       3.75428002      -0.23200953       0.04992016       0.08554746
Si       4.74309461       1.30244053       5.41189512      -0.08816729      -0.05321234      -0.13268662
Si       3.61750086       3.04996852      10.07014927      -0.14702763       0.13732559       0.08183343
Si       3.49214410       0.69266592      12.02582770      -0.13873668       0.00568473       0.00927701
Si       7.98507043       5.27404924       4.48878780      -0.05146270      -0.03655577      -0.01785153
Si       6.76012388       3.02345682       1.03569048       0.12781329      -0.07725244       0.01573528
Si       5.35912915       4.43673501       7.12659217       0.07658376      -0.03643527      -0.04648272
Si       4.74136776       4.03106032       0.21205163       0.13480424      -0.01292234       0.00117667
Si       5.41079647       3.97290071      11.61003520       0.04804002       0.07058290      -0.07932931
Si       5.19514044       2.16291205       8.46776501       0.14894413      -0.00609193      -0.18573832
Si       3.59992113       5.02678827       8.55803949       0.12993837      -0.11017022       0.16570010
Si       2.48231045       3.52292095       0.20390228      -0.08139702       0.05532182      -0.06839527
Si       1.34120252       0.14082112       6.94420384       0.05399092      -0.02950787      -0.04632373
Si       3.03005644      -1.04338943      13.60302190       0.07894269       0.08991906       0.01744424
Si       7.61398121       4.92995718       6.79700608      -0.12978621      -0.02311602       0.16269930
Si       4.64525733       3.32981610       3.90531995       0.00050129      -0.01144239      -0.15654190
Si       6.22979339       6.39081588       3.32749012       0.15236969       0.05987562       0.08368996
Si       4.58847266       5.13559489       2.24615409      -0.16626414      -0.07253472       0.10222665
Si       3.18755984       1.63954763       7.12729870      -0.09753869       0.02974619       0.13718833
Si       5.71937570       0.61877784      11.23655026      -0.01626210      -0.05736350      -0.14859445
Si       4.12514278       1.14970586       3.03918306       0.10893816       0.01600039       0.00873949
22
Lattice="5.427022186988566 1.1818200839187585 -0.36520730879463226 3.91515956934385 6.456343491076611 -0.8566775321501359 0.4521550871937368 -1.16424498122196 13.450449427808968" Properties=species:S:1:pos:R:3:forces:R:3 unique_starting_index=40 config_type=initial n_minim_iter=10 energy=-3581.2692138624416 stress="0.0002894882389889405 -0.0013080522100874857 -0.0005382970166228985 -0.0013080522100874857 0.000670881402682894 0.00048666156812778044 -0.0005382970166228985 0.00048666156812778044 -0.0008779416940442955" free_energy=-3581.2692138624416 pbc="T T T"
Si       7.00879589       2.65340079      10.26037324       0.06206896       0.03793622       0.02638739
Si       1.58255585       2.11070801       3.74728624      -0.23041273       0.04900466       0.11159647
Si       4.74124613       1.29216937       5.39668283      -0.08207162      -0.04920393      -0.12626885
Si       3.61021338       3.04610583      10.03747585      -0.11682272       0.10496034       0.06451859
Si       3.48833024       0.69094215      11.98628775      -0.09720237       0.03767931      -0.02182050
Si       7.98004131       5.25175349       4.47638641      -0.03614245      -0.03922510      -0.04818171
Si       6.76584812       3.00737059       1.03337637       0.07579994      -0.11412973      -0.01970398
Si       5.35167804       4.42558662       7.10447873       0.06590490      -0.03678633      -0.03838283
Si       4.73973174       4.01685638       0.21113365       0.14041333      -0.05116860       0.03408949
Si       5.40304273       3.96618506      11.57449212       0.06255865       0.06955275      -0.12385238
Si       5.19580770       2.15235654       8.43803902       0.13506961       0.02839830      -0.16962034
Si       3.58914831       5.02390225       8.53334222       0.15585589      -0.10704642       0.13524794
Si       2.47679189       3.51934208       0.20253765      -0.06713412       0.07755966      -0.09760512
Si       1.33811544       0.13953057       6.91914819       0.05078915      -0.04323637      -0.05798406
Si       3.03258029      -1.04187535      13.56006334       0.09598669       0.09110505       0.06212403
Si       7.60813048       4.91401553       6.77918755      -0.12219362      -0.11879605       0.17896597
Si       4.63741306       3.31924332       3.89360649       0.00021145       0.00264401      -0.12723272
Si       6.22238370       6.37786720       3.31560817       0.15674088       0.06249315       0.12220329
Si       4.58025540       5.12289338       2.24158703      -0.22804478      -0.04253832       0.10225370
Si       3.18323550       1.63483963       7.10700698      -0.13364452       0.10240326       0.15110656
Si       5.72256534       0.60786621      11.20052138      -0.04588342      -0.05130281      -0.10670029
Si       4.12970569       1.13625045       3.02908016       0.15815289      -0.01030305      -0.05114064
22
Lattice="5.433157991757548 1.1801344182320068 -0.3598040710959367 3.9163533415327194 6.454094734901835 -0.8712788897886166 0.47491005322369306 -1.21297904204414 13.409434129140108" Properties=species:S:1:pos:R:3:forces:R:3 unique_starting_index=40 config_type=initial n_minim_iter=11 energy=-3581.3060794872044 stress="-0.0021629150058111095 1.954311829702841e-06 0.0006428056604740399 1.954311829702841e-06 -2.5277932358855993e-05 -0.00047315248958712 0.0006428056604740399 -0.00047315248958712 -0.0024417481692353693" free_energy=-3581.3060794872044 pbc="T T T"
Si       7.03692079       2.61061663      10.22291546       0.04040591       0.04237555      -0.03749841
Si       1.53420641       2.08979313       3.75677019      -0.06722824       0.10585493       0.07643064
Si       4.72895305       1.26989934       5.39423893       0.00000831      -0.07373154      -0.21581712
Si       3.63098485       3.00430629       9.98604260      -0.07662960       0.04470591       0.06064313
Si       3.49562863       0.64600833      11.93856462       0.00555952      -0.01891470      -0.03966480
Si       7.98959728       5.21737063       4.46111766      -0.13658689      -0.02874543       0.06291252