14
Lattice="4.1142900000000004 4.930380657631324e-32 1.0838167810012257e-45 -0.12335538002055883 4.407123979730998 -2.775175405860296e-16 -2.094464034596031e-31 9.994330125541034e-16 15.871520000000006" Properties=species:S:1:pos:R:3:forces:R:3 unique_starting_index=0 config_type=initial n_minim_iter=1 energy=-2224.663536886716 stress="-0.6686146391006982 -0.1372593525797416 -0.5645662873730266 -6.304390214321888e-12 2.518795250316261e-12 -0.01797581952672287" pbc="T T T"
Si       0.99445531       1.13091737      12.47896990       9.65886363       0.64318701     -20.91176823
Si       1.00101200       1.07264462       4.54320990      -9.65886363      -0.64318701     -20.91176823
Si       2.99647931       3.27620661       3.39255010      -9.65886363      -0.64318701      20.91176823
Si       2.98992262       3.33447936      11.32831010       9.65886363       0.64318701      20.91176823
Si       3.28904654       1.14831185       5.58327696      19.73149270       0.78811967      -1.56132219
Si       2.82071077       1.05525014      13.51903696     -19.73149270      -0.78811967      -1.56132219
Si       0.70188808       3.25881213      10.28824304     -19.73149270      -0.78811967       1.56132219
Si       1.17022385       3.35187384       2.35248304      19.73149270       0.78811967       1.56132219
Si       1.73569007       1.10395371       5.96421883     -10.66676970       1.47404834      27.94087769
Si       0.25977724       1.09960828      13.89997883      10.66676971      -1.47404834      27.94087770
Si       2.25524455       3.30317027       9.90730117      10.66676970      -1.47404834     -27.94087770
Si       3.73115738       3.30751570       1.97154117     -10.66676970       1.47404834     -27.94087770
Si       2.05714500       0.00000000      -0.00000000       0.00000000       0.00000000      -0.00000000
Si      -0.06167769       2.20356199       7.93576000      -0.00000000       0.00000000       0.00000000
14
Lattice="4.194223254677525 0.0021532407504105183 -1.3559003107040268e-19 -0.12344545584451852 4.424503126932231 -2.786119092062289e-16 3.998230564547902e-31 1.0158038227602438e-15 16.131497045323584" Properties=species:S:1:pos:R:3:forces:R:3 unique_starting_index=0 config_type=initial n_minim_iter=2 energy=-2231.3569390044427 stress="-0.5364423718711252 -0.12230071427450576 -0.4714596321781026 -1.1610214549489846e-11 -2.3093337983121206e-12 -0.015415014164636708" pbc="T T T"
Si       1.01535235       1.13597915      12.68125121       8.55472163       0.55435664     -17.90731160
Si       1.02003655       1.07734903       4.61550269      -8.55472163      -0.55435664     -17.90731160
Si       3.05542545       3.29067721       3.45024583      -8.55472163      -0.55435664      17.90731160
Si       3.05074125       3.34930734      11.51599435       8.55472163       0.55435664      17.90731160
Si       3.35555930       1.15465845       5.67457289      16.57139488       0.62971598      -2.04548154
Si       2.87405285       1.06082298      13.74032141     -16.57139488      -0.62971598      -2.04548154
Si       0.71521850       3.27199792      10.45692415     -16.57139488      -0.62971598       2.04548153
Si       1.19672495       3.36583339       2.39117563      16.57139488       0.62971598       2.04548154
Si       1.76890184       1.10937905       6.06475317      -8.44176535       1.52369928      24.02921556
Si       0.26648706       1.10394913      14.13050169       8.44176536      -1.52369928      24.02921556
Si       2.30187595       3.31727732      10.06674387       8.44176535      -1.52369928     -24.02921556
Si       3.80429074       3.32270723       2.00099535      -8.44176535       1.52369928     -24.02921556
Si       2.09711163       0.00107662      -0.00000000       0.00000000       0.00000000      -0.00000000
Si      -0.06172273       2.21225156       8.06574852      -0.00000000       0.00000000       0.00000000
14
Lattice="4.665526029452327 0.015901963205347685 -1.0013500277195783e-18 -0.12284885435684216 4.532851218880962 -2.854346117542146e-16 -2.597309123000626e-29 1.1154603873413637e-15 17.714095516682296" Properties=species:S:1:pos:R:3:forces:R:3 unique_starting_index=0 config_type=initial n_minim_iter=3 energy=-2254.024756826204 stress="-0.1799911371742532 -0.0596181357767821 -0.1531800141486909 -6.642949152770323e-12 -3.6949249819165464e-13 -0.005161364878562049" pbc="T T T"
Si       1.13971909       1.16762127      13.91188968       4.93860483       0.14127053      -8.64353499
Si       1.13161950       1.10675532       5.05484192      -4.93860483      -0.14127053      -8.64353499
Si       3.40295809       3.38113191       3.80220583      -4.93860483      -0.14127053       8.64353499
Si       3.41105768       3.44199786      12.65925359       4.93860483       0.14127053       8.64353499
Si       3.74909644       1.19447680       6.22974458       6.32580852      -0.24513073      -3.56357471
Si       3.18776818       1.09580175      15.08679234      -6.32580852       0.24513073      -3.56357471
Si       0.79358074       3.35427638      11.48435094      -6.32580853       0.24513073       3.56357471
Si       1.35490900       3.45295143       2.62730318       6.32580852      -0.24513073       3.56357471
Si       1.96483064       1.14344131       6.67781719      -2.00650022       0.73082011      10.18793231
Si       0.30650795       1.13093528      15.53486495       2.00650022      -0.73082011      10.18793231
Si       2.57784653       3.40531187      11.03627832       2.00650022      -0.73082011     -10.18793231
Si       4.23616923       3.41781790       2.17923057      -2.00650022       0.73082011     -10.18793231
Si       2.33276301       0.00795098      -0.00000000       0.00000000       0.00000000      -0.00000000
Si      -0.06142443       2.26642561       8.85704776      -0.00000000      -0.00000000       0.00000000
14
Lattice="5.040265534506366 0.02712197727969241 -1.707876711963481e-18 -0.12206576443724365 4.650056381357138 -2.9281504578995224e-16 1.636249357745194e-26 1.1912567658501762e-15 18.91778172108307" Properties=species:S:1:pos:R:3:forces:R:3 unique_starting_index=0 config_type=initial n_minim_iter=4 energy=-2261.3738141233034 stress="-0.0577833931737695 0.02575943765244694 -0.02860571619030982 -8.626188379016625e-12 -4.566838773315129e-12 -0.00047072637110477455" pbc="T T T"
Si       1.24185765       1.20076680      14.84404115       3.44767433       0.10238994      -3.72985557
Si       1.21724224       1.13782238       5.38515029      -3.44767433      -0.10238994      -3.72985557
Si       3.67634212       3.47641156       4.07374057      -3.44767433      -0.10238994       3.72985557
Si       3.70095753       3.53935598      13.53263143       3.44767433       0.10238994       3.72985557
Si       4.06306737       1.23390098       6.64762987       2.86638669      -0.81138969      -1.80399245
Si       3.43629805       1.13181018      16.10652073      -2.86638669       0.81138969      -1.80399245
Si       0.85513240       3.44327738      12.27015185      -2.86638669       0.81138969       1.80399245
Si       1.48190172       3.54536818       2.81126099       2.86638669      -0.81138969       1.80399245
Si       2.12213487       1.17851270       7.14710542       0.07652085      -0.15393318       4.22944772
Si       0.33696502       1.16007648      16.60599628      -0.07652085       0.15393318       4.22944772
Si       2.79606490       3.49866566      11.77067630      -0.07652085       0.15393318      -4.22944772
Si       4.58123475       3.51710188       2.31178544       0.07652085      -0.15393318      -4.22944772
Si       2.52013277       0.01356099      -0.00000000      -0.00000000      -0.00000000      -0.00000000
Si      -0.06103288       2.32502819       9.45889086       0.00000000       0.00000000       0.00000000
14
Lattice="5.235789300733721 0.028899975364298666 -1.819842327959748e-18 -0.12602344619799505 4.5717738461277815 -2.8788572982823467e-16 -1.8074560065597318e-23 1.2139126637490168e-15 19.277577976459714" Properties=species:S:1:pos:R:3:forces:R:3 unique_starting_index=0 config_type=initial n_minim_iter=5 energy=-2262.6566791377304 stress="-0.009876151202891372 0.0135613861015837 -0.0046847517047470056 6.03538935298179e-12 1.3541870358090994e-11 0.0018588975100847043" pbc="T T T"
Si       1.29821748       1.18136226      15.11833923       2.83647179       0.16312093      -3.26476074
Si       1.25666545       1.11897465       5.47955024      -2.83647179      -0.16312093      -3.26476074
Si       3.81154837       3.41931156       4.15923875      -2.83647179      -0.16312093       3.26476074
Si       3.85310041       3.48169917      13.79802774       2.83647179       0.16312093       3.26476074
Si       4.22750414       1.21369021       6.77018184       1.66096278      -0.55079087      -1.81686164
Si       3.56316809       1.11554668      16.40897083      -1.66096278       0.55079087      -1.81686164
Si       0.88226172       3.38698362      12.50739614      -1.66096278       0.55079087       1.81686164
Si       1.54659776       3.48512714       2.86860715       1.66096278      -0.55079087       1.81686164
Si       2.20482617       1.15937857       7.29212998       0.80033081      -0.04799729       3.01263507
Si       0.35005676       1.14095834      16.93091897      -0.80033081       0.04799729       3.01263507
Si       2.90493968       3.44129525      11.98544800      -0.80033081       0.04799729      -3.01263507
Si       4.75970910       3.45971548       2.34665901       0.80033081      -0.04799729      -3.01263507
Si       2.61789465       0.01444999      -0.00000000      -0.00000000       0.00000000      -0.00000000
Si      -0.06301172       2.28588692       9.63878899       0.00000000       0.00000000      -0.00000000
14
Lattice="5.282767589543079 0.020903291996518053 -1.3103728875883106e-18 -0.13599780379001158 4.516175551326014 -2.8419295211320833e-16 2.2893317698395746e-20 1.2197638772294933e-15 19.35950966805824" Properties=species:S:1:pos:R:3:forces:R:3 unique_starting_index=0 config_type=initial n_minim_iter=6 energy=-2263.134855299818 stress="0.001329489688858145 0.005331351304186712 -0.0010586092227388845 -3.725877533298363e-12 -8.849408706385018e-13 0.003773600893683582" pbc="T T T"
Si       1.31669110       1.16546887      15.17310589       2.51909996       0.18621953      -3.11966248
Si       1.25669379       1.10307055       5.49335105      -2.51909996      -0.18621953      -3.11966248
Si       3.83007869       3.37160997       4.18640378      -2.51909996      -0.18621953       3.11966248
Si       3.89007599       3.43400829      13.86615861       2.51909996       0.18621953       3.11966248
Si       4.26844174       1.19160501       6.79367576       1.32725415      -0.39733559      -1.93620154
Si       3.58771074       1.09783771      16.47343060      -1.32725415       0.39733559      -1.93620154
Si       0.87832804       3.34547384      12.56583390      -1.32725415       0.39733559       1.93620154
Si       1.55905905       3.43924114       2.88607907       1.32725415      -0.39733559       1.93620154
Si       2.22495419       1.14193483       7.33187741       0.85004911       0.05358805       2.62844944
Si       0.34843070       1.12660459      17.01163224      -0.85004911      -0.05358805       2.62844943
Si       2.92181560       3.39514401      12.02763226      -0.85004911      -0.05358805      -2.62844943
Si       4.79833908       3.41047426       2.34787742       0.85004911       0.05358805      -2.62844943
Si       2.64138379       0.01045165      -0.00000000       0.00000000      -0.00000000      -0.00000000
Si      -0.06799890       2.25808778       9.67975483      -0.00000000       0.00000000      -0.00000000
14
Lattice="5.273944825713167 -0.0014090240869843239 -7.966804487515758e-18 -0.15963366997102169 4.486785782520462 -5.476721093338331e-16 -3.1363413623938765e-17 2.6453375164254764e-16 19.3851536733019" Properties=species:S:1:pos:R:3:forces:R:3 unique_starting_index=0 config_type=initial n_minim_iter=7 energy=-2263.63864763169 stress="0.0017722181890739964 0.0023990065785206446 0.00016727841042517738 2.4991545972705784e-12 1.4823768336063148e-12 0.0049588722516761725" pbc="T T T"
Si       1.31958910       1.15276871      15.18062324       2.28039479       0.17755227      -2.91503885
Si       1.23756648       1.08991967       5.48804640      -2.28039479      -0.17755227      -2.91503886
Si       3.79472206       3.33260805       4.20453044      -2.28039479      -0.17755227       2.91503886
Si       3.87674468       3.39545709      13.89710727       2.28039479       0.17755227       2.91503886
Si       4.26101363       1.16467840       6.79486632       1.28499103      -0.33568170      -2.01598141
Si       3.57008677       1.07660096      16.48744315      -1.28499103       0.33568170      -2.01598141
Si       0.85329752       3.32069836      12.59028736      -1.28499104       0.33568170       2.01598141
Si       1.54422439       3.40877580       2.89771052       1.28499103      -0.33568170       2.01598141
Si       2.21903995       1.12518249       7.35218962       0.62862990       0.07498096       2.35369612
Si       0.33811563       1.11750588      17.04476645      -0.62862990      -0.07498095       2.35369611
Si       2.89527121       3.36019426      12.03296406      -0.62862990      -0.07498095      -2.35369612
Si       4.77619553       3.36787087       2.34038722       0.62862990       0.07498096      -2.35369612
Si       2.63697241      -0.00070451      -0.00000000      -0.00000000      -0.00000000       0.00000000
Si      -0.07981683       2.24339289       9.69257684      -0.00000000       0.00000000       0.00000000
14
Lattice="5.235675665976324 -0.09929190438541682 -1.4263767829964115e-15 -0.26333595693328005 4.445532918870193 -7.288871987260729e-15 -4.3279989897937195e-15 -2.368107556732479e-14 19.371449767896095" Properties=species:S:1:pos:R:3:forces:R:3 unique_starting_index=0 config_type=initial n_minim_iter=8 energy=-2265.056225154457 stress="-0.00021170799702529855 2.452407079595391e-05 0.0017434002864912294 4.928496424081124e-12 9.08517353960693e-12 0.007216486068301063" pbc="T T T"
Si       1.31730641       1.11793574      15.12984266       1.65391913       0.18227445      -2.27794972
Si       1.16886344       1.05518477       5.44411777      -1.65391913      -0.18227445      -2.27794972
Si       3.65503330       3.22830528       4.24160711      -1.65391913      -0.18227445       2.27794972
Si       3.80347627       3.29105625      13.92733199       1.65391913       0.18227445       2.27794972
Si       4.22224389       1.07056101       6.76236578       1.15461856      -0.16430388      -2.14989003
Si       3.49960163       1.00326759      16.44809067      -1.15461856       0.16430388      -2.14989003
Si       0.75009582       3.27568000      12.60908399      -1.15461856       0.16430388       2.14989003
Si       1.47273808       3.34297342       2.92335910       1.15461856      -0.16430388       2.14989003
Si       2.18606078       1.07343151       7.37932898       0.04132048      -0.01270491       1.74985997
Si       0.30010907       1.09968900      17.06505386      -0.04132048       0.01270491       1.74985997
Si       2.78627893       3.27280950      11.99212079      -0.04132048       0.01270491      -1.74985997
Si       4.67223063       3.24655202       2.30639591       0.04132048      -0.01270491      -1.74985997
Si       2.61783783      -0.04964595      -0.00000000       0.00000000      -0.00000000       0.00000000
Si      -0.13166798       2.22276646       9.68572488       0.00000000       0.00000000       0.00000000
14
Lattice="5.260006169084214 -0.38155975877699383 2.4757208737573155e-16 -0.5664236654451515 4.46800527321375 -7.70266916802619e-15 4.4383923434481744e-15 -2.597634724810219e-14 19.0913204339259" Properties=species:S:1:pos:R:3:forces:R:3 unique_starting_index=0 config_type=initial n_minim_iter=9 energy=-2266.9522801281087 stress="0.011869319606979135 -0.001513999821452636 0.0011955233921184614 5.546456998739263e-12 3.700727698103775e-12 0.0011328126471317015" pbc="T T T"
Si       1.29530132       1.04813107      14.84900788       0.90549329       0.09178373      -1.43103914
Si       1.05148993       0.99509169       5.30334766      -0.90549329      -0.09178373      -1.43103914
Si       3.39828118       3.03831445       4.24231256      -0.90549329      -0.09178373       1.43103914
Si       3.64209257       3.09135382      13.78797277       0.90549329       0.09178373       1.43103914
Si       4.19892222       0.83890933       6.60602045       0.18671401      -0.03864415      -2.20520368
Si       3.40787520       0.82275367      16.15168066      -0.18671401       0.03864415      -2.20520368
Si       0.49466029       3.24753618      12.48529999      -0.18671401       0.03864415       2.20520368
Si       1.28570730       3.26369185       2.93963977       0.18671401      -0.03864415       2.20520368
Si       2.12170853       0.95730344       7.32027678       0.19922322      -0.39334709       0.86609988
Si       0.22508272       1.08591932      16.86593700      -0.19922323       0.39334709       0.86609988
Si       2.57187397       3.12914208      11.77104365      -0.19922322       0.39334709      -0.86609988
Si       4.46849979       3.00052620       2.22538344       0.19922322      -0.39334709      -0.86609988
Si       2.63000308      -0.19077988      -0.00000000      -0.00000000      -0.00000000       0.00000000
Si      -0.28321183       2.23400264       9.54566022      -0.00000000      -0.00000000      -0.00000000
14
Lattice="4.843909168623777 -0.4032710986322963 -2.315919378476571e-15 -0.5772048118619522 4.518861181143123 -6.461942620612567e-15 -4.7578280620905806e-15 -2.2293852363529016e-14 18.932092877262857" Properties=species:S:1:pos:R:3:forces:R:3 unique_starting_index=0 config_type=initial n_minim_iter=10 energy=-2266.8248947057227 stress="-0.05349658557515437 0.006187168237682888 -0.020410703068648228 -4.18757029051242e-12 -8.990310230268506e-12 0.003757454529594783" pbc="T T T"
Si       1.19980080       1.05366904      14.69280562       0.24933060       0.16249230      -1.24020574
Si       0.93355137       1.00412600       5.22675918      -0.24933060      -0.16249231      -1.24020574
Si       3.06690355       3.06192104       4.23928726      -0.24933060      -0.16249231       1.24020574
Si       3.33315298       3.11146408      13.70533370       0.24933060       0.16249231       1.24020574
Si       3.85698668       0.83282718       6.50106280       1.53853566      -0.26403742      -1.91021713
Si       3.12027466       0.82169676      15.96710924      -1.53853566       0.26403742      -1.91021713
Si       0.40971767       3.28276290      12.43103007      -1.53853566       0.26403742       1.91021713
Si       1.14642969       3.29389332       2.96498363       1.53853566      -0.26403742       1.91021713
Si       1.94596092       0.95356706       7.27880659      -1.46673619      -0.26306423       1.21457576
Si       0.18739126       1.10422798      16.74485302       1.46673619       0.26306423       1.21457576
Si       2.32074344       3.16202302      11.65328629       1.46673619       0.26306423      -1.21457576
Si       4.07931309       3.01136210       2.18723985      -1.46673619      -0.26306423      -1.21457576
Si       2.42195458      -0.20163555      -0.00000000       0.00000000       0.00000000      -0.00000000
Si      -0.28860241       2.25943059       9.46604644      -0.00000000      -0.00000000      -0.00000000
14
Lattice="5.162768693243322 -0.4359149393460551 -4.2416299363370517e-16 -0.6217321764941841 4.489305856663438 -8.234650756679571e-15 3.0092024594408937e-15 -2.7370737653043614e-14 19.39604901416226" Properties=species:S:1:pos:R:3:forces:R:3 unique_starting_index=0 config_type=initial n_minim_iter=11 energy=-2267.7145715658503 stress="0.003981252564379378 0.014141033977916564 0.019885412726807973 -1.0774264496797815e-12 -1.3818961769457554e-12 0.001401473871887543" pbc="T T T"
Si       1.27805909       1.03728525      15.04764191       0.30837142       0.08570439      -0.83057940
Si       0.99245917       0.98941021       5.34961740      -0.30837142      -0.08570439      -0.83057941
Si       3.26297743       3.01610566       4.34840710      -0.30837142      -0.08570438       0.83057940
Si       3.54857734       3.06398071      14.04643161       0.30837142       0.08570439       0.83057940
Si       4.11599333       0.79640228       6.65232382       0.01386882       0.18888183      -1.70837855
Si       3.31729362       0.79437824      16.35034832      -0.01386882      -0.18888183      -1.70837855
Si       0.42504318       3.25698864      12.74372520      -0.01386882      -0.18888183       1.70837855
Si       1.22374290       3.25901267       3.04570069       0.01386882       0.18888183       1.70837855
Si       2.06629045       0.93226094       7.46230580      -0.11318702      -0.54321511       0.35881209
Si       0.20422781       1.09443452      17.16033031       0.11318703       0.54321511       0.35881209
Si       2.47474606       3.12112998      11.93374321       0.11318703       0.54321511      -0.35881209
Si       4.33680871       2.95895640       2.23571870      -0.11318702      -0.54321511      -0.35881208
Si       2.58138435      -0.21795747      -0.00000000       0.00000000       0.00000000       0.00000000
Si      -0.31086609       2.24465293       9.69802451       0.00000000       0.00000000      -0.00000000
14
Lattice="5.143133735772308 -0.43848596049127847 -2.3439896527352286e-15 -0.6238974908743037 4.428207859017901 -7.303997096692108e-15 -4.524735712066891e-15 -2.4427242404303237e-14 19.020137037890876" Properties=species:S:1:pos:R:3:forces:R:3 unique_starting_index=0 config_type=initial n_minim_iter=12 energy=-2267.8000413376244 stress="-0.008188027352911197 -0.017059776675200367 -0.008484691767232296 2.2501896622500823e-12 -8.839566628969028e-13 0.0011102904898235087" pbc="T T T"
Si       1.27306273       1.02083016      14.75331123       0.38491623       0.00073051      -1.07241015
Si       0.98655539       0.97403079       5.24324271      -0.38491623      -0.00073051      -1.07241015
Si       3.24617351       2.96889174       4.26682581      -0.38491623      -0.00073051       1.07241015
Si       3.53268085       3.01569111      13.77689433       0.38491623       0.00073051       1.07241015
Si       4.09911935       0.77894304       6.51785383       0.37721616       0.10981494      -1.73405692
Si       3.30363250       0.77743195      16.02792235      -0.37721616      -0.10981495      -1.73405692
Si       0.42011689       3.21077886      12.50228321      -0.37721616      -0.10981494       1.73405692
Si       1.21560374       3.21228995       2.99221469       0.37721616       0.10981494       1.73405692
Si       2.05719553       0.91473645       7.31884400      -0.28914883      -0.43381668       0.47606470
Si       0.20242260       1.08012450      16.82891252       0.28914884       0.43381668       0.47606470
Si       2.46204072       3.07498545      11.70129304       0.28914884       0.43381668      -0.47606470
Si       4.31681365       2.90959740       2.19122452      -0.28914884      -0.43381668      -0.47606470
Si       2.57156687      -0.21924298      -0.00000000       0.00000000       0.00000000      -0.00000000
Si      -0.31194875       2.21410393       9.51006852       0.00000000       0.00000000      -0.00000000
14
Lattice="5.165518805932701 -0.44405328280523176 -5.905540784470229e-16 -0.6305322197118782 4.468199569777895 -8.400129424582982e-15 2.289640444045269e-15 -2.833700312096497e-14 19.104780692734906" Properties=species:S:1:pos:R:3:forces:R:3 unique_starting_index=0 config_type=initial n_minim_iter=13 energy=-2267.884953425011 stress="-0.0011840727042382337 -0.0014946228519402591 0.0014094562828751741 -5.924379079827333e-12 5.560969954219978e-12 0.0003845177828314502" pbc="T T T"
Si       1.27833583       1.02948793      14.81707496       0.35801951       0.00802856      -0.94947847
Si       0.98915747       0.98258521       5.26468461      -0.35801951      -0.00802856      -0.94947847
Si       3.25665076       2.99465836       4.28770573      -0.35801951      -0.00802856       0.94947847
Si       3.54582912       3.04156107      13.84009608       0.35801951       0.00802856       0.94947847
Si       4.11664632       0.78467206       6.54380093       0.13005681       0.11631937      -1.67554111
Si       3.31636578       0.78334781      16.09619128      -0.13005681      -0.11631937      -1.67554111
Si       0.41834026       3.23947423      12.56097976      -0.13005681      -0.11631937       1.67554111
Si       1.21862081       3.24079848       3.00858941       0.13005681       0.11631937       1.67554111
Si       2.06474208       0.92184857       7.35225415      -0.11573602      -0.53048133       0.36436897
Si       0.20275121       1.09022457      16.90464450       0.11573602       0.53048133       0.36436897
Si       2.47024450       3.10229771      11.75252654       0.11573602       0.53048133      -0.36436897
Si       4.33223538       2.93392172       2.20013620      -0.11573602      -0.53048133      -0.36436897
Si       2.58275940      -0.22202664      -0.00000000       0.00000000       0.00000000       0.00000000
Si      -0.31526611       2.23409978       9.55239035       0.00000000      -0.00000000      -0.00000000
14
Lattice="5.1690966325131775 -0.4454051021500281 -2.050567888900113e-15 -0.6320875256354279 4.472123336035761 -7.643494431377727e-15 -3.3416232211323695e-15 -2.5822589519790474e-14 19.089489350140514" Properties=species:S:1:pos:R:3:forces:R:3 unique_starting_index=0 config_type=initial n_minim_iter=14 energy=-2267.917705693512 stress="-0.0006032915417637821 -0.0004228954844010799 0.0016816495769200307 8.231523452867154e-12 5.59584802508363e-12 0.00021731341781562792" pbc="T T T"
Si       1.27967192       1.03002001      14.80342271       0.35024409       0.00099695      -0.93395504
Si       0.98883263       0.98333910       5.25867803      -0.35024408      -0.00099695      -0.93395504
Si       3.25733719       2.99669822       4.28606664      -0.35024409      -0.00099694       0.93395504
Si       3.54817647       3.04337913      13.83081132       0.35024408       0.00099695       0.93395504
Si       4.11944150       0.78467961       6.53539964       0.09535707       0.10612827      -1.66407309
Si       3.31815969       0.78327440      16.08014431      -0.09535707      -0.10612827      -1.66407309
Si       0.41756761       3.24203862      12.55408971      -0.09535707      -0.10612827       1.66407309
Si       1.21884942       3.24344383       3.00934504       0.09535707       0.10612827       1.66407309
Si       2.06582328       0.92156576       7.34705744      -0.09015625      -0.53729691       0.33631199
Si       0.20268128       1.09179336      16.89180211       0.09015625       0.53729691       0.33631199
Si       2.47118583       3.10515248      11.74243191       0.09015625       0.53729691      -0.33631199
Si       4.33432783       2.93492487       2.19768724      -0.09015625      -0.53729691      -0.33631199
Si       2.58454832      -0.22270255      -0.00000000      -0.00000000      -0.00000000       0.00000000
Si      -0.31604376       2.23606167       9.54474468       0.00000000       0.00000000       0.00000000
14
Lattice="5.1729824454158 -0.44690288282455015 -8.502362898288602e-16 -0.6338084157657664 4.474567685172446 -8.486292092117223e-15 1.3052509078332834e-15 -2.882403606398257e-14 19.050774766389914" Properties=species:S:1:pos:R:3:forces:R:3 unique_starting_index=0 config_type=initial n_minim_iter=15 energy=-2267.9842768330072 stress="-0.0004214322261278477 -0.0003420587951980194 0.0011374320831438575 1.1267284031013515e-11 1.1332400802631164e-11 -1.7773505290025635e-05" pbc="T T T"
Si       1.28185530       1.02999708      14.76966646       0.33354341      -0.01418631      -0.91411415
Si       0.98773171       0.98383533       5.24427908      -0.33354341       0.01418631      -0.91411415
Si       3.25731873       2.99766773       4.28110830      -0.33354341       0.01418631       0.91411415
Si       3.55144232       3.04382948      13.80649569       0.33354341      -0.01418631       0.91411415
Si       4.12256484       0.78430878       6.51549233       0.05910044       0.08505880      -1.64327358
Si       3.32000462       0.78262074      16.04087971      -0.05910044      -0.08505880      -1.64327358
Si       0.41660919       3.24335602      12.53528243      -0.05910044      -0.08505880       1.64327358
Si       1.21916941       3.24504407       3.00989505       0.05910044       0.08505880       1.64327358
Si       2.06703489       0.92005004       7.33350179      -0.06308248      -0.53541049       0.29186098
Si       0.20255213       1.09378236      16.85888918       0.06308248       0.53541049       0.29186098
Si       2.47213914       3.10761476      11.71727297       0.06308248       0.53541049      -0.29186098
Si       4.33662190       2.93388245       2.19188559      -0.06308248      -0.53541049      -0.29186098
Si       2.58649122      -0.22345144      -0.00000000       0.00000000       0.00000000      -0.00000000
Si      -0.31690421       2.23728384       9.52538738      -0.00000000      -0.00000000       0.00000000
14
Lattice="5.188938505786456 -0.447552955430099 -1.8414307753151676e-15 -0.634983154653673 4.485742193910298 -7.990984030588588e-15 -2.5702970453638176e-15 -2.7520682308206586e-14 18.89244221801594" Properties=species:S:1:pos:R:3:forces:R:3 unique_starting_index=0 config_type=initial n_minim_iter=16 energy=-2268.3468636847415 stress="3.649458820622049e-05 0.0011018174052317639 0.0010039201458465052 -5.204551972786032e-12 1.2251841022160845e-11 -0.0005063225014940832" pbc="T T T"
Si       1.29504580       1.03106340      14.62491318       0.20678915      -0.07986457      -0.77906105
Si       0.98193188       0.98803122       5.17869207      -0.20678915       0.07986457      -0.77906105