10
Lattice="3.711403162949645 -0.12324520779914921 1.0337843828746207e-17 -2.0423040993679775 6.06625450159595 -5.122714442915259e-16 1.6910579183450309e-19 7.516185202364294e-16 8.899898515172138" Properties=species:S:1:pos:R:3:forces:R:3 unique_starting_index=14 config_type=initial n_minim_iter=1 energy=-1628.4096167495943 stress="-6.236957916258571e-05 4.22135814677942e-05 -1.450763253173591e-12 4.22135814677942e-05 6.331722509977239e-05 -1.6771805004511055e-12 -1.450763253173591e-12 -1.6771805004511055e-12 -2.2838818183333202e-05" free_energy=-1628.4096167495943 pbc="T T T"
Si      -0.01569397       3.74187789      -0.29743777       0.00848238      -0.00182305      -0.00437798
Si       1.68479303       2.20113140      -0.29743777      -0.00848238       0.00182305      -0.00437798
Si       0.99041380       0.69438224       1.45649443      -0.00252465       0.00389928       0.00519056
Si       0.67868526       5.24862705       1.45649443       0.00252465      -0.00389928       0.00519056
Si       1.34637736       1.01133625       6.58023666      -0.00530790      -0.00945789      -0.00624350
Si       0.32272170       4.93167304       6.58023666       0.00530790       0.00945789      -0.00624350
Si       0.54856802       4.10922131       3.51455836      -0.00112173       0.00186967       0.00236146
Si       1.12053104       1.83378799       3.51455836       0.00112173      -0.00186967       0.00236146
Si      -1.37519293       4.25060624       5.06982866      -0.00281059      -0.00064599       0.00306947
Si       3.04429200       1.69240305       5.06982866       0.00281059       0.00064600       0.00306947
10
Lattice="3.712073173567077 -0.12366658112604365 1.0373395796655518e-17 -2.0433895168760436 6.065411477330024 -5.122002669265559e-16 1.6906310041683734e-19 7.516670354846541e-16 8.900473870117132" Properties=species:S:1:pos:R:3:forces:R:3 unique_starting_index=14 config_type=initial n_minim_iter=2 energy=-1628.4096279938422 stress="8.719534240554095e-05 1.7346542079235198e-05 6.886717005703445e-13 1.7346542079235198e-05 1.6135050813604308e-05 -4.760233769941914e-12 6.886717005703445e-13 -4.760233769941914e-12 2.0205844969644283e-05" free_energy=-1628.4096279938422 pbc="T T T"
Si      -0.01602264       3.74118318      -0.29751955       0.00863741      -0.00229318      -0.00452400
Si       1.68470630       2.20056172      -0.29751955      -0.00863741       0.00229318      -0.00452400
Si       0.99046962       0.69419517       1.45666274       0.00107195       0.00072637       0.00465381
Si       0.67821403       5.24754972       1.45666274      -0.00107196      -0.00072637       0.00465381
Si       1.34641841       1.01085907       6.58057285      -0.00598377      -0.00716114      -0.00641138
Si       0.32226524       4.93088582       6.58057285       0.00598377       0.00716114      -0.00641138
Si       0.54815785       4.10844611       3.51481931      -0.00146146       0.00242764       0.00467144
Si       1.12052580       1.83329879       3.51481931       0.00146146      -0.00242764       0.00467144
Si      -1.37598378       4.24999964       5.07020026      -0.00317987       0.00004810       0.00161013
Si       3.04466743       1.69174525       5.07020026       0.00317987      -0.00004810       0.00161013
10
Lattice="3.7118083366575685 -0.12474762846556109 1.046468966772669e-17 -2.045072786921446 6.063543145157944 -5.120424647978586e-16 1.690465471199917e-19 7.5168612816278e-16 8.900700292329937" Properties=species:S:1:pos:R:3:forces:R:3 unique_starting_index=14 config_type=initial n_minim_iter=3 energy=-1628.409640213195 stress="-0.00014003270305054403 -1.6307889359897682e-05 -6.652878604585253e-12 -1.6307889359897682e-05 -0.00029406280719998143 -8.148598188451078e-12 -6.652878604585253e-12 -8.148598188451078e-12 -0.00016779317216670942" free_energy=-1628.409640213195 pbc="T T T"
Si      -0.01673021       3.73954799      -0.29775167       0.00399291       0.00109021      -0.00555641
Si       1.68346576       2.19924753      -0.29775167      -0.00399291      -0.00109021      -0.00555641
Si       0.99013527       0.69372931       1.45694913       0.00724155      -0.00304057       0.00273671
Si       0.67660027       5.24506621       1.45694913      -0.00724155       0.00304057       0.00273671
Si       1.34571644       1.00961088       6.58042098      -0.00992347      -0.00112742      -0.00202422
Si       0.32101911       4.92918464       6.58042098       0.00992347       0.00112742      -0.00202422
Si       0.54679540       4.10669906       3.51508297      -0.00380184       0.00304234       0.00454593
Si       1.11994015       1.83209645       3.51508297       0.00380184      -0.00304234       0.00454593
Si      -1.37731851       4.24865748       5.07044950      -0.00347181       0.00126284       0.00029798
Si       3.04405406       1.69013803       5.07044950       0.00347181      -0.00126284       0.00029798
10
Lattice="3.7120890774438626 -0.1255614266584784 1.0533333761895461e-17 -2.0465235001837527 6.064564549737157 -5.121288406660942e-16 1.688909793674574e-19 7.518648962508596e-16 8.902820351206934" Properties=species:S:1:pos:R:3:forces:R:3 unique_starting_index=14 config_type=initial n_minim_iter=4 energy=-1628.4096564461875 stress="2.0154172981304293e-05 -6.474480221468147e-05 2.8238865264707784e-14 -6.474480221468147e-05 -4.544835114670664e-05 -1.4228272451028648e-11 2.8238865264707784e-14 -1.4228272451028648e-11 0.0001280332361318657" free_energy=-1628.4096564461875 pbc="T T T"
Si      -0.01715833       3.73983125      -0.29804563       0.00227695       0.00367089      -0.00539856
Si       1.68272390       2.19917187      -0.29804563      -0.00227695      -0.00367089      -0.00539857
Si       0.99007741       0.69365271       1.45751808       0.01254659      -0.00574168       0.00164550
Si       0.67548816       5.24535042       1.45751808      -0.01254659       0.00574168       0.00164550
Si       1.34528676       1.00906853       6.58171290      -0.00883987       0.00014986       0.00086199
Si       0.32027882       4.92993459       6.58171290       0.00883987      -0.00014986       0.00086199
Si       0.54586439       4.10708409       3.51609950      -0.00256823      -0.00104073       0.00427136
Si       1.11970118       1.83191904       3.51609950       0.00256823       0.00104073       0.00427136
Si      -1.37847963       4.24935848       5.07175456      -0.00219891       0.00023792      -0.00138029
Si       3.04404521       1.68964464       5.07175456       0.00219891      -0.00023792      -0.00138029
10
Lattice="3.7125248430591773 -0.12535810380550122 1.0516220300957386e-17 -2.0464044105610917 6.065364153505429 -5.121962521485384e-16 1.6902305792871027e-19 7.517153066660557e-16 8.901046330745192" Properties=species:S:1:pos:R:3:forces:R:3 unique_starting_index=14 config_type=initial n_minim_iter=5 energy=-1628.4096711432444 stress="0.00010431123237946289 -2.4447984751296252e-05 -5.201076373679726e-13 -2.4447984751296252e-05 3.306116599560344e-05 -7.301029931621792e-12 -5.201076373679726e-13 -7.301029931621792e-12 2.233218013245217e-05" free_energy=-1628.4096711432444 pbc="T T T"
Si      -0.01672281       3.74041703      -0.29817003      -0.00152320       0.00314036      -0.00352094
Si       1.68284324       2.19958902      -0.29817003       0.00152320      -0.00314036      -0.00352094
Si       0.99041437       0.69378221       1.45735938       0.00805937      -0.00617826      -0.00065217
Si       0.67570606       5.24622384       1.45735938      -0.00805937       0.00617826      -0.00065217
Si       1.34523778       1.00912957       6.58028363      -0.00673035      -0.00103231      -0.00033956
Si       0.32088265       4.93087648       6.58028363       0.00673035       0.00103231      -0.00033956
Si       0.54610120       4.10777735       3.51553570      -0.00211427      -0.00471986       0.00446956
Si       1.12001923       1.83222870       3.51553570       0.00211427       0.00471986       0.00446956
Si      -1.37849066       4.24992155       5.07077690      -0.00046534      -0.00048052       0.00004311
Si       3.04461109       1.69008450       5.07077690       0.00046534       0.00048052       0.00004311
10
Lattice="3.7123691529291043 -0.1252575168008213 1.0507730415077042e-17 -2.0461512283724397 6.065457530076687 -5.122041395571202e-16 1.6902700679571217e-19 7.517108241945998e-16 8.900993177056291" Properties=species:S:1:pos:R:3:forces:R:3 unique_starting_index=14 config_type=initial n_minim_iter=6 energy=-1628.4096820067498 stress="2.5969909532135325e-05 7.427440300771378e-05 1.030465714817313e-12 7.427440300771378e-05 1.4059205554129855e-05 -6.3160973854841005e-12 1.030465714817313e-12 -6.3160973854841005e-12 4.7400917141377106e-05" free_energy=-1628.4096820067498 pbc="T T T"
Si      -0.01636461       3.74056509      -0.29845381      -0.00654506       0.00540611      -0.00191947
Si       1.68258253       2.19963492      -0.29845381       0.00654506      -0.00540611      -0.00191947
Si       0.99067260       0.69371954       1.45751378       0.00084433      -0.00140492      -0.00128727
Si       0.67554533       5.24648047       1.45751378      -0.00084433       0.00140492      -0.00128726
Si       1.34476762       1.00890864       6.58005677      -0.00551176       0.00101371       0.00029389
Si       0.32145030       4.93129137       6.58005677       0.00551176      -0.00101371       0.00029389
Si       0.54606632       4.10785970       3.51575401      -0.00231400      -0.00459070       0.00131568
Si       1.12015160       1.83234032       3.51575401       0.00231400       0.00459070       0.00131568
Si      -1.37844924       4.24997361       5.07081734       0.00136120      -0.00006160       0.00159717
Si       3.04466716       1.69022640       5.07081734      -0.00136120       0.00006160       0.00159717
