20
Lattice="6.940573118569728 0.8777470710523056 0.7220765587833863 2.021606870764747 5.267198558729035 1.1571071374726445 4.933572386930942 4.621369271419006 13.14634131026101" Properties=species:S:1:pos:R:3:forces:R:3 unique_starting_index=222 config_type=initial n_minim_iter=1 energy=-3258.4646092783223 stress="6.244498439251051e-05 2.124581218581788e-05 -5.8012447297847544e-05 2.124581218581788e-05 -4.487958248425823e-05 -0.00012745350603428278 -5.8012447297847544e-05 -0.00012745350603428278 1.2909524811327039e-05" free_energy=-3258.4646092783223 pbc="T T T"
Si       9.06106362       7.72914787       7.57648069       0.00135764      -0.00639759       0.02476427
Si       4.83468875       3.03716703       7.44904432      -0.00135764       0.00639759      -0.02476427
Si      10.70746066       6.59677302      10.51697868       0.00083876       0.02291288      -0.01239309
Si       3.18829171       4.16954188       4.50854633      -0.00083876      -0.02291288       0.01239309
Si       4.78427667       2.28630981       1.76114254       0.00918064      -0.00197611      -0.00769249
Si       9.11147571       8.48000509      13.26438246      -0.00918064       0.00197611       0.00769249
Si      12.53151205       9.75647756      12.79418671      -0.01969254       0.01211891      -0.00022030
Si       1.36424033       1.00983734       2.23133829       0.01969254      -0.01211890       0.00022030
Si       8.37603391       6.91229872       9.91907768      -0.01448914       0.00560017      -0.00351642
Si       5.51971846       3.85401618       5.10644733       0.01448914      -0.00560017       0.00351642
Si       6.48780896       3.37587564       2.96294418       0.01926159      -0.01423272       0.00434699
Si       7.40794342       7.39043926      12.06258083      -0.01926159       0.01423272      -0.00434699
Si       7.71897115       4.89156283       8.96760697       0.00642782      -0.01284268      -0.01938775
Si       6.17678122       5.87475207       6.05791804      -0.00642782       0.01284268       0.01938775
Si       3.12127336       2.09989317       3.40274947       0.00096478      -0.00209020      -0.02153269
Si      10.77447901       8.66642173      11.62277554      -0.00096478       0.00209020       0.02153269
Si       5.43561772       5.18835401       8.22357407       0.01133452       0.05836933       0.00535818
Si       8.46013465       5.57796089       6.80195093      -0.01133452      -0.05836933      -0.00535818
Si       6.63973156       5.45922280       1.80232797      -0.00519593       0.00145386      -0.01625843
Si       7.25602082       5.30709211      13.22319704       0.00519593      -0.00145386       0.01625843
20
Lattice="6.9391781818470335 0.8776929467768002 0.7237948822165255 2.021025394600471 5.268358938094555 1.1597390544937531 4.934784612062346 4.627418911865724 13.148742614400259" Properties=species:S:1:pos:R:3:forces:R:3 unique_starting_index=222 config_type=initial n_minim_iter=2 energy=-3258.4647058235055 stress="-7.445060374725096e-05 9.662622323950569e-05 0.00010169129327014562 9.662622323950569e-05 0.00020930596503856015 0.00022152265323198612 0.00010169129327014562 0.00022152265323198612 -0.00012253602128073793" free_energy=-3258.4647058235055 pbc="T T T"
Si       9.06008709       7.73290663       7.58149164       0.00229820      -0.01582165       0.02000162
Si       4.83490110       3.04056417       7.45078491      -0.00229821       0.01582165      -0.02000162
Si      10.70679208       6.60175603      10.52138887      -0.00045372       0.03246216      -0.00872117
Si       3.18819611       4.17171477       4.51088768       0.00045373      -0.03246216       0.00872117
Si       4.78351851       2.28706083       1.76293731       0.01577858      -0.00829623      -0.00982667
Si       9.11146968       8.48640997      13.26933924      -0.01577858       0.00829623       0.00982667
Si      12.53050817       9.76271007      12.80032718      -0.01809908       0.00937623      -0.00221087
Si       1.36448002       1.01076073       2.23194937       0.01809908      -0.00937623       0.00221087
Si       8.37559356       6.91709656       9.92326388      -0.01499011      -0.00011200      -0.00576280
Si       5.51939463       3.85637423       5.10901267       0.01499011       0.00011199       0.00576280
Si       6.48693045       3.37709025       2.96559392       0.01716636      -0.01844559       0.00304803
Si       7.40805774       7.39638054      12.06668263      -0.01716636       0.01844559      -0.00304803
Si       7.71880074       4.89553494       8.97069835       0.00719362      -0.00694060      -0.01205278
Si       6.17618745       5.87793586       6.06157820      -0.00719362       0.00694060       0.01205278
Si       3.12113808       2.10144660       3.40394943      -0.00533363       0.00468807      -0.01483541
Si      10.77385010       8.67202419      11.62832712       0.00533363      -0.00468807       0.01483541
Si       5.43580439       5.19280029       8.22658022       0.00841823       0.04785246       0.00571612
Si       8.45918380       5.58067050       6.80569633      -0.00841823      -0.04785246      -0.00571612
Si       6.63823994       5.46037063       1.80579217      -0.00328900       0.00682245      -0.01152045
Si       7.25674825       5.31310017      13.22648438       0.00328900      -0.00682245       0.01152045
20
Lattice="6.936369970408318 0.8715182666054242 0.7250720644512026 2.0161644318730514 5.263287286608305 1.1617706467079856 4.930710799951543 4.623076971459108 13.157725039018146" Properties=species:S:1:pos:R:3:forces:R:3 unique_starting_index=222 config_type=initial n_minim_iter=3 energy=-3258.4651095607715 stress="-0.0002987049337541964 -0.00038714428159944013 -5.218684480142692e-05 -0.00038714428159944013 -0.0001357144227900522 0.0001885194205691686 -5.218684480142692e-05 0.0001885194205691686 3.979971357402572e-05" free_energy=-3258.4651095607715 pbc="T T T"
Si       9.05170363       7.72134091       7.58940873       0.00228574      -0.01561334       0.01624846
Si       4.83154157       3.03654162       7.45515902      -0.00228574       0.01561334      -0.01624846
Si      10.69905937       6.59181761      10.52939233      -0.00562255       0.03032673      -0.01075977
Si       3.18418584       4.16606491       4.51517542       0.00562255      -0.03032673       0.01075977
Si       4.78080987       2.28174134       1.76454770       0.01196660      -0.00580013      -0.01043589
Si       9.10243533       8.47614118      13.28002005      -0.01196660       0.00580013       0.01043589
Si      12.51897488       9.74893711      12.81095452      -0.00295295       0.01138737       0.00533132
Si       1.36427032       1.00894542       2.23361323       0.00295295      -0.01138737      -0.00533132
Si       8.36761442       6.90776100       9.93107242      -0.00912357       0.01177751       0.00198557
Si       5.51563078       3.85012153       5.11349533       0.00912357      -0.01177751      -0.00198557
Si       6.48322390       3.36937563       2.96882978       0.02124838      -0.01512504       0.01082206
Si       7.40002131       7.38850689      12.07573797      -0.02124838       0.01512504      -0.01082206
Si       7.71352579       4.88729886       8.97689855       0.00526202      -0.01843512      -0.00144284
Si       6.16971941       5.87058367       6.06766920      -0.00526202       0.01843512       0.00144284
Si       3.11871735       2.09817837       3.40581612       0.00419698      -0.00099521      -0.00537118
Si      10.76452785       8.65970416      11.63875163      -0.00419698       0.00099521       0.00537118
Si       5.43107865       5.18892751       8.23317991       0.00273695       0.04593642       0.00886056
Si       8.45216656       5.56895501       6.81138784      -0.00273695      -0.04593642      -0.00886056
Si       6.63165143       5.45163931       1.80804177      -0.00031623       0.00355582      -0.01129728
Si       7.25159377       5.30624322      13.23652598       0.00031623      -0.00355582       0.01129728
20
Lattice="6.941854497757052 0.8723407477219963 0.7292367525070582 2.019368759812511 5.260286252346162 1.1626472801671448 4.94228874517576 4.618321784818574 13.170779039891125" Properties=species:S:1:pos:R:3:forces:R:3 unique_starting_index=222 config_type=initial n_minim_iter=4 energy=-3258.465763146406 stress="0.000373911283160759 -0.00013538267909606207 0.0004371716517151348 -0.00013538267909606207 0.000170367513368443 -4.867399599122644e-05 0.0004371716517151348 -4.867399599122644e-05 0.00042637029247384037" free_energy=-3258.465763146406 pbc="T T T"
Si       9.06405137       7.71591680       7.60132409      -0.00713061      -0.03589315       0.00013567
Si       4.83946063       3.03503199       7.46133898       0.00713061       0.03589315      -0.00013567
Si      10.71370297       6.59034513      10.54170047      -0.02806441       0.01118735      -0.00577637
Si       3.18980903       4.16060365       4.52096260       0.02806441      -0.01118735       0.00577637
Si       4.78675550       2.28059028       1.76728218       0.01834590       0.00799852       0.00185565
Si       9.11675650       8.47035850      13.29538089      -0.01834590      -0.00799852      -0.00185566
Si      12.53514701       9.74394215      12.82658882       0.00192651       0.01774910      -0.00675103
Si       1.36836499       1.00700663       2.23607425      -0.00192651      -0.01774910       0.00675104
Si       8.37900544       6.90359412       9.94228694       0.00467163       0.01121535       0.00105870
Si       5.52450656       3.84735467       5.12037613      -0.00467163      -0.01121535      -0.00105870
Si       6.49200944       3.36654633       2.97459579       0.00023784      -0.00343721      -0.00492965
Si       7.41150256       7.38440245      12.08806728      -0.00023784       0.00343721       0.00492965
Si       7.72552057       4.88279092       8.98623605       0.00302955      -0.01885743       0.01683215
Si       6.17799143       5.86815786       6.07642702      -0.00302955       0.01885743      -0.01683215
Si       3.12317335       2.09679689       3.40822008       0.01895239      -0.02711114      -0.00437115
Si      10.78033865       8.65415190      11.65444299      -0.01895239       0.02711114       0.00437115
Si       5.44142101       5.19039984       8.24266123       0.00939310       0.01485043       0.00222750
Si       8.46209099       5.56054894       6.82000184      -0.00939310      -0.01485043      -0.00222750
Si       6.63810145       5.44969647       1.81050416      -0.00384521      -0.01150473       0.00088483
Si       7.26541055       5.30125232      13.25215891       0.00384521       0.01150474      -0.00088483
20
Lattice="6.939321308591626 0.8749765499299215 0.7248388764879866 2.020385200305909 5.257881058127951 1.160888242109632 4.934913334692463 4.61749568067551 13.162167834238605" Properties=species:S:1:pos:R:3:forces:R:3 unique_starting_index=222 config_type=initial n_minim_iter=5 energy=-3258.46611894081 stress="-0.00025970999758933173 8.92392207230765e-05 8.034507557702708e-05 8.92392207230765e-05 -0.0002447026096807879 -1.4119207457792102e-05 8.034507557702708e-05 -1.4119207457792102e-05 -2.9172656996471523e-05" free_energy=-3258.46611894081 pbc="T T T"
Si       9.05993888       7.71439694       7.59384315       0.00247107      -0.04845532      -0.00555100
Si       4.83468096       3.03595635       7.45405181      -0.00247107       0.04845532       0.00555100
Si      10.70653662       6.59244009      10.53017130      -0.02780505       0.00247584      -0.00627213
Si       3.18808322       4.15791320       4.51772365       0.02780505      -0.00247584       0.00627213
Si       4.78574038       2.28114747       1.76323058       0.01339437       0.00443889       0.01595452
Si       9.10887946       8.46920582      13.28466438      -0.01339437      -0.00443889      -0.01595452
Si      12.52668030       9.74407745      12.81355849       0.00427247       0.02732534      -0.00711979
Si       1.36793954       1.00627584       2.23433646      -0.00427247      -0.02732534       0.00711980
Si       8.37260882       6.90326892       9.93282995       0.00338953       0.00874015       0.00771246
Si       5.52201102       3.84708437       5.11506501      -0.00338953      -0.00874015      -0.00771246
Si       6.49049165       3.36652259       2.96969584      -0.01057859       0.01208512      -0.00519096
Si       7.40412820       7.38383069      12.07819912       0.01057860      -0.01208512       0.00519096
Si       7.72007841       4.88240563       8.97704750       0.00247802      -0.01655531       0.02062788
Si       6.17454144       5.86794766       6.07084745      -0.00247802       0.01655531      -0.02062788
Si       3.12109079       2.09672101       3.40392062       0.02960711      -0.02578465      -0.01521658
Si      10.77352905       8.65363227      11.64397434      -0.02960711       0.02578465       0.01521658
Si       5.43757416       5.19248205       8.23619030      -0.00120613       0.00523494      -0.00136965
Si       8.45704569       5.55787124       6.81170466       0.00120614      -0.00523494       0.00136965
Si       6.63691783       5.44940093       1.80498679       0.00780813      -0.02022835       0.01296882
Si       7.25770201       5.30095236      13.24290816      -0.00780813       0.02022835      -0.01296882
20
Lattice="6.942002443845488 0.8746153926571495 0.7215975602590026 2.0202173713822726 5.259538867851936 1.160164019079967 4.930553077441692 4.619410786157246 13.158745469058939" Properties=species:S:1:pos:R:3:forces:R:3 unique_starting_index=222 config_type=initial n_minim_iter=6 energy=-3258.4662490292812 stress="6.0278420643258027e-05 -1.5761888045187195e-05 -0.00020453744607905008 -1.5761888045187195e-05 0.00013396900922203162 7.327928631177758e-05 -0.00020453744607905008 7.327928631177758e-05 0.0001423432825441387" free_energy=-3258.4662490292812 pbc="T T T"
Si       9.05972719       7.71601088       7.58974821      -0.00267934      -0.05250283      -0.00635857
Si       4.83304570       3.03755416       7.45075884       0.00267934       0.05250283       0.00635857
Si      10.70554550       6.59485639      10.52420141      -0.02292387      -0.00043073      -0.00838443
Si       3.18722739       4.15870866       4.51630564       0.02292387       0.00043073       0.00838443
Si       4.78718888       2.28150835       1.76088946       0.00349158      -0.00036727       0.01922063
Si       9.10558402       8.47205670      13.27961759      -0.00349158       0.00036727      -0.01922063
Si      12.52502452       9.74738094      12.80692187       0.01307979       0.02610077      -0.00545840
Si       1.36774837       1.00618411       2.23358518      -0.01307979      -0.02610077       0.00545841
Si       8.37078934       6.90557864       9.92828721       0.00173933       0.00594190       0.00633498
Si       5.52198355       3.84798641       5.11221984      -0.00173933      -0.00594190      -0.00633498
Si       6.49200745       3.36694371       2.96663426      -0.00485920       0.01242275      -0.00221469
Si       7.40076545       7.38662133      12.07387279       0.00485920      -0.01242275       0.00221469
Si       7.71903488       4.88347282       8.97264423      -0.00005296      -0.00972322       0.02140713
Si       6.17373802       5.87009223       6.06786282       0.00005296       0.00972322      -0.02140713
Si       3.12090964       2.09711901       3.40176033       0.03829115      -0.01888277      -0.01796785
Si      10.77186325       8.65644604      11.63874672      -0.03829115       0.01888277       0.01796785
Si       5.43587557       5.19541384       8.23322577      -0.00682971      -0.00160024       0.00185404
Si       8.45689732       5.55815121       6.80728128       0.00682971       0.00160024      -0.00185404
Si       6.63845171       5.45061380       1.80184413       0.00748707      -0.01975782       0.01535477
Si       7.25432118       5.30295125      13.23866292      -0.00748707       0.01975782      -0.01535477
20
Lattice="6.945379152748984 0.8723824951430537 0.7213802388291186 2.0199510894258323 5.25780530093858 1.1576484712003068 4.933336316692953 4.613544287118279 13.143948200133059" Properties=species:S:1:pos:R:3:forces:R:3 unique_starting_index=222 config_type=initial n_minim_iter=7 energy=-3258.466508202665 stress="0.00017550710173432272 -0.000204909150836171 6.602420594263559e-05 -0.000204909150836171 9.121148873059837e-05 -0.00013104406652432582 6.602420594263559e-05 -0.00013104406652432582 -0.0005838821453081234" free_energy=-3258.466508202665 pbc="T T T"
Si       9.06316052       7.70811895       7.58132459      -0.00274519      -0.04475243      -0.00791247
Si       4.83550603       3.03561313       7.44165232       0.00274519       0.04475243       0.00791247
Si      10.70958562       6.58911124      10.51158758      -0.02722881      -0.00240295      -0.00676313
Si       3.18908094       4.15462084       4.51138933       0.02722881       0.00240295       0.00676312
Si       4.79002968       2.27924021       1.75902472       0.00481847       0.00037673       0.00550557
Si       9.10863688       8.46449188      13.26395219      -0.00481847      -0.00037673      -0.00550557
Si      12.52969581       9.74004348      12.79168755       0.02797194       0.01411171      -0.01425079
Si       1.36897075       1.00368860       2.23128936      -0.02797194      -0.01411171       0.01425079
Si       8.37378540       6.89978959       9.91671276       0.00944771       0.00669733      -0.00406538
Si       5.52488116       3.84394250       5.10626415      -0.00944771      -0.00669733       0.00406538
Si       6.49536974       3.36341401       2.96333081       0.00963131       0.00490336      -0.00598159
Si       7.40329681       7.38031807      12.05964610      -0.00963131      -0.00490336       0.00598159
Si       7.72301709       4.87704503       8.96252210      -0.01349439      -0.00913064       0.02583802
Si       6.17564947       5.86668706       6.06045481       0.01349439       0.00913064      -0.02583802
Si       3.12332994       2.09421312       3.39659831       0.03028497      -0.01852500      -0.00785182
Si      10.77533662       8.64951896      11.62637860      -0.03028497       0.01852500       0.00785182
Si       5.43854952       5.19326149       8.22385387      -0.00209978      -0.00699054       0.01000888
Si       8.46011704       5.55047059       6.79912304       0.00209978       0.00699054      -0.01000888
Si       6.64056228       5.44694942       1.79887648      -0.00224683      -0.01317414       0.02466430
Si       7.25810427       5.29678267      13.22410043       0.00224683       0.01317414      -0.02466430
20
Lattice="6.946280497682844 0.8746133132667171 0.7217365881003858 2.0223796297348215 5.253677291915905 1.1586906704460955 4.9351530909727614 4.611468284457622 13.15593269730269" Properties=species:S:1:pos:R:3:forces:R:3 unique_starting_index=222 config_type=initial n_minim_iter=8 energy=-3258.4673408612366 stress="0.00023247798321267304 -2.561733455047981e-05 2.0873884905383576e-05 -2.561733455047981e-05 -0.0001452096698821998 2.5152498775257216e-05 2.0873884905383576e-05 2.5152498775257216e-05 -0.00020404248453584624" free_energy=-3258.4673408612366 pbc="T T T"
Si       9.06696583       7.70002589       7.58957460      -0.01193193      -0.03269075      -0.01325305
Si       4.83684739       3.03973300       7.44678536       0.01193193       0.03269075       0.01325305
Si      10.71072195       6.59013510      10.51931604      -0.01565370       0.00771611      -0.00216750
Si       3.19309127       4.14962379       4.51704391       0.01565370      -0.00771611       0.00216750
Si       4.79307641       2.27901061       1.76083111       0.00414439       0.00193688      -0.01146205
Si       9.11073681       8.46074828      13.27552884      -0.00414439      -0.00193688       0.01146204
Si      12.53371471       9.73932788      12.80240359       0.01363709       0.00061000      -0.00227865
Si       1.37009851       1.00043101       2.23395636      -0.01363709      -0.00061000       0.00227864
Si       8.37608423       6.89801359       9.92561860      -0.00213621       0.00243817      -0.01036045
Si       5.52772899       3.84174530       5.11074135       0.00213621      -0.00243817       0.01036045
Si       6.49859269       3.36245818       2.96587166       0.00223192       0.00401166       0.00183239
Si       7.40522053       7.37730071      12.07048829      -0.00223192      -0.00401166      -0.00183239
Si       7.72587153       4.87380017       8.97085858      -0.02432514       0.02102961       0.00766142
Si       6.17794169       5.86595872       6.06550137       0.02432514      -0.02102961      -0.00766142
Si       3.12689360       2.09181837       3.39685973       0.00843216      -0.00677308      -0.01100194
Si      10.77691961       8.64794052      11.63950023      -0.00843216       0.00677308       0.01100194
Si       5.44157804       5.19576453       8.23196098       0.00276363      -0.00003016       0.00464412
Si       8.46223518       5.54399436       6.80439897      -0.00276363       0.00003016      -0.00464412
Si       6.64341861       5.44350966       1.80018678       0.00227147       0.00380163       0.01230929
Si       7.26039461       5.29624923      13.23617318      -0.00227147      -0.00380163      -0.01230929
20
Lattice="6.942244797396572 0.8753157482958782 0.7219014077576443 2.021691750419875 5.255172825642423 1.1575738299832512 4.932882093846157 4.609240655549435 13.16039189758162" Properties=species:S:1:pos:R:3:forces:R:3 unique_starting_index=222 config_type=initial n_minim_iter=9 energy=-3258.4675140282357 stress="-0.00016588269324668112 -2.6733347753203332e-05 3.189549579907572e-05 -2.6733347753203332e-05 0.0002421817237693463 -0.00016579163809640656 3.189549579907572e-05 -0.00016579163809640656 -3.396206204309648e-05" free_energy=-3258.4675140282357 pbc="T T T"
Si       9.06233720       7.69872603       7.59115780      -0.01698972      -0.02820159      -0.01587795
Si       4.83448144       3.04100320       7.44870933       0.01698972       0.02820159       0.01587796
Si      10.70418053       6.59098295      10.52143606      -0.00950847       0.00642902       0.01096016
Si       3.19263811       4.14874628       4.51843108       0.00950847      -0.00642902      -0.01096016
Si       4.79120697       2.27957852       1.76103117       0.00164119       0.00605624      -0.03029329
Si       9.10561167       8.46015071      13.27883596      -0.00164119      -0.00605624       0.03029329
Si      12.52721250       9.74074036      12.80495882       0.01305370       0.00413698      -0.00088675
Si       1.36960614       0.99898887       2.23490831      -0.01305370      -0.00413698       0.00088675
Si       8.37151091       6.89828305       9.92792223      -0.01313106      -0.00305648      -0.01561280
Si       5.52530773       3.84144618       5.11194491       0.01313106       0.00305649       0.01561280
Si       6.49561781       3.36299799       2.96628715       0.00508766       0.01310015       0.00333511
Si       7.40120083       7.37673124      12.07357999      -0.00508766      -0.01310015      -0.00333511
Si       7.72189842       4.87260752       8.97361856      -0.01923189       0.03042489       0.00535765
Si       6.17492022       5.86712171       6.06624858       0.01923189      -0.03042489      -0.00535765
Si       3.12637094       2.09092706       3.39655118       0.00354331      -0.00405601       0.00195681
Si      10.77044770       8.64880217      11.64331595      -0.00354331       0.00405601      -0.00195681
Si       5.43926849       5.19731751       8.23435264       0.00140343      -0.00092045      -0.00481059
Si       8.45755015       5.54241172       6.80551450      -0.00140343       0.00092045       0.00481059
Si       6.64005920       5.44486380       1.79941241       0.00753244       0.00491962       0.01381531
Si       7.25675944       5.29486543      13.24045472      -0.00753244      -0.00491962      -0.01381531
20
Lattice="6.9441493685400335 0.8763384202860858 0.7221379514981109 2.023286232184391 5.252151595290472 1.1590915025884863 4.93463334412955 4.609805133201259 13.166737512817638" Properties=species:S:1:pos:R:3:forces:R:3 unique_starting_index=222 config_type=initial n_minim_iter=10 energy=-3258.467767701478 stress="1.712454140433282e-05 4.371166692585434e-05 -1.681239534909199e-05 4.371166692585434e-05 -9.168760952724288e-05 5.2631764139737615e-05 -1.681239534909199e-05 5.2631764139737615e-05 0.00012168891966898915" free_energy=-3258.467767701478 pbc="T T T"
Si       9.06558685       7.69269253       7.59625901      -0.02010959      -0.01491035      -0.01762531
Si       4.83648210       3.04560262       7.45170795       0.02010959       0.01491035       0.01762531
Si      10.70611406       6.59275347      10.52594245       0.00201803       0.01622353       0.00809438
Si       3.19595488       4.14554168       4.52202451      -0.00201803      -0.01622353      -0.00809438
Si       4.79411160       2.27937152       1.76175603       0.00474351       0.00295988      -0.02901379
Si       9.10795735       8.45892363      13.28621094      -0.00474351      -0.00295988       0.02901379
Si      12.53182714       9.74132605      12.81153434       0.00069573      -0.01005781       0.00814430
Si       1.37024180       0.99696910       2.23643263      -0.00069573       0.01005781      -0.00814430
Si       8.37383071       6.89797824       9.93295605      -0.01600064      -0.00105562      -0.01502344
Si       5.52823824       3.84031691       5.11501092       0.01600064       0.00105562       0.01502344
Si       6.49878423       3.36250296       2.96815734      -0.00015681       0.00445843       0.00873241
Si       7.40328472       7.37579219      12.07980963       0.00015681      -0.00445843      -0.00873241
Si       7.72430880       4.87207710       8.97854912      -0.02564962       0.04292102      -0.00273442
Si       6.17776015       5.86621805       6.06941784       0.02564962      -0.04292102       0.00273442
Si       3.12936599       2.08946115       3.39628552      -0.01180190       0.00335891      -0.00038862
Si      10.77270296       8.64883400      11.65168145       0.01180190      -0.00335891       0.00038862
Si       5.44196125       5.19990847       8.23913342       0.00156697       0.00873428      -0.00039991
Si       8.46010769       5.53838668       6.80883355      -0.00156697      -0.00873428       0.00039991
Si       6.64304269       5.44216558       1.80131753       0.00632391       0.01866088      -0.00080805
Si       7.25902626       5.29612957      13.24664944      -0.00632391      -0.01866087       0.00080805
20
Lattice="6.944049663481163 0.877747893983002 0.7227830845397887 2.0241358574949695 5.252975522289491 1.1609594698028833 4.935671126161321 4.614664451863305 13.170940502971424" Properties=species:S:1:pos:R:3:forces:R:3 unique_starting_index=222 config_type=initial n_minim_iter=11 energy=-3258.4684467179823 stress="0.0001066624363815162 3.9905637407538316e-05 -4.721511766531799e-05 3.9905637407538316e-05 -0.0001662072082225117 0.00013876433356177064 -4.721511766531799e-05 0.00013876433356177064 0.00011027027002258333" free_energy=-3258.4684467179823 pbc="T T T"
Si       9.06421230       7.68772878       7.59953799      -0.01364614       0.00733008      -0.01937465
Si       4.83964435       3.05765909       7.45514507       0.01364614      -0.00733008       0.01937465
Si      10.70391621       6.60226085      10.52964818       0.01968823       0.01633980       0.00510517
Si       3.19994043       4.14312702       4.52503488      -0.01968823      -0.01633981      -0.00510517
Si       4.79688212       2.28110643       1.75972215       0.01503227      -0.00481821       0.01241632
Si       9.10697453       8.46428144      13.29496091      -0.01503227       0.00481821      -0.01241632
Si      12.53385394       9.75028821      12.81722711      -0.01556586      -0.01798830       0.00880356
Si       1.37000271       0.99509966       2.23745595       0.01556586       0.01798830      -0.00880356
Si       8.37221524       6.90356664       9.93531555      -0.00544536       0.01144017       0.00497819
Si       5.53164141       3.84182123       5.11936751       0.00544536      -0.01144017      -0.00497819
Si       6.50083502       3.36501109       2.97088934      -0.00887592      -0.00596506       0.00406342
Si       7.40302163       7.38037678      12.08379372       0.00887592       0.00596506      -0.00406342
Si       7.72215815       4.87896939       8.98298539      -0.00672886       0.01851252       0.01515881
Si       6.18169849       5.86641848       6.07169767       0.00672886      -0.01851252      -0.01515881
Si       3.13229134       2.08878068       3.39434128      -0.01204196      -0.00482373       0.01247721
Si      10.77156530       8.65660719      11.66034177       0.01204196       0.00482373      -0.01247721
Si       5.44382558       5.20930644       8.24321854      -0.01383353       0.02355738       0.01217971
Si       8.46003106       5.53608143       6.81146451       0.01383353      -0.02355738      -0.01217971
Si       6.64472355       5.44426799       1.80445462      -0.00182272       0.01851814      -0.02049098
Si       7.25913309       5.30111988      13.25022843       0.00182272      -0.01851814       0.02049098
20
Lattice="6.94193814416089 0.8771688109701161 0.7235559489062233 2.022913916672227 5.255425921523695 1.1608287614664379 4.935341298651312 4.616031076568433 13.168387435755966" Properties=species:S:1:pos:R:3:forces:R:3 unique_starting_index=222 config_type=initial n_minim_iter=12 energy=-3258.468711882426 stress="-7.970935531486913e-05 -3.201269495494526e-05 1.8456997687869932e-05 -3.201269495494526e-05 0.00012181374653114377 -9.950450588986555e-05 1.8456997687869932e-05 -9.950450588986555e-05 -0.00011228848001621736" free_energy=-3258.468711882426 pbc="T T T"