10
Lattice="6.387899845861142 1.0282065546466802e-07 -2.0693317760017467e-07 -2.453631504155514 5.897877320067651 2.0693317760017467e-07 -2.4536311958777994 -2.624413512520565 5.281800082421486" Properties=species:S:1:pos:R:3:forces:R:3 unique_starting_index=218 config_type=initial n_minim_iter=1 energy=-1616.9652284872711 stress="-0.10812447286721097 -0.07763749001535734 -0.14337717151847693 0.027091189660512983 -0.04061251088806209 0.03664129602786105" pbc="T T T"
Si       3.75448353       1.12204451       1.41234690      -4.33764892      -3.73421870      -7.60015116
Si      -2.85978011       1.27304380       3.86945318      -1.78164521      -5.43923964       7.60015116
Si       0.64589449      -1.06546947       2.64087358      -9.12922740      -0.50597840      -2.80506795
Si       0.24880892       3.46055777       2.64092651       3.03942810      -8.62326410       2.80506795
Si       3.19895753       2.76184809       2.64092640      -3.08385482       8.68484502      -2.36330101
Si      -1.13238665       1.38999142       2.64087369       9.20314895       0.48861331       2.36330101
Si      -0.08039262       4.94938821       1.41234711       1.39511320       5.66513625      -7.57806727
Si       2.14696350      -0.79754870       3.86945298       4.69468609       3.46410625       7.57806727
Si       3.32051383       4.97779557       0.00000000      -0.93698612      -1.40463964      -0.00000000
Si       0.61375452       0.92008185       0.00000000       0.93698612       1.40463964      -0.00000000
10
Lattice="6.401662585401535 -0.004667536271897693 0.00517641104342501 -2.4632274365688778 5.908791436407198 -0.005176411043425011 -2.4527196297986475 -2.629534590943816 5.296323884647384" Properties=species:S:1:pos:R:3:forces:R:3 unique_starting_index=218 config_type=initial n_minim_iter=2 energy=-1617.2150780485981 stress="-0.10268589029662939 -0.07259317207340638 -0.13706709775033052 0.025699362143083368 -0.03852601668358738 0.0361674424154052" pbc="T T T"
Si       3.76246218       1.11989963       1.41805655      -4.18190694      -3.64072322      -7.41884293
Si      -2.86391354       1.27446546       3.87826734      -1.75514332      -5.25953260       7.41884293
Si       0.64928964      -1.06906666       2.64923761      -8.91107289      -0.47690732      -2.70458893
Si       0.24926196       3.46343617       2.64708628       2.98247462      -8.41067809       2.70458893
Si       3.20566188       2.76322445       2.64933487      -3.03217434       8.45298525      -2.26614226
Si      -1.13277948       1.39158907       2.64698902       8.96922460       0.44727056       2.26614226
Si      -0.08289903       4.95690555       1.41288225       1.38245567       5.49898532      -7.40266430
Si       2.15577847      -0.80209646       3.88344163       4.54614261       3.38860009       7.40266430
Si       3.32393681       4.98292697       0.00000000      -0.92530481      -1.38712815      -0.00000000
Si       0.61449834       0.92119692       0.00000000       0.92530481       1.38712815      -0.00000000
10
Lattice="6.739442040597689 -0.12597034873736118 0.13652548327686084 -2.7049681469374836 6.174066315759019 -0.13652548327686087 -2.424021283892852 -2.7526963387653995 5.6569753788312145" Properties=species:S:1:pos:R:3:forces:R:3 unique_starting_index=218 config_type=initial n_minim_iter=3 energy=-1620.9145295029016 stress="-0.010710865525095167 0.013624992633061264 -0.033293609625290196 0.007698692678128668 -0.011541140998846513 0.029248462756724245" pbc="T T T"
Si       3.95749580       1.06192784       1.56018608      -1.71404318      -1.76117036      -3.85391798
Si      -2.96365351       1.30910877       4.09678930      -0.96769460      -2.25903347       3.85391798
Si       0.73441679      -1.15771836       2.85694194      -4.58307944       0.00690372      -0.86372236
Si       0.25945005       3.52879179       2.80003345       1.76676312      -4.22885480       0.86372236
Si       3.36812327       2.79075996       2.85821330      -1.80465507       4.10837125      -0.86997395
Si      -1.14106033       1.42900268       2.79876208       4.48639284      -0.08816741       0.86997395
Si      -0.14917661       5.13700145       1.42367423       1.04338808       2.35430094      -3.88835306
Si       2.37621500      -0.91727562       4.23330115       1.77292824       1.86765014       3.88835306
Si       3.40263368       5.10090177       0.00000000      -0.59709291      -0.89510438       0.00000000
Si       0.63184022       0.94719420       0.00000000       0.59709291       0.89510438       0.00000000
10
Lattice="6.799321203051943 -0.2725999556692909 0.20012110655974874 -2.863349595758023 6.173030750820458 -0.2001211065597494 -2.3341960288715704 -2.705929327824666 5.79435961837129" Properties=species:S:1:pos:R:3:forces:R:3 unique_starting_index=218 config_type=initial n_minim_iter=4 energy=-1621.8318310783839 stress="0.0024259096905366808 0.0069503602707372755 -0.002871360204884358 0.004184783789935926 -0.006273426134849385 0.00543778746005306" pbc="T T T"
Si       3.97444053       0.95074207       1.61350717      -0.93827644      -1.05767578      -2.90045967
Si      -2.98299343       1.32881353       4.18085245      -0.61614261      -1.27256003       2.90045967
Si       0.77436981      -1.17804333       2.93813148      -3.21135892       0.40202895      -0.42033244
Si       0.21666100       3.45697486       2.85622814       1.60469158      -2.81059038       0.42033244
Si       3.35288038       2.68743787       2.93941738      -1.60329463       2.75306921      -0.51162806
Si      -1.14077632       1.42200946       2.85494224       3.15771368      -0.42283340       0.51162806
Si      -0.24742279       5.08952544       1.41325873       0.72078268       1.25934760      -2.92329414
Si       2.45994314      -0.97945405       4.38110089       0.88588465       1.14921383       2.92329414
Si       3.31760459       4.97343432       0.00000000      -0.57138859      -0.85657092      -0.00000000
Si       0.61836702       0.92699647       0.00000000       0.57138859       0.85657092      -0.00000000
10
Lattice="6.784570569450882 -0.3118208953072359 0.24879107061946248 -2.8938960465183103 6.144346649933984 -0.2487910706194632 -2.2721741420645363 -2.6982413926264663 5.809151842969827" Properties=species:S:1:pos:R:3:forces:R:3 unique_starting_index=218 config_type=initial n_minim_iter=5 energy=-1622.2865940974884 stress="0.004623186482192858 0.001401989290886854 0.006721984572577943 0.0012121766748768087 -0.001817178914484827 -0.0038714503388478073" pbc="T T T"
Si       3.96410332       0.90856797       1.62537706      -0.49283339      -0.77298064      -2.53312356
Si      -2.95593983       1.31075790       4.18377478      -0.52438414      -0.75193423       2.53312355
Si       0.78258168      -1.18378112       2.95464272      -2.62320310       0.63803162      -0.15560923
Si       0.22493393       3.40213576       2.85450912       1.59667597      -2.17690255       0.15560924
Si       3.33869530       2.64784879       2.95543788      -1.58762669       2.16078300      -0.25991747
Si      -1.10985802       1.40139405       2.85371397       2.60484422      -0.63586813       0.25991748
Si      -0.26511391       5.05252594       1.37636046       0.61679375       0.70037409      -2.53801787
Si       2.49459907      -1.00231187       4.43279139       0.40973338       0.83849684       2.53801787
Si       3.27683895       4.91232238       0.00000000      -0.66054992      -0.99023303      -0.00000000
Si       0.61383558       0.92020337       0.00000000       0.66054992       0.99023303      -0.00000000
10
Lattice="6.741038924967484 -0.2759964660717473 0.2636791003863094 -2.8440989749583405 6.1179147475142015 -0.26367910038631015 -2.2578614455155273 -2.714574880698936 5.755037047241684" Properties=species:S:1:pos:R:3:forces:R:3 unique_starting_index=218 config_type=initial n_minim_iter=6 energy=-1622.711712128622 stress="0.002182822860767814 0.0005120404893464497 0.0034925253612052465 7.468605902217897e-05 -0.00011196214821596264 -0.002008058047363384" pbc="T T T"
Si       3.94400309       0.92150691       1.60119253      -0.33427577      -0.68639677      -2.41330560
Si      -2.92196014       1.28083602       4.15384452      -0.50534517      -0.57228234       2.41330560
Si       0.76135523      -1.17693470       2.92894724      -2.43340962       0.71457719      -0.05094157
Si       0.25998649       3.37822641       2.82608981       1.59444882      -1.97226670       0.05094157
Si       3.32736865       2.66944561       2.92902007      -1.58503104       1.96669941      -0.16338536
Si      -1.07125458       1.38289826       2.82601698       2.42465198      -0.70802030       0.16338536
Si      -0.23122260       5.04401722       1.33731751       0.59898872       0.50910102      -2.41178910
Si       2.48803789      -0.99062213       4.41771954       0.23997209       0.74858849       2.41178910
Si       3.27840421       4.91466888       0.00000000      -0.74345052      -1.11450966      -0.00000000
Si       0.61853574       0.92724940       0.00000000       0.74345052       1.11450966       0.00000000
10
Lattice="6.67564840130821 -0.21723393240567104 0.2630286052658329 -2.764727275397655 6.080111450619103 -0.2630286052658336 -2.257424488151574 -2.7300091555299204 5.668486649669541" Properties=species:S:1:pos:R:3:forces:R:3 unique_starting_index=218 config_type=initial n_minim_iter=7 energy=-1623.804575705475 stress="0.01011259054783301 0.0066699478558865195 0.013003374772197695 -0.0003276250008245106 0.00049114393159617 -0.004137598342599891" pbc="T T T"
Si       3.90598227       0.94301860       1.52601797       0.08654329      -0.18088335      -2.01125167
Si      -2.88705764       1.23856031       4.14246869      -0.20024940       0.01042606       2.01125167
Si       0.69441538      -1.15126461       2.87981839      -1.73649422       1.03787291       0.00271036
Si       0.32381755       3.33180658       2.78866827       1.62525468      -1.20463254      -0.00271036
Si       3.28495828       2.73187235       2.87744497      -1.62191992       1.20507955      -0.05000870
Si      -0.99688963       1.35228546       2.79104168       1.73562603      -1.03462226       0.05000871
Si      -0.17730716       5.04217805       1.26305404       0.24283785      -0.04150684      -2.00796082
Si       2.46606751      -0.95698331       4.40543261      -0.13159832       0.20826647       2.00796082
Si       3.27659861       4.91196210       0.00000000      -0.74336448      -1.11438066      -0.00000000
Si       0.63432252       0.95091542       0.00000000       0.74336448       1.11438066      -0.00000000
10
Lattice="6.480146347268684 -0.13461421838875248 0.2439243403044892 -2.613351866415231 5.931341306324913 -0.24392434030448995 -2.232070820443444 -2.699128814910559 5.459164793871821" Properties=species:S:1:pos:R:3:forces:R:3 unique_starting_index=218 config_type=initial n_minim_iter=8 energy=-1624.5613207352917 stress="0.004594542940107244 -0.0008074651039760336 0.008763868295173644 0.00040494675767077816 -0.0006070572931336368 -0.006492494724849286" pbc="T T T"
Si       3.80140942       0.97120135       1.43640350       0.26821729      -0.36054195      -2.57465441
Si      -2.79551608       1.18371487       4.02276129      -0.43590831       0.10915568       2.57465441
Si       0.63263370      -1.10379169       2.76861126      -2.24381544       1.31754088      -0.21229646
Si       0.37260651       3.25772879       2.69055353       2.07833422      -1.56561443       0.21229646
Si       3.19532283       2.73765341       2.76557312      -2.08373729       1.57161203       0.13729840
Si      -0.93176885       1.30262692       2.69359167       2.25142831      -1.32022576      -0.13729840
Si      -0.11365587       4.94566510       1.19265220       0.14502661       0.08248796      -2.60535112
Si       2.37786299      -0.90440566       4.26651259       0.02045461       0.16558559       2.60535112
Si       3.23035777       4.84264226       0.00000000      -0.81996798      -1.22921729       0.00000000
Si       0.63643672       0.95408482       0.00000000       0.81996798       1.22921729       0.00000000
10
Lattice="6.417443480001647 -0.04767325230839443 0.24767198797111592 -2.5089956771884623 5.906843001963988 -0.24767198797111664 -2.2406064936771806 -2.7385490350503803 5.359778605011891" Properties=species:S:1:pos:R:3:forces:R:3 unique_starting_index=218 config_type=initial n_minim_iter=9 energy=-1625.2281855169351 stress="0.008674825961411765 0.00995369753785407 0.0074704118379048294 0.0004488549142645469 -0.0006728802047547467 0.0015370334416286073" pbc="T T T"
Si       3.78120992       1.02067984       1.38738437       0.25495970      -0.48746916      -2.51775731
Si      -2.75061005       1.14464966       3.97239423      -0.54800648       0.04816157       2.51775731
Si       0.59175466      -1.08561693       2.71546586      -2.24985136       1.19504756      -0.19660556
Si       0.43820661       3.24998911       2.64431275       1.96755593      -1.61823777       0.19660556
Si       3.18387589       2.79951329       2.71618650      -1.97945297       1.63781848       0.20260572
Si      -0.87879313       1.27639863       2.64359211       2.27249974      -1.19851089      -0.20260572
Si      -0.04500773       4.95408060       1.13923094       0.21064431       0.16523635      -2.54105283
Si       2.35072909      -0.87721136       4.22054767       0.07165112       0.25795386       2.54105283
Si       3.25714920       4.88280540       0.00000000      -0.55378567      -0.83018232       0.00000000
Si       0.65129861       0.97636435       0.00000000       0.55378567       0.83018232       0.00000000
10
Lattice="6.3390270736214305 -0.06101955080401394 0.2511641524581342 -2.49119794324652 5.8293156059052205 -0.2511641524581352 -2.202115588722433 -2.6985698269464056 5.302686006182713" Properties=species:S:1:pos:R:3:forces:R:3 unique_starting_index=218 config_type=initial n_minim_iter=10 energy=-1625.6632671854738 stress="0.003386616734157455 0.0022506677290613903 0.0041165376245771625 0.0004530735436190664 -0.0006792043721745923 -0.001365259528870807" pbc="T T T"
Si       3.73437252       0.99481140       1.35776367       0.47739736      -0.30000005      -2.52982227
Si      -2.71801266       1.13144819       3.94492234      -0.46035799       0.32554384       2.52982227
Si       0.57340602      -1.06474405       2.68488166      -2.11164229       1.43321553      -0.22016635
Si       0.44239836       3.19017093       2.61780435       2.13436683      -1.39914908       0.22016635
Si       3.12738385       2.76299890       2.68846752      -2.15188854       1.41699471       0.28179905
Si      -0.85231662       1.25019396       2.61421849       2.13484916      -1.44253851      -0.28179905
Si      -0.05402599       4.88580808       1.10568894       0.04022700      -0.05144663      -2.56073196
Si       2.32964870      -0.87178251       4.19699706      -0.06295154       0.01738018       2.56073196
Si       3.20286069       4.80142128       0.00000000      -0.61005722      -0.91453922       0.00000000
Si       0.64496844       0.96687477       0.00000000       0.61005722       0.91453922       0.00000000
10
Lattice="6.301378850245087 -0.045762381231135754 0.2569445741093774 -2.4626502532833414 5.800415790256384 -0.25694457410937843 -2.1891434447104703 -2.6973664445478334 5.263777670677677" Properties=species:S:1:pos:R:3:forces:R:3 unique_starting_index=218 config_type=initial n_minim_iter=11 energy=-1626.153693732051 stress="0.0042474921975900115 0.0054254344535045775 0.003287989523138849 3.7887330566619886e-05 -5.679704956677532e-05 0.0014157298110851278" pbc="T T T"
Si       3.71856559       0.99727017       1.32892051       0.56393176      -0.16153473      -2.32536063
Si      -2.69669882       1.11900164       3.93485716      -0.36575289       0.45862548       2.32536063
Si       0.55154959      -1.04833874       2.66273479      -1.85336256       1.44519169      -0.16954676
Si       0.46981200       3.16385325       2.60104288       2.04621746      -1.15608214       0.16954676
Si       3.09949588       2.76997417       2.67086736      -2.07295621       1.16815231       0.29947835
Si      -0.82219234       1.22832793       2.59291032       1.87477733      -1.46524306      -0.29947835
Si      -0.04213511       4.86619380       1.07035094      -0.02204558      -0.19417232      -2.34820974
Si       2.31994383      -0.86713438       4.19342674      -0.17080932      -0.09493723       2.34820974
Si       3.19002925       4.78218562       0.00000000      -0.52137416      -0.78159409      -0.00000000
Si       0.64869935       0.97246778       0.00000000       0.52137416       0.78159409      -0.00000000
10
Lattice="6.164419617924857 -0.08973928786701771 0.2544294167494084 -2.450646761753985 5.657071045580786 -0.25442941674940983 -2.120548686254985 -2.607785981591903 5.174512753601661" Properties=species:S:1:pos:R:3:forces:R:3 unique_starting_index=218 config_type=initial n_minim_iter=12 energy=-1627.2212157366855 stress="-0.013828869251861914 -0.01691633814093469 -0.011386751214838208 8.314462804462546e-05 -0.00012464245307546831 -0.003710726708184565" pbc="T T T"
Si       3.64038893       0.94155106       1.24661277       0.91800307       0.55334545      -1.70817157
Si      -2.64952077       1.11500041       3.92789999       0.15828711       1.06012547       1.70817157
Si       0.49887587      -0.98585796       2.60745152      -0.88994945       1.73789198      -0.05254646
Si       0.49137114       3.04147825       2.56706123       1.94641150      -0.15414550       0.05254646
Si       2.95940428       2.70061716       2.62790199      -1.99234009       0.16330731       0.26586205
Si      -0.76382410       1.16192291       2.54661077       0.91604991      -1.77677823      -0.26586205
Si      -0.08127969       4.72962416       0.98876745      -0.41561071      -0.86699832      -1.70018273
Si       2.27748102      -0.86615291       4.18574531      -0.64085133      -0.71674816       1.70018273
Si       3.07322139       4.60707849       0.00000000      -0.60034440      -0.89997870      -0.00000000
Si       0.64055146       0.96025326       0.00000000       0.60034440       0.89997870       0.00000000
10
Lattice="6.3570834047261835 -0.04043056993947491 0.26275063663681764 -2.479123912693448 5.853895170836448 -0.26275063663681875 -2.2079297186740376 -2.7273251532562925 5.3075348146286645" Properties=species:S:1:pos:R:3:forces:R:3 unique_starting_index=218 config_type=initial n_minim_iter=13 energy=-1627.256399323178 stress="0.032329364890273375 0.038825455318389435 0.027084638908009905 9.18636510626128e-05 -0.00013771316720099047 0.007807436157665443" pbc="T T T"
Si       3.77210802       1.01612503       1.25895527       0.46974372       0.17888358      -0.99299506
Si      -2.71864259       1.14572033       4.04857955      -0.01527022       0.50241947       0.99299506
Si       0.49569385      -0.99940178       2.67217442      -0.60772298       0.89740547      -0.03299553
Si       0.55689411       3.15993173       2.63536040       1.06199468      -0.21640495       0.03299553
Si       3.05256408       2.83169036       2.69703951      -1.07497673       0.22484625       0.18046294
Si      -0.76596995       1.17874317       2.61049530       0.62050323      -0.90614930      -0.18046294
Si      -0.04945447       4.90188911       0.99240804      -0.16254339      -0.38358763      -1.00109574
Si       2.33692606      -0.89014018       4.31512677      -0.29172830      -0.29741288       1.00109574
Si       3.20216028       4.80037130       0.00000000      -0.10178164      -0.15258126       0.00000000
Si       0.67579921       1.01309330       0.00000000       0.10178163       0.15258126      -0.00000000
10
Lattice="6.193965554861939 -0.07807946985149672 0.2577699990872205 -2.4512301567373243 5.688829090166978 -0.2577699990872214 -2.133925652772925 -2.630231555884951 5.192879195756688" Properties=species:S:1:pos:R:3:forces:R:3 unique_starting_index=218 config_type=initial n_minim_iter=14 energy=-1627.6280499828074 stress="0.0011951314171309302 0.005995049103167317 -0.0026467023194439786 -1.597089014048717e-05 2.3942029477457712e-05 0.005768862252208039" pbc="T T T"
Si       3.67058829       0.96255502       1.22816487       0.67049867       0.35270770      -1.22656739
Si      -2.65510477       1.12850531       3.96471433       0.06810846       0.75454121       1.22656739
Si       0.48687652      -0.96831889       2.61406311      -0.66478520       1.21828671      -0.00998055
Si       0.52775936       3.05810853       2.57881609       1.38017873      -0.14583740       0.00998055
Si       2.95288422       2.72655534       2.63925708      -1.41663007       0.14501054       0.22487760
Si      -0.75074824       1.14342045       2.55362212       0.67802294      -1.25225944      -0.22487760
Si      -0.07899308       4.74993301       0.96655902      -0.25342693      -0.60577942      -1.22272955
Si       2.28197670      -0.87868653       4.22632018      -0.46196660      -0.46666988       1.22272955
Si       3.09011188       4.63239909       0.00000000      -0.38012637      -0.56984897       0.00000000
Si       0.65262352       0.97835052       0.00000000       0.38012637       0.56984897      -0.00000000
10
Lattice="6.1887104300820885 -0.10494799924433944 0.2581773236958055 -2.4740190470399477 5.673656724268382 -0.25817732369580665 -2.1205316298723926 -2.6087922015862364 5.203398433339175" Properties=species:S:1:pos:R:3:forces:R:3 unique_starting_index=218 config_type=initial n_minim_iter=15 energy=-1627.7038924850126 stress="0.00048103665296926287 0.0018189967896742243 -0.0006082367041301171 4.1597627244770076e-05 -6.235916678502662e-05 0.0016080500215341132" pbc="T T T"
Si       3.66521099       0.94359099       1.22570078       0.72656314       0.46361519      -1.13837028
Si      -2.65715457       1.13769567       3.97769766       0.14897341       0.84890516       1.13837027
Si       0.48787657      -0.96125064       2.61880153      -0.52269537       1.27184725      -0.00457712
Si       0.51925129       3.04114528       2.58459691       1.37505300       0.00592549       0.00457712
Si       2.93265945       2.70184953       2.64499951      -1.41080486      -0.00718141       0.21976808
Si      -0.75239636       1.13669684       2.55839893       0.53526830      -1.30533895      -0.21976808
Si      -0.10115209       4.72660512       0.96360148      -0.32554158      -0.70601796      -1.13419052
Si       2.28234375      -0.88666673       4.23979696      -0.52681605      -0.57175478       1.13419052
Si       3.06552865       4.59554628       0.00000000      -0.41874092      -0.62773620       0.00000000
Si       0.64916273       0.97316244       0.00000000       0.41874092       0.62773620       0.00000000
10
Lattice="6.185798714206928 -0.11515863268773657 0.25875022664418934 -2.482328004006705 5.667046402129663 -0.25875022664419056 -2.11474456983002 -2.6004996099598277 5.206685712248081" Properties=species:S:1:pos:R:3:forces:R:3 unique_starting_index=218 config_type=initial n_minim_iter=16 energy=-1627.791929437075 stress="0.0005200414196478752 0.0017443322268588036 -0.00047067192659711493 2.298150384997173e-05 -3.445168177563191e-05 0.0014714346217089818" pbc="T T T"
Si       3.66518170       0.93822250       1.22042712       0.69501224       0.45913017      -1.02206397
Si      -2.65631293       1.14389915       3.98625860       0.15695133       0.81805184       1.02206397
Si       0.48633937      -0.95358562       2.61988741      -0.43744348       1.18897054       0.00770441
Si       0.52148515       3.03414182       2.58679831       1.26578808       0.05280416      -0.00770441
Si       2.91929513       2.69184656       2.64735597      -1.30067610      -0.05511293       0.20895344
Si      -0.75071161       1.12880811       2.55932974       0.44871253      -1.22206907      -0.20895344
Si      -0.11112185       4.71446306       0.95764934      -0.31408325      -0.68765326      -1.01663749
Si       2.28074962      -0.89224295       4.24903637      -0.51426134      -0.55412144       1.01663749
Si       3.05412834       4.57845602       0.00000000      -0.40172067      -0.60222106      -0.00000000
Si       0.64934237       0.97343175       0.00000000       0.40172067       0.60222106      -0.00000000
10
Lattice="6.152445701184172 -0.21438623755537176 0.26257481637031027 -2.5611326568384607 5.598138001063248 -0.26257481637031127 -2.0580043289930363 -2.5168728091429338 5.234258738685698" Properties=species:S:1:pos:R:3:forces:R:3 unique_starting_index=218 config_type=initial n_minim_iter=17 energy=-1628.1569182348571 stress="-0.010498233768321735 -0.012862442811254544 -0.008486932225753816 -0.0002903430520080828 0.00043525442252802346 -0.0028414646650565885" pbc="T T T"
Si       3.66315060       0.88638451       1.16718887       0.15820426       0.13343298       0.50170234
Si      -2.64665398       1.20573937       4.06706987       0.06242997       0.19732067      -0.50170234
Si       0.47111391      -0.87647736       2.62858161       0.51868521      -0.13334522       0.13883884
Si       0.54310912       2.96519288       2.60567713      -0.32234634       0.42767760      -0.13883884
Si       2.78519506       2.59154043       2.66840952       0.29924284      -0.43857999       0.11242553
Si      -0.73507425       1.05009359       2.56584922      -0.51987707       0.10782634      -0.11242553
Si      -0.20856882       4.59103841       0.89966268      -0.02964826      -0.19287427       0.51769876
Si       2.26096323      -0.94599603       4.33459606      -0.16669060      -0.10145810      -0.51769876
Si       2.94018861       4.40764852       0.00000000      -0.21919814      -0.32860080      -0.00000000
Si       0.65112443       0.97610324       0.00000000       0.21919814       0.32860080       0.00000000
10
Lattice="6.509626040378888 -0.12844165524084444 0.25937755588401734 -2.6189761384703045 5.960930500391964 -0.25937755588401806 -2.2331526862152375 -2.724244578308298 5.481835980625822" Properties=species:S:1:pos:R:3:forces:R:3 unique_starting_index=218 config_type=initial n_minim_iter=18 energy=-1627.003123560278 stress="0.05316549783556644 0.061738231023897645 0.04599367980833798 0.0007489313986452557 -0.0011227260522901066 0.010303284397549236" pbc="T T T"
Si       3.89575963       1.01534726       1.23070222      -0.01273408      -0.13079942       0.14838310
Si      -2.79207901       1.26266832       4.25113376      -0.11587442      -0.06199810      -0.14838310
Si       0.49401787      -0.93276421       2.75577613       0.05926308      -0.17689301      -0.01293544
Si       0.60653104       3.20608503       2.72605986      -0.18608667      -0.01322875       0.01293544
Si       2.99471782       2.81606125       2.79659996       0.18131881       0.01834243       0.07794379
Si      -0.78340400       1.12241170       2.68523602      -0.05271031       0.17445509      -0.07794379
Si      -0.14691479       4.91512671       0.96684099       0.03921606       0.11120101       0.14514479
Si       2.36136032      -0.97195900       4.51499499       0.08760753       0.07892075      -0.14514479
Si       3.17922169       4.76598397       0.00000000       0.29943393       0.44888260       0.00000000
Si       0.71142821       1.06650487       0.00000000      -0.29943393      -0.44888260      -0.00000000
10
Lattice="6.188328363124941 -0.1820362369475191 0.25498676210100785 -2.545047010085422 5.643693900086536 -0.2549867621010084 -2.0913519365768876 -2.5509138561028557 5.245250131917831" Properties=species:S:1:pos:R:3:forces:R:3 unique_starting_index=218 config_type=initial n_minim_iter=19 energy=-1628.2040001680748 stress="0.00342855934843767 0.009818070757796244 -0.0020545008008777186 0.0009032561673262674 -0.0013540749514233796 0.007679342384745647" pbc="T T T"
Si       3.69441002       0.91929940       1.18172241       0.01940580      -0.04275650       0.03858379
Si      -2.66161856       1.21320261       4.06352772      -0.04693049       0.00149412      -0.03858379
Si       0.48136708      -0.88654174       2.63820950       0.01885518      -0.05752064       0.07635276
Si       0.54849918       3.01465858       2.60704064      -0.06035056      -0.00468525      -0.07635276
Si       2.82365061       2.62469326       2.67770108       0.04201505       0.00178479       0.04387439
Si      -0.75258323       1.06429234       2.56754905      -0.01449036       0.03947758      -0.04387439
Si      -0.18432585       4.63437769       0.92233914       0.07952133      -0.00810290       0.05571882
Si       2.25831843      -0.94100692       4.32291099      -0.03802595       0.07030879      -0.05571882
Si       2.97832729       4.46482235       0.00000000      -0.05500166      -0.08245321       0.00000000
Si       0.66495407       0.99683530       0.00000000       0.05500166       0.08245321       0.00000000
10
Lattice="6.171350145834858 -0.22227594335583026 0.2629832076558574 -2.575678448349152 5.612561781236839 -0.26298320765585803 -2.061686546887466 -2.5191373199399574 5.254286357886163" Properties=species:S:1:pos:R:3:forces:R:3 unique_starting_index=218 config_type=initial n_minim_iter=20 energy=-1628.216727813924 stress="-0.003248670741535997 -0.00491824575047944 -0.0020518151088340956 0.0003550535992528948 -0.0005322622728584492 -0.0020066069688127056" pbc="T T T"
Si       3.67870949       0.88543251       1.18774864       0.13099470       0.09640807       0.04531527
Si      -2.65719143       1.21747454       4.06653772       0.03869664       0.15797689      -0.04531527
Si       0.48917036      -0.88454271       2.64466306       0.12259741       0.08777977       0.08691774
Si       0.52940332       2.98303580       2.60962330       0.03395567       0.14690958      -0.08691774
Si       2.80096830       2.58103344       2.68406196      -0.05245560      -0.14879877       0.06012436
Si      -0.75451606       1.05835655       2.57022441      -0.11723574      -0.10558620      -0.06012436