8
Lattice="5.762090000000001 -2.3622720917754297e-15 9.566399834393315e-16 -1.0600401234553345 5.663744000638165 -9.566399834393309e-16 -2.607413986730456 -2.6190173773851932 4.677065331477749" Properties=species:S:1:pos:R:3:forces:R:3 unique_starting_index=38 config_type=initial n_minim_iter=1 energy=-1256.3203585892145 stress="-0.863856203365199 -0.7702883767317212 -0.046289215162793704 0.1407714968066732 -0.16956300788200954 0.24996422554046238" pbc="T T T"
Si       2.94962687       3.37467305       1.40455218      32.99251888      -1.75702096       5.97032030
Si       0.16702332       0.90109835       3.27251315      -7.79659996      32.10617469      -5.97032030
Si      -0.85499120      -0.32994529       3.27251315     -32.99251888       1.75702096      -5.97032030
Si       1.92761235       2.14362941       1.40455218       7.79659996     -32.10617469       5.97032030
Si       1.54133176       0.13554386       3.56438307      24.55704675     -12.48230793       5.30210607
Si       1.94430992       4.58468759       1.11268226     -16.78697340      21.84156772      -5.30210607
Si       0.55330392       2.90918390       1.11268226     -24.55704675      12.48230793      -5.30210607
Si       0.15032575      -1.53995983       3.56438307      16.78697340     -21.84156772       5.30210607
8
Lattice="5.838631472344388 -0.022276570576935 0.015041042393717128 -1.0960176636800258 5.734880905158227 -0.015041042393717105 -2.6197158845101254 -2.6500726105792785 4.6792671088144635" Properties=species:S:1:pos:R:3:forces:R:3 unique_starting_index=38 config_type=initial n_minim_iter=2 energy=-1260.5055434788933 stress="-0.761826938413334 -0.6865338925922068 -0.030465601503000508 0.12378074413737412 -0.14909719493420184 0.20114358269125746" pbc="T T T"
Si       2.98277363       3.39997819       1.40654559      30.00891143      -0.40828058       5.27197424
Si       0.17349670       0.90727947       3.27272151      -5.92199130      29.42161581      -5.27197424
Si      -0.85987592      -0.33744531       3.27272151     -30.00891142       0.40828058      -5.27197424
Si       1.94940100       2.15525340       1.40654559       5.92199130     -29.42161581       5.27197424
Si       1.57308102       0.12219127       3.57119200      21.72129502     -10.67608793       4.68917372
Si       1.95360641       4.63124363       1.10807511     -14.48989398      19.38650261      -4.68917372
Si       0.54981668       2.94034160       1.10807511     -21.72129502      10.67608793      -4.68917372
Si       0.16929129      -1.56871075       3.57119200      14.48989398     -19.38650261       4.68917372
8
Lattice="6.555895294220337 -0.22414716418539096 0.15695132445438822 -1.4263963619902889 6.40276490888847 -0.1569513244543882 -2.7373429032282077 -2.9460215080958445 4.692777734090823" Properties=species:S:1:pos:R:3:forces:R:3 unique_starting_index=38 config_type=initial n_minim_iter=3 energy=-1285.0386536929288 stress="-0.27044935197176934 -0.2685540369610107 0.033713182652881285 0.04183770501027852 -0.050394627246948764 0.00506328896666108" pbc="T T T"
Si       3.30025992       3.64175466       1.42354044      15.19005508       4.31683308       1.64743076
Si       0.23511215       0.96787731       3.26923726       1.44867046      15.72495389      -1.64743076
Si      -0.90810418      -0.40915714       3.26923726     -15.19005508      -4.31683308      -1.64743076
Si       2.15704359       2.26472021       1.42354044      -1.44867046     -15.72495389       1.64743076
Si       1.87307308      -0.00255580       3.63033864       8.59046498      -2.73267980       1.64555504
Si       2.04505756       5.07323063       1.06243906      -4.26640965       7.94111932      -1.64555504
Si       0.51908266       3.23515332       1.06243906      -8.59046498       2.73267980      -1.64555504
Si       0.34709818      -1.84063311       3.63033864       4.26640965      -7.94111932       1.64555504
8
Lattice="7.157222292753799 -0.2590777694352952 0.2693519404857993 -1.5713556999536393 6.987402486098159 -0.2693519404857986 -2.9023385107153294 -3.2733339638265986 4.638178946673198" Properties=species:S:1:pos:R:3:forces:R:3 unique_starting_index=38 config_type=initial n_minim_iter=4 energy=-1292.852960654991 stress="-0.04796893921375349 -0.050542185439696186 0.04626291399250755 0.020506910033768543 -0.024701117954689326 -0.006874366147595813" pbc="T T T"
Si       3.65348564       3.95240572       1.41744668       6.31723990       2.12370327       0.60737381
Si       0.31048318       1.04491171       3.22073221       0.92528647       6.60011216      -0.60737381
Si      -0.96995788      -0.49741356       3.22073221      -6.31723990      -2.12370327      -0.60737381
Si       2.37304458       2.41008044       1.41744668      -0.92528647      -6.60011216       0.60737381
Si       2.12598944      -0.06501556       3.62782600       2.66188831      -1.14752213       0.41967186
Si       2.22850731       5.53273425       1.01035289      -1.61763874       2.40534849      -0.41967186
Si       0.55753832       3.52000771       1.01035289      -2.66188831       1.14752213      -0.41967186
Si       0.45502045      -2.07774210       3.62782600       1.61763874      -2.40534849       0.41967186
8
Lattice="7.336950759715732 -0.24350615671815495 0.3512547706910748 -1.5891141449275636 7.16692806809473 -0.35125477069107375 -2.9242652690907205 -3.419912822685917 4.528974945722266" Properties=species:S:1:pos:R:3:forces:R:3 unique_starting_index=38 config_type=initial n_minim_iter=5 energy=-1294.3371398827655 stress="-0.014799750410608194 -0.01841911804910595 0.04719550363892778 0.020358672088627537 -0.02452256140237195 -0.009669054655300727" pbc="T T T"
Si       3.79836145       4.05828445       1.39174381       4.49078112       1.26600641       0.22482399
Si       0.36597552       1.06021427       3.13723107       0.41823853       4.64703817      -0.22482399
Si      -0.97479042      -0.55477393       3.13723107      -4.49078112      -1.26600641      -0.22482399
Si       2.45759551       2.44329626       1.39174381      -0.41823853      -4.64703817       0.22482399
Si       2.23612611      -0.10375513       3.57208090       1.59630322      -1.13251348       0.34597216
Si       2.31021055       5.68238265       0.95689397      -1.40685270       1.36071166      -0.34597216
Si       0.58744491       3.60726566       0.95689397      -1.59630322       1.13251348      -0.34597216
Si       0.51336047      -2.17887212       3.57208090       1.40685270      -1.36071166       0.34597216
8
Lattice="7.447804195353973 -0.18840712322903688 0.4930816984217042 -1.5553490126985383 7.286025941836425 -0.4930816984217033 -2.8843513347346925 -3.600179182485799 4.333408634370222" Properties=species:S:1:pos:R:3:forces:R:3 unique_starting_index=38 config_type=initial n_minim_iter=6 energy=-1295.910541117281 stress="-0.0004988337535196591 -0.002725984128349771 0.04302581223524432 0.02152109123808532 -0.02592272615911011 -0.005949779324002644" pbc="T T T"
Si       3.95293678       4.14178812       1.34424766       2.83620711       0.69394117       0.17594649
Si       0.45953097       1.04724699       2.98916088       0.16032582       2.91546236      -0.17594649
Si      -0.94483324      -0.64434702       2.98916088      -2.83620711      -0.69394117      -0.17594649
Si       2.54857256       2.45019411       1.34424766      -0.16032582      -2.91546236       0.17594649
Si       2.36691062      -0.16706177       3.47051077       0.86339328      -1.24456204       0.43744337
Si       2.40845675       5.79321912       0.86289777      -1.38215687       0.61969751      -0.43744337
Si       0.64119291       3.66450287       0.86289777      -0.86339328       1.24456204      -0.43744337
Si       0.59964678      -2.29577802       3.47051077       1.38215687      -0.61969751       0.43744337
8
Lattice="7.483053289607202 -0.13485983320205502 0.7611990132341286 -1.50920036031427 7.330524400214473 -0.7611990132341288 -2.7070108326928803 -3.8302187159653727 4.026456583997228" Properties=species:S:1:pos:R:3:forces:R:3 unique_starting_index=38 config_type=initial n_minim_iter=7 energy=-1297.5408952340554 stress="0.003978372745502754 0.004529071936066951 0.005472430753383706 0.004503112581526633 -0.005424118745538551 0.0014711798174573492" pbc="T T T"
Si       4.10568626       4.15472340       1.27370812       1.17379704       1.36776913       1.16580413
Si       0.62148496       0.96972952       2.75274831       1.12848328       1.40538869      -1.16580413
Si      -0.83884446      -0.78927608       2.75274831      -1.17379704      -1.36776913      -1.16580413
Si       2.64535683       2.39571780       1.27370812      -1.12848328      -1.40538869       1.16580413
Si       2.55684653      -0.30635035       3.32776979       0.30862572      -1.10905991      -0.17283457
Si       2.49534164       5.82229481       0.69868664      -1.14690799       0.09932664       0.17283457
Si       0.70999527       3.67179767       0.69868664      -0.30862572       1.10905991       0.17283457
Si       0.77150015      -2.45684749       3.32776979       1.14690799      -0.09932664      -0.17283457
8
Lattice="7.434155403490753 -0.16248086090874309 0.8210432779707463 -1.5273543129130027 7.277379706751496 -0.8210432779707452 -2.623754146383912 -3.8311224224601697 3.9891419187802146" Properties=species:S:1:pos:R:3:forces:R:3 unique_starting_index=38 config_type=initial n_minim_iter=8 energy=-1297.8960866577872 stress="0.0034631708231855746 0.005797883006122966 -0.0007654759946258152 -0.00010497959527183379 0.0001264507257158709 0.006237128182776701" pbc="T T T"
Si       4.09810313       4.10987056       1.27481876       0.93034351       1.57835161       1.37986363
Si       0.66204941       0.95312063       2.71432300       1.38025925       1.20483080      -1.37986363
Si      -0.81505650      -0.82609268       2.71432300      -0.93034351      -1.57835161      -1.37986363
Si       2.62099723       2.33065726       1.27481876      -1.38025925      -1.20483080       1.37986363
Si       2.58501942      -0.36241294       3.32062781       0.23888954      -0.97708368      -0.39672362
Si       2.45125785       5.75800371       0.66851394      -1.00435507       0.05506011       0.39672362
Si       0.69802721       3.64619082       0.66851394      -0.23888954       0.97708367       0.39672362
Si       0.83178878      -2.47422582       3.32062781       1.00435507      -0.05506011      -0.39672362
8
Lattice="7.400289768388401 -0.22445504433068503 0.8214043003091285 -1.5820405426552813 7.2326908163168815 -0.8214043003091276 -2.5799676524156743 -3.7773845528970984 3.9932347039031266" Properties=species:S:1:pos:R:3:forces:R:3 unique_starting_index=38 config_type=initial n_minim_iter=9 energy=-1298.1477259130786 stress="0.00559576479634046 0.008400192816260317 0.0015985685863919878 -0.0006866923559811043 0.0008271391912889325 0.00749196286042731" pbc="T T T"
Si       4.05520735       4.05663238       1.28237333       0.96510962       1.71742808       1.31859668
Si       0.66139783       0.95490073       2.71086121       1.51056615       1.26458915      -1.31859668
Si      -0.81692610      -0.82577971       2.71086121      -0.96510962      -1.71742808      -1.31859668
Si       2.57688343       2.27595194       1.28237333      -1.51056615      -1.26458915       1.31859668
Si       2.57734525      -0.39065567       3.32397481       0.07612810      -0.86267216      -0.32301709
Si       2.38014359       5.69233956       0.66925972      -0.86195341      -0.08387530       0.32301709
Si       0.66093600       3.62150834       0.66925972      -0.07612810       0.86267216       0.32301709
Si       0.85813766      -2.46148689       3.32397481       0.86195341       0.08387530      -0.32301709
8
Lattice="7.316965933570683 -0.333509414616703 0.8099884381258629 -1.6739046800262458 7.130726619697189 -0.8099884381258623 -2.5019608371898885 -3.6639159839267794 3.9788792749146986" Properties=species:S:1:pos:R:3:forces:R:3 unique_starting_index=38 config_type=initial n_minim_iter=10 energy=-1298.5682724795101 stress="0.0031846866416772265 0.005552918102951943 -0.00011059362065714524 -0.0030026480347514926 0.0036167693268285726 0.006326674061722102" pbc="T T T"
Si       3.96034513       3.94927449       1.28608776       1.13022159       1.89762395       1.23737677
Si       0.65133072       0.95537575       2.69279135       1.65731116       1.46003330      -1.23737677
Si      -0.81924505      -0.81597184       2.69279135      -1.13022159      -1.89762395      -1.23737677
Si       2.48976936       2.17792690       1.28608776      -1.65731116      -1.46003330       1.23737677
Si       2.54698172      -0.42998448       3.30917691      -0.01588078      -0.61770065      -0.26008884
Si       2.24989079       5.55770902       0.66970221      -0.60423633      -0.12924688       0.26008884
Si       0.59411836       3.56328714       0.66970221       0.01588078       0.61770065       0.26008884
Si       0.89120929      -2.42440637       3.30917691       0.60423632       0.12924688      -0.26008884
8
Lattice="7.2807469818394335 -0.39612915764650347 0.7776252019865089 -1.7287925161832514 7.083605816185038 -0.7776252019865078 -2.4833781654979505 -3.5866545712925246 3.976544423140473" Properties=species:S:1:pos:R:3:forces:R:3 unique_starting_index=38 config_type=initial n_minim_iter=11 energy=-1298.8558117454788 stress="0.0032409673076335614 0.0052228976833734436 0.002929521929806126 -0.0029678776007058907 0.003574887407047137 0.005294679865301304" pbc="T T T"
Si       3.90921273       3.90478929       1.28933828       1.10974466       1.69206874       1.05354743
Si       0.63559418       0.97419363       2.68720599       1.45903141       1.40209029      -1.05354743
Si      -0.84063678      -0.80396578       2.68720599      -1.10974466      -1.69206874      -1.05354743
Si       2.43298177       2.12662988       1.28933828      -1.45903141      -1.40209029       1.05354743
Si       2.51607322      -0.43817407       3.29637661      -0.03236596      -0.43674002      -0.19224689
Si       2.17500304       5.49334231       0.68016766      -0.42333155      -0.11215973       0.19224689
Si       0.55250273       3.53899758       0.68016766       0.03236596       0.43674002       0.19224689
Si       0.89357291      -2.39251880       3.29637661       0.42333155       0.11215973      -0.19224689
8
Lattice="7.126954453999893 -0.614201873211151 0.6294386687625676 -1.9148503153992664 6.892319783647613 -0.6294386687625672 -2.434948008626525 -3.281109836627569 3.890515565718733" Properties=species:S:1:pos:R:3:forces:R:3 unique_starting_index=38 config_type=initial n_minim_iter=12 energy=-1299.4558613619408 stress="-0.02055431854142818 -0.024044791282510417 -0.003938975146393785 -0.00876363614760468 0.01055603258039173 -0.009324714960609503" pbc="T T T"
Si       3.71192828       3.74332097       1.27609192       0.80127961       0.14785375       0.13729948
Si       0.56160594       1.05611612       2.61442352      -0.00207958       0.81480391      -0.13729948
Si      -0.93477254      -0.74631151       2.61442352      -0.80127961      -0.14785375      -0.13729948
Si       2.21554980       1.94089334       1.27609192       0.00207958      -0.81480391       0.13729948
Si       2.37869456      -0.44510939       3.17992459       0.63771375       0.48381280      -0.18535886
Si       1.90203919       5.25321851       0.71059085       0.35823628       0.71583548       0.18535886
Si       0.39846118       3.44211885       0.71059085      -0.63771375      -0.48381280       0.18535886
Si       0.87511655      -2.25620905       3.17992459      -0.35823628      -0.71583547      -0.18535886
8
Lattice="7.42063236438003 -0.48643815811019175 0.5008346564807102 -1.8432945766782756 7.204489702438223 -0.5008346564807098 -2.730299981348239 -3.407483742332895 3.9174329623500457" Properties=species:S:1:pos:R:3:forces:R:3 unique_starting_index=38 config_type=initial n_minim_iter=13 energy=-1299.314193242441 stress="0.03469995046599335 0.04045174209164985 0.047265697940311664 0.003863056340441397 -0.004653153996318372 0.015365774621278212" pbc="T T T"
Si       3.93344561       4.04995764       1.27876486       0.07282735       0.01899866       0.10872362
Si       0.52690491       1.20389008       2.63866800       0.00527649       0.07507950      -0.10872362
Si      -1.08640817      -0.73938839       2.63866800      -0.07282735      -0.01899866      -0.10872362
Si       2.32013252       2.10667916       1.27876486      -0.00527649      -0.07507949       0.10872362
Si       2.39199322      -0.33364675       3.15693440      -0.09080388      -0.33107838       0.11571249
Si       2.07903455       5.60035549       0.76049846      -0.30872260      -0.15016189      -0.11571249
Si       0.45504422       3.64421599       0.76049846       0.09080388       0.33107838      -0.11571249
Si       0.76800289      -2.28978624       3.15693440       0.30872260       0.15016189       0.11571249
8
Lattice="7.239239790018754 -0.5559526060575942 0.5095176320376974 -1.8782521407912904 7.013404660590026 -0.5095176320376968 -2.6095736604154043 -3.287604067883115 3.7825359649610233" Properties=species:S:1:pos:R:3:forces:R:3 unique_starting_index=38 config_type=initial n_minim_iter=14 energy=-1299.7729600786322 stress="-0.0021217310305122147 0.0007123014749146874 0.006957744350719384 -0.01048508460168342 0.012629562961185439 0.007571050407728579" pbc="T T T"
Si       3.79340369       3.88283383       1.23683569       0.55554096      -0.20249016       0.12868039
Si       0.50912311       1.15537260       2.54570017      -0.30123586       0.50880741      -0.12868039
Si      -1.04199008      -0.71298444       2.54570017      -0.55554096       0.20249016      -0.12868039
Si       2.24229051       2.01447680       1.23683569       0.30123586      -0.50880741       0.12868038
Si       2.34563039      -0.36123432       3.05724215       0.39058380       0.07403964      -0.13103426
Si       1.96482331       5.40898892       0.72529372       0.00092103       0.39753833       0.13103426
Si       0.40578322       3.53108371       0.72529372      -0.39058380      -0.07403964       0.13103426
Si       0.78659030      -2.23913952       3.05724215      -0.00092103      -0.39753833      -0.13103426
8
Lattice="7.2474504934390485 -0.586900426788017 0.46127348435265003 -1.9101822579991197 7.0157818172345685 -0.4612734843526497 -2.6383821054827696 -3.239555967098051 3.764565049298332" Properties=species:S:1:pos:R:3:forces:R:3 unique_starting_index=38 config_type=initial n_minim_iter=15 energy=-1299.87013234717 stress="-0.0006289452842706247 0.0010061351267613198 0.011014762386517841 -0.00967208216081571 0.011650279939101124 0.004368078488983719" pbc="T T T"
Si       3.76982628       3.87242492       1.22852525       0.65793895      -0.16115241       0.03221658
Si       0.47442089       1.17833080       2.53603971      -0.27944161       0.61706252      -0.03221658
Si      -1.07094053      -0.68309809       2.53603971      -0.65793895       0.16115241      -0.03221658
Si       2.22446486       2.01099603       1.22852525       0.27944161      -0.61706252       0.03221658
Si       2.31974640      -0.34502288       3.02741913       0.47040138       0.12823013      -0.14401003
Si       1.93299202       5.40600654       0.73714583       0.03950274       0.48596292       0.14401003
Si       0.37913934       3.53434971       0.73714583      -0.47040138      -0.12823013       0.14401003
Si       0.76589373      -2.21667971       3.02741913      -0.03950273      -0.48596292      -0.14401003
8
Lattice="7.248641646162453 -0.6066177323664064 0.4076396441126671 -1.929782167208855 7.013325286540235 -0.40763964411266734 -2.673493469086387 -3.1916780449092172 3.7328749736098215" Properties=species:S:1:pos:R:3:forces:R:3 unique_starting_index=38 config_type=initial n_minim_iter=16 energy=-1299.97660216499 stress="0.0008698531231275048 0.001540023328382065 0.013161445917160718 -0.008821063730327035 0.010625205620013158 0.001790343789675927" pbc="T T T"
Si       3.74898025       3.86755177       1.21530694       0.75124457      -0.14005295      -0.02421503
Si       0.43835455       1.20482199       2.51756795      -0.27586751       0.71265725       0.02421503
Si      -1.10361463      -0.65252085       2.51756795      -0.75124457       0.14005295       0.02421503
Si       2.20701108       2.01020893       1.21530694       0.27586751      -0.71265725      -0.02421503
Si       2.28945125      -0.32266826       2.98527235       0.53992162       0.16359044      -0.14549104
Si       1.90701830       5.40604508       0.74760254       0.06147002       0.56080177       0.14549104
Si       0.35591437       3.53769918       0.74760254      -0.53992162      -0.16359044       0.14549104
Si       0.73834732      -2.19101416       2.98527235      -0.06147002      -0.56080177      -0.14549104
8
Lattice="7.240997189128708 -0.6132059839941666 0.355136301654861 -1.9348516366988529 7.004599275885796 -0.35513630165486165 -2.709656485128427 -3.148720754824827 3.6939210348187004" Properties=species:S:1:pos:R:3:forces:R:3 unique_starting_index=38 config_type=initial n_minim_iter=17 energy=-1300.0867358069315 stress="0.0022087159817837953 0.002619059847980749 0.01322624234563714 -0.008211459134295853 0.00989092069556989 0.0010962238956420131" pbc="T T T"
Si       3.73243081       3.86723896       1.19967651       0.83021425      -0.14823721      -0.03914474
Si       0.40492863       1.23145475       2.49424446      -0.29843998       0.78877344       0.03914474
Si      -1.13594213      -0.62456502       2.49424446      -0.83021425       0.14823721       0.03914474
Si       2.19156005       2.01121919       1.19967651       0.29843998      -0.78877344      -0.03914474
Si       2.25810820      -0.29708912       2.93792858       0.60666811       0.16371174      -0.11891854
Si       1.88905005       5.40758575       0.75599238       0.04931003       0.62643136       0.11891854
Si       0.33838048       3.53976306       0.75599238      -0.60666811      -0.16371174       0.11891854
Si       0.70743863      -2.16491181       2.93792858      -0.04931003      -0.62643136      -0.11891854
8
Lattice="7.216326051220812 -0.6177867859841635 0.27411010381320655 -1.934815554949919 6.97950649822669 -0.2741101038132072 -2.762179050864628 -3.0800536091284676 3.630664491634933" Properties=species:S:1:pos:R:3:forces:R:3 unique_starting_index=38 config_type=initial n_minim_iter=18 energy=-1300.295577033511 stress="0.003933270765362212 0.0027717924658053447 0.016515841643585376 -0.010299844130017836 0.012406435905153706 -0.0031028616391691995" pbc="T T T"
Si       3.70478282       3.86278749       1.17438530       1.02181723      -0.21868214       0.06565028
Si       0.35311691       1.27212686       2.45627914      -0.40293139       0.96414658      -0.06565028
Si      -1.18545176      -0.58111998       2.45627914      -1.02181723       0.21868214      -0.06565028
Si       2.16621414       2.00954064       1.17438530       0.40293139      -0.96414658       0.06565028
Si       2.20742135      -0.25624427       2.86253507       0.75586213       0.10215379       0.01231989
Si       1.86136490       5.40427172       0.76812937      -0.03864418       0.76175428      -0.01231989
Si       0.31190971       3.53791177       0.76812937      -0.75586213      -0.10215379      -0.01231989
Si       0.65796615      -2.12260422       2.86253507       0.03864419      -0.76175428       0.01231988
8
Lattice="7.1574524094398475 -0.5707913463052661 0.13896981464377103 -1.8777913567786877 6.930283354583739 -0.13896981464377206 -2.8665914910569334 -2.991488666576571 3.528950754948447" Properties=species:S:1:pos:R:3:forces:R:3 unique_starting_index=38 config_type=initial n_minim_iter=19 energy=-1300.537115442765 stress="-0.010598458790251297 -0.00897604865549042 -0.010909096397892773 -0.00031962406112306274 0.0003849956894090129 0.0043342301671512274" pbc="T T T"
Si       3.68249950       3.88679849       1.13341020       1.16857481      -0.37257910       0.42949175
Si       0.27640509       1.34320606       2.39554053      -0.58120037       1.08008722      -0.42949176
Si      -1.26943031      -0.51879375       2.39554053      -1.16857481       0.37257910      -0.42949176
Si       2.13666410       2.02479867       1.13341020       0.58120037      -1.08008722       0.42949176
Si       2.11902941      -0.17421039       2.74038025       0.85641037      -0.07351976       0.13535005
Si       1.85199807       5.41881727       0.78857048      -0.22981704       0.82826808      -0.13535005
Si       0.29403978       3.54221512       0.78857048      -0.85641037       0.07351976      -0.13535005
Si       0.56107112      -2.05081254       2.74038025       0.22981704      -0.82826808       0.13535005
8
Lattice="7.239858683497971 -0.6089084083451439 0.13844424086097432 -1.9304179624680082 7.004270818361836 -0.13844424086097498 -2.8869827321925 -3.004856590062975 3.569538134561455" Properties=species:S:1:pos:R:3:forces:R:3 unique_starting_index=38 config_type=initial n_minim_iter=20 energy=-1300.6012717291392 stress="0.018271341037965173 0.017984982498370022 0.014277814879485528 4.624325193448864e-05 -5.570122471861774e-05 -0.0007649999801589268" pbc="T T T"
Si       3.71700832       3.90193440       1.14825685       0.86056034      -0.20206495       0.24860596
Si       0.26454289       1.36654250       2.42128125      -0.35693171       0.80869902      -0.24860596
Si      -1.29455072      -0.51142717       2.42128125      -0.86056034       0.20206495      -0.24860596
Si       2.15791471       2.02396472       1.14825685       0.35693171      -0.80869902       0.24860596
Si       2.15019692      -0.18621939       2.77194649       0.60471078       0.04517258       0.12642289
Si       1.84384862       5.46974604       0.79759162      -0.06684584       0.60270002      -0.12642289
Si       0.27226068       3.57672661       0.79759162      -0.60471078      -0.04517258      -0.12642289
Si       0.57860898      -2.07923882       2.77194649       0.06684584      -0.60270002       0.12642289
8
Lattice="7.177696694388808 -0.6012008251872313 0.13750803873386638 -1.9114061142532885 6.944587744081065 -0.137508038733867 -2.863116901026022 -2.9807706379364114 3.5456513040734023" Properties=species:S:1:pos:R:3:forces:R:3 unique_starting_index=38 config_type=initial n_minim_iter=21 energy=-1300.6603553707216 stress="0.00035680064738390966 0.00010810663371202868 0.0002060967166660339 -0.0006349873956313567 0.0007648591808460057 -0.0006643801195153544" pbc="T T T"
Si       3.69044433       3.86891788       1.14109430       0.99194940      -0.25397919       0.26281244
Si       0.26084265       1.35844386       2.40455697      -0.43213128       0.92829500      -0.26281244
Si      -1.28727104      -0.50630021       2.40455697      -0.99194940       0.25397919      -0.26281244
Si       2.14233064       2.00417381       1.14109430       0.43213128      -0.92829500       0.26281244
Si       2.13442964      -0.18428631       2.75366521       0.73625620       0.05161033       0.13284995
Si       1.82936508       5.42671396       0.79198607      -0.08471812       0.73318460      -0.13284995
Si       0.26874365       3.54690398       0.79198607      -0.73625620      -0.05161033      -0.13284995
Si       0.57380821      -2.06409628       2.75366521       0.08471812      -0.73318460       0.13284995
8
Lattice="7.1763508030007275 -0.5990428337383401 0.13550494034569785 -1.9090373539605356 6.943661825403494 -0.1355049403456974 -2.865114638496599 -2.9801527430351618 3.545423838630039" Properties=species:S:1:pos:R:3:forces:R:3 unique_starting_index=38 config_type=initial n_minim_iter=22 energy=-1300.687290418871 stress="0.0013829856742945423 0.0013427765242185956 0.0006702123857146834 -0.0006439054853266409 0.0007756012837817521 -0.0001074176471794423" pbc="T T T"
Si       3.69460845       3.86861624       1.14140044       0.95110259      -0.25709729       0.25129100
Si       0.25778236       1.36309931       2.40402337      -0.42768164       0.88757173      -0.25129100
Si      -1.29241002      -0.50414860       2.40402337      -0.95110259       0.25709729      -0.25129100
Si       2.14441606       2.00136833       1.14140044       0.42768164      -0.88757173       0.25129100
Si       2.13571715      -0.18294158       2.75309881       0.71280383       0.05654917       0.13704249
Si       1.82947513       5.43007684       0.79232500      -0.07554909       0.71104110      -0.13704249
Si       0.26648128       3.54740922       0.79232500      -0.71280383      -0.05654917      -0.13704249
Si       0.57272329      -2.06560920       2.75309881       0.07554909      -0.71104110       0.13704249
8
Lattice="7.1618642651971705 -0.5966517395036248 0.12875940133512256 -1.904022011099082 6.929862425229746 -0.12875940133512048 -2.8651214489962413 -2.97051143492399 3.5423276537016846" Properties=species:S:1:pos:R:3:forces:R:3 unique_starting_index=38 config_type=initial n_minim_iter=23 energy=-1300.768485704739 stress="0.0010926205367299293 0.0013471643200791545 -5.7767390551596556e-06 -0.0006660603473871669 0.0008022873877106146 0.0006800076650289698" pbc="T T T"
Si       3.69914925       3.85791200       1.14154545       0.86547743      -0.25995525       0.21369358
Si       0.24641865       1.37523468       2.40078217      -0.41473854       0.80288222      -0.21369358
Si      -1.30642883      -0.49521136       2.40078217      -0.86547743       0.25995526      -0.21369358
Si       2.14630177       1.98746596       1.14154545       0.41473855      -0.80288222       0.21369358
Si       2.13656574      -0.17976410       2.74938206       0.67208324       0.08437303       0.14804518
Si       1.82296426       5.42972850       0.79294557      -0.04070883       0.67613422      -0.14804518
Si       0.25615469       3.54246474       0.79294557      -0.67208324      -0.08437303      -0.14804518