24
Lattice="4.657100023430856 0.049472745122197605 0.8867989674657638 -2.043605026418777 11.989279274820575 0.24347356924958907 0.6917740850391327 -3.516116934847889 9.6860446670828" Properties=species:S:1:pos:R:3:forces:R:3 unique_starting_index=438 config_type=initial n_minim_iter=1 energy=-3899.977269683021 stress="0.0006328640152666463 -0.0014796619528034593 -0.0011500676857048087 -0.0014796619528034593 -0.001485691593123874 -0.0009207505338792304 -0.0011500676857048087 -0.0009207505338792304 -0.002085222467644693" free_energy=-3899.977269683021 pbc="T T T"
Si       1.56413785      -2.33099616       8.35902611       0.13397511      -0.25828642      -0.01814336
Si       3.92957839      -2.40889293       9.83575597       0.13966271       0.30137838       0.13504754
Si       0.84659424       0.06696171       9.46279825       0.05690012       0.07867261      -0.11222027
Si       1.78411100       5.82015489       4.47184379      -0.17489798       0.13200956       0.10382134
Si       3.63985346      -0.19644048       8.58047872       0.09175032      -0.07400638       0.49548271
Si       2.14326899       6.53605037       2.27189870       0.04403157       0.09292657      -0.06026742
Si       2.17348456       2.16661741       5.49758265       0.53546859      -0.08644218       0.33966512
Si       0.83467586       2.58955135       3.65822149      -0.27580122       0.34292660      -0.35236595
Si       0.54453133       2.98039287       7.00671858      -0.08706235      -0.03832867      -0.10326498
Si       3.89960050       3.93965727       6.05304074      -0.11241084      -0.13244519      -0.25162252
Si       0.57815741       7.72482050       9.72669565      -0.02732561      -0.99400955      -0.52504223
Si       3.95092049       1.10133636       6.66597663       0.09091059       0.01403153      -0.28720424
Si       3.04556701       4.07460371       2.46154906      -0.22550148      -0.00160118      -0.14592649
Si       1.06057790      -0.10386387       4.47856384       0.02674938       0.27745330       0.13279955
Si       1.55605406      -0.22119222       6.98867041      -0.02880038      -0.26656736       0.00900412
Si       0.39164746       6.02193549       7.99763715      -0.44044503       0.10835189       0.12094554
Si       1.74289453       3.42826844       9.83711365      -0.07172560      -0.09268387      -0.11874923
Si      -0.59343540       4.42459633       9.52749367       0.08921307      -0.00907947      -0.05048925
Si       3.80418163       9.46192735       5.00185701       0.22151385       0.30004391       0.07067906
Si       2.36518679       4.58290557       7.79985827       0.08023702       0.12867100       0.39415010
Si       1.60847331       2.35739890       1.30750670      -0.01516545       0.20749417       0.31134473
Si      -1.18923800      10.75383446       2.12370019      -0.00505028      -0.03279997      -0.00496626
Si       1.59575502       8.32264271       4.21567100      -0.06470875      -0.18085860      -0.25626360
Si      -0.18545126       0.83477532       2.40594913       0.01848263       0.18314930       0.17358600
24
Lattice="4.652046313615376 0.07107816915089951 0.9069539958056044 -1.9900460793095576 12.031078178097003 0.26915152616001836 0.7070934446813889 -3.502930979402879 9.735394235603057" Properties=species:S:1:pos:R:3:forces:R:3 unique_starting_index=438 config_type=initial n_minim_iter=2 energy=-3900.0002379461166 stress="0.002742427977032458 0.0009400444362425828 0.0004380687448850674 0.0009400444362425828 0.003024052206211908 -9.32232736799931e-05 0.0004380687448850674 -9.32232736799931e-05 0.002153971970895222" free_energy=-3900.0002379461166 pbc="T T T"
Si       1.57924045      -2.31405316       8.40641880       0.17758053      -0.22224638      -0.01784577
Si       3.94501443      -2.37590723       9.89986338       0.00391011       0.14670076       0.08628212
Si       0.87593234       0.09542395       9.51998048       0.09620879       0.02976401      -0.14946928
Si       1.81832010       5.86370051       4.51895943      -0.21685376       0.14683245       0.02697553
Si       3.66062034      -0.16063457       8.64390076       0.08982734       0.01295511       0.47415274
Si       2.17386939       6.57818212       2.30840773       0.00719757       0.08303378      -0.06236248
Si       2.19889706       2.19819572       5.54372038       0.48530019      -0.09781963       0.24053642
Si       0.85415356       2.61482112       3.68695454      -0.20350984       0.22615450      -0.32518155
Si       0.57777435       3.01275005       7.05621810      -0.08866943      -0.02241073      -0.11790795
Si       3.92777212       3.98682408       6.10943753      -0.13023263      -0.16432120      -0.25768794
Si       0.63979352       7.77903512       9.80209595       0.02852699      -0.88822366      -0.53757012
Si       3.97034145       1.13930583       6.71862422       0.09788628       0.00503540      -0.20446439
Si       3.06372788       4.11026259       2.49527544      -0.22853644      -0.01411831      -0.13678044
Si       1.07276706      -0.08701556       4.50834161       0.02418798       0.21880313       0.12966214
Si       1.57462834      -0.19912572       7.03364605       0.00363974      -0.20474211       0.05429615
Si       0.43902620       6.06952855       8.06134990      -0.46450396       0.18447382       0.18558912
Si       1.78501765       3.47439128       9.90792817       0.00087831      -0.09886423      -0.04262886
Si      -0.54333222       4.46488027       9.59195716       0.07465458       0.02181509       0.01482476
Si       3.85354312       9.53105011       5.06769708       0.09445536       0.28750535      -0.04028299
Si       2.40524227       4.63226332       7.86644080       0.06356771       0.05020948       0.37002130
Si       1.61947021       2.37817072       1.32787991      -0.02006669       0.26039753       0.33904980
Si      -1.13625311      10.79869643       2.15981311       0.01864375      -0.04748087       0.00776790
Si       1.64029494       8.37350326       4.26528432       0.03049102      -0.14977816      -0.28822200
Si      -0.17391087       0.84458260       2.42234322       0.05541652       0.23632487       0.25124582
24
Lattice="4.606473642458965 0.08628014405745206 0.9218114488796462 -1.9369622965169841 11.984489953756077 0.307603331099353 0.7189348450583213 -3.453152048129605 9.73688584024683" Properties=species:S:1:pos:R:3:forces:R:3 unique_starting_index=438 config_type=initial n_minim_iter=3 energy=-3900.0287758150735 stress="-0.0037580316103677865 0.003074796655445991 0.0009562800943878803 0.003074796655445991 -0.0012773343919077272 0.0008638067059204308 0.0009562800943878803 0.0008638067059204308 -0.0012991036561698652" free_energy=-3900.0287758150735 pbc="T T T"
Si       1.58306391      -2.27397769       8.41287328       0.27251308      -0.28485819      -0.11126699
Si       3.92758538      -2.31820747       9.91645288      -0.11275238      -0.01029566       0.09172672
Si       0.89572201       0.13286786       9.53324445       0.04944511       0.13031926      -0.10998193
Si       1.82568002       5.86598280       4.55212028      -0.22869264       0.18617196       0.09700755
Si       3.64845345      -0.11928955       8.67071640       0.05894374       0.06832514       0.48721504
Si       2.17559150       6.57019484       2.34084253       0.05478909       0.07577519      -0.04807692
Si       2.20412401       2.21542284       5.56871385       0.40001009      -0.06537464       0.02179749
Si       0.85996592       2.62480165       3.69942328      -0.12525709       0.22136975      -0.27795023
Si       0.59919103       3.02904488       7.07637610      -0.13914361       0.02226739      -0.01142177
Si       3.91371218       4.00354416       6.13986692      -0.12329929      -0.07629791      -0.27172621
Si       0.68197997       7.77757439       9.83803001       0.11849999      -0.83556776      -0.44979266
Si       3.95272416       1.17032500       6.73964251       0.12443286       0.00086441      -0.10643454
Si       3.04718952       4.11277602       2.52050036      -0.24395327      -0.01620031      -0.13571299
Si       1.07487079      -0.06435554       4.51842145       0.04576322       0.22596122       0.08983081
Si       1.57804481      -0.17150503       7.04664056       0.08111802      -0.25044802      -0.03685742
Si       0.46853488       6.08046643       8.09667925      -0.50102917       0.20536538       0.08303821
Si       1.80397907       3.50186339       9.93714857       0.06130180      -0.19408393       0.00709342
Si      -0.49698526       4.48286967       9.61845306      -0.00007371       0.06804465       0.01880421
Si       3.85526335       9.52965681       5.12026116      -0.06606521       0.21246391      -0.05505322
Si       2.41624078       4.65216278       7.90487732       0.11677797       0.03605830       0.33601170
Si       1.61258421       2.38171281       1.34689101      -0.03143540       0.24019357       0.38857444
Si      -1.08971251      10.76511165       2.19862033      -0.04159529      -0.07449009      -0.03083524
Si       1.65734737       8.36182363       4.30258682       0.19951475      -0.18091577      -0.25902351
Si      -0.16235753       0.85255115       2.43053549       0.03018736       0.29535217       0.28303403
24
Lattice="4.581313144834956 0.04724192958864618 0.9400246657887538 -2.03488067608548 11.981452911777255 0.35719567489223264 0.7669624281445514 -3.4112746454772536 9.81641968443636" Properties=species:S:1:pos:R:3:forces:R:3 unique_starting_index=438 config_type=initial n_minim_iter=4 energy=-3900.110348144107 stress="-0.0017811369607077204 -0.0009724039518880064 0.00125969805369872 -0.0009724039518880064 -0.0004634614825487222 0.0010843541128632889 0.00125969805369872 0.0010843541128632889 0.0025138722526537437" free_energy=-3900.110348144107 pbc="T T T"
Si       1.61930787      -2.25765675       8.48484888       0.40555117      -0.25788822      -0.14873089
Si       3.94852065      -2.30093699      10.01304915      -0.33978639      -0.10183457       0.13560265
Si       0.91199120       0.16829434       9.62155811       0.11393458       0.10561470      -0.06994165
Si       1.76373626       5.86344756       4.62668602      -0.23764212       0.19577168       0.00407957
Si       3.65028180      -0.11564633       8.77874938       0.06134557       0.17514030       0.34760370
Si       2.10924490       6.55100805       2.39289623      -0.06056961       0.03009905       0.08627691
Si       2.20110178       2.21174086       5.64435505      -0.02414427      -0.07176659      -0.24166350
Si       0.83075199       2.63811492       3.73486910       0.02351059       0.21864133       0.08987909
Si       0.57924383       3.04768782       7.15429971      -0.07218406      -0.00765487      -0.16302129
Si       3.86309043       3.98116687       6.21276591      -0.03078148       0.05368171      -0.12052293
Si       0.62847622       7.76416733       9.94558525       0.05532843      -0.45601216      -0.09884267
Si       3.93733609       1.16070809       6.80823953       0.16282710      -0.18277912       0.02614683
Si       2.98885504       4.08720890       2.56229130      -0.22877194       0.05372128      -0.13392846
Si       1.08003378      -0.04534886       4.56808500       0.09577038       0.14792498       0.10314552
Si       1.58579528      -0.16454016       7.11648062       0.10630065      -0.23342276      -0.11413342
Si       0.41020521       6.10579655       8.20531714      -0.38135682       0.10147314      -0.18581494
Si       1.78202584       3.51696487      10.04755641       0.04589536      -0.24753483       0.20050194
Si      -0.51253573       4.52148272       9.72748565      -0.00286568       0.02315469       0.18223720
Si       3.76090054       9.50850847       5.21698411      -0.03649612       0.13998331      -0.10910699
Si       2.37980022       4.65837550       8.01890287       0.10226692       0.11009948       0.16795812
Si       1.58380265       2.37709300       1.38615601       0.01004633       0.09552990       0.12292900
Si      -1.17755214      10.76282606       2.26244182      -0.03835360       0.01861011       0.03528979
Si       1.58152193       8.34281291       4.37161100       0.14187371       0.00201045      -0.35437848
Si      -0.16274332       0.87175815       2.46583065       0.12830126       0.08743701       0.23843487
24
Lattice="4.597413308466567 0.06202334849246976 0.9089088915593295 -2.001828301197294 12.00786191721455 0.3363404110062802 0.7084879275583185 -3.4423629553070922 9.739328166707919" Properties=species:S:1:pos:R:3:forces:R:3 unique_starting_index=438 config_type=initial n_minim_iter=5 energy=-3900.171884418905 stress="0.0002633211776355524 -6.216703810578435e-05 -0.0001226444660481252 -6.216703810578435e-05 -0.0004096844778307521 0.0004852622388825424 -0.0001226444660481252 0.0004852622388825424 -0.0009756073438839637" free_energy=-3900.171884418905 pbc="T T T"
Si       1.58621802      -2.29047351       8.40851270       0.29549326      -0.28749653      -0.04696738
Si       3.90468455      -2.31267268       9.92097127      -0.30711525      -0.32032876       0.00596368
Si       0.87187461       0.15228960       9.53204875       0.06871421       0.13624424      -0.02507543
Si       1.76070436       5.88298552       4.56823576      -0.20544594       0.14240312       0.05908433
Si       3.62571880      -0.12198384       8.70834939       0.02155530       0.24383372       0.15219558
Si       2.13109936       6.57515839       2.34627559      -0.02094545       0.03020125       0.10464748
Si       2.20592685       2.20886547       5.58598508      -0.24255664       0.05509544      -0.27905240
Si       0.81866136       2.65150186       3.68422784       0.06593382       0.26966937       0.22154706
Si       0.55302777       3.04031691       7.07983610       0.02206986      -0.02678541      -0.12192398
Si       3.85962424       3.98817311       6.12239349      -0.11011765       0.09609817      -0.08055048
Si       0.61089005       7.72877433       9.82346149       0.16774785       0.08896331       0.34797965
Si       3.93027297       1.15980622       6.72228206       0.21883284      -0.27383150       0.26631367
Si       2.99426762       4.10420006       2.50988650      -0.09723825       0.13248661      -0.09498448
Si       1.06395888      -0.04268966       4.53042533       0.11709483       0.06403699       0.04435616
Si       1.55793498      -0.18745226       7.04875809       0.11265505      -0.25374946      -0.02229163
Si       0.37390515       6.11112668       8.12273908      -0.35331745      -0.30802996      -0.47280854
Si       1.75230669       3.50230533       9.94745323      -0.02040904      -0.22628634       0.00327523
Si      -0.54507468       4.50978856       9.64090356       0.00600442       0.03873175       0.07436191
Si       3.79001610       9.54803792       5.13134051      -0.01730085       0.06381415      -0.11228723
Si       2.37126141       4.66544271       7.94396842       0.06827598       0.18907043       0.11599586
Si       1.59231066       2.39526235       1.37364901       0.02230127      -0.03316652       0.00233061
Si      -1.15532971      10.78299209       2.22461010      -0.05471932       0.09778478      -0.12259020
Si       1.59953324       8.35659294       4.29433725       0.13436804       0.12161383      -0.15322609
Si      -0.16991600       0.87606213       2.45464493       0.10811913      -0.04037269       0.13370662
24
Lattice="4.5523137427297184 0.06011001553486772 0.9046145194603594 -1.9676321253463163 12.029086029231399 0.2324562389801263 0.6762597625792927 -3.5380674207795595 9.83941608447261" Properties=species:S:1:pos:R:3:forces:R:3 unique_starting_index=438 config_type=initial n_minim_iter=6 energy=-3900.2180642876956 stress="0.0012009805683422616 0.00038113478267339857 0.00026580806004404973 0.00038113478267339857 -0.0007880451983478488 -0.005004820067469071 0.00026580806004404973 -0.005004820067469071 0.003069210286881485" free_energy=-3900.2180642876956 pbc="T T T"
Si       1.56989611      -2.39173748       8.48194469       0.27965035      -0.22776451      -0.10693347
Si       3.83193195      -2.40772969      10.01049315      -0.25108196      -0.34095666      -0.17902823
Si       0.84932791       0.07493456       9.59074422       0.12400298       0.14458219       0.02818858
Si       1.72603117       5.86917536       4.54756448      -0.14267987       0.21164458      -0.10274058
Si       3.57730471      -0.18742340       8.79148148      -0.01805378       0.26119189      -0.11225026
Si       2.11470541       6.57600986       2.29992085      -0.01715929      -0.07869566       0.17921119
Si       2.18620501       2.16352906       5.59819767      -0.29690721      -0.04480096      -0.40403105
Si       0.80090588       2.64650028       3.68030573       0.19662510       0.30213924       0.31489076
Si       0.53304511       2.98143184       7.09190916      -0.01315036      -0.00676989      -0.12705706
Si       3.80724304       3.94501931       6.10709325      -0.09358862       0.19046009       0.02662716
Si       0.60073323       7.62051654       9.81202558       0.08212098       0.32599537       0.70487614
Si       3.89257022       1.09586376       6.75169273      -0.02328798      -0.30273196       0.59101051
Si       2.95237167       4.09905329       2.47332578      -0.04109830       0.23395227      -0.03841927
Si       1.04995285      -0.06973499       4.56840699       0.22171011       0.00499527      -0.04262717
Si       1.53252101      -0.26993031       7.09627481       0.10349191      -0.37216116       0.05913970
Si       0.32921000       6.04787390       8.11121973      -0.39606646      -0.55105905      -0.55887497
Si       1.71819914       3.40745180       9.98238875       0.08505545      -0.19000376      -0.11564930
Si      -0.55195410       4.43335572       9.67379647      -0.01528920       0.10016982       0.04770175
Si       3.75969757       9.54194196       5.06690903      -0.04646193       0.18380440      -0.23965293
Si       2.34434847       4.61713946       7.97278668       0.11738227       0.14907011       0.16246044
Si       1.57777039       2.39908234       1.37214312      -0.12000861      -0.08187442      -0.07518993
Si      -1.13698109      10.78700803       2.13986348       0.03539056       0.02360022      -0.08634445
Si       1.59270016       8.33595805       4.22522676       0.09695486       0.19500170      -0.04554367
Si      -0.16629830       0.86353272       2.48025671       0.13244901      -0.12978911       0.12023610
24
Lattice="4.4616099782652325 0.057745753213102456 0.8765916390671885 -1.9534422118299104 12.199067905753564 0.31782025401107833 0.6059503417289175 -3.530146128807967 9.840748692427244" Properties=species:S:1:pos:R:3:forces:R:3 unique_starting_index=438 config_type=initial n_minim_iter=7 energy=-3900.3466253236875 stress="0.004276164587074121 -0.000835749717175156 -0.0012198386604450212 -0.000835749717175156 0.005591414344493123 -0.0014120844909284729 -0.0012198386604450212 -0.0014120844909284729 0.0032309073278191662" free_energy=-3900.3466253236875 pbc="T T T"
Si       1.53335207      -2.42593191       8.46895988       0.13330904      -0.12721704      -0.08754142
Si       3.67309091      -2.40301784      10.00773676      -0.09967495      -0.33287483      -0.29376923
Si       0.78446640       0.14953046       9.59872636       0.23528778       0.20479190       0.18036902
Si       1.61948748       6.00146442       4.59255767      -0.04008272       0.25314442      -0.16693094
Si       3.46270981      -0.12183564       8.84677048      -0.23413812       0.19266864      -0.29226495
Si       2.04856188       6.68465284       2.33756264      -0.02911169      -0.17750140       0.43427256
Si       2.12270388       2.21670716       5.60092836      -0.47233130      -0.02336140      -0.35398701
Si       0.74797484       2.75163253       3.69616182       0.19265783       0.29580636       0.23165331
Si       0.46446074       3.05892636       7.10444220       0.11148035      -0.08671174      -0.09744453
Si       3.67223537       4.02683264       6.09278426      -0.16061146       0.34693846       0.14341140
Si       0.52696586       7.70747103       9.86798411      -0.05919911       0.50593218       0.82402020
Si       3.79930958       1.11761011       6.75786285      -0.13120809      -0.35934724       0.83405161
Si       2.84561109       4.17611777       2.46322012       0.05786340       0.42241501       0.01208422
Si       1.01479551      -0.01834655       4.58848087       0.34731821      -0.36388124      -0.23030745
Si       1.46922534      -0.28079789       7.10092940       0.19657800      -0.46211069       0.13747783
Si       0.19091893       6.16472544       8.13456971      -0.26837106      -0.41796919      -0.46723198
Si       1.61454082       3.47696860      10.01653522       0.09643807      -0.27933214      -0.21081333
Si      -0.60706543       4.55770993       9.73941581      -0.09060482       0.16083980      -0.01401856
Si       3.64669932       9.72687533       5.09951015      -0.11392785       0.17897112      -0.27212121
Si       2.25456199       4.74692090       8.04974633       0.11913421       0.25618546      -0.03981864
Si       1.53437830       2.45488107       1.40861241      -0.11365492      -0.34283912      -0.32769080
Si      -1.15274838      10.95332848       2.20838537      -0.04935313       0.18678660      -0.12076894
Si       1.53556816       8.46884586       4.23453079       0.08452948       0.32366571       0.12553924
Si      -0.16724088       0.90631541       2.52747984       0.28767286      -0.35499964       0.05182959
24
Lattice="4.403714602266359 0.06450607834035564 0.8931303224717754 -1.916563918047813 12.156914056239502 0.3558593188613539 0.6213235264412095 -3.4828177029171665 9.866050803226962" Properties=species:S:1:pos:R:3:forces:R:3 unique_starting_index=438 config_type=initial n_minim_iter=8 energy=-3900.4926291471816 stress="0.0033789253606097175 -0.0009651430231740577 0.0011873299461617332 -0.0009651430231740577 0.003805516750379425 -0.00042478411390630083 0.0011873299461617332 -0.00042478411390630083 0.001417803790418305" free_energy=-3900.4926291471816 pbc="T T T"
Si       1.57436984      -2.43146920       8.48357273      -0.05782288      -0.05384378      -0.07337984
Si       3.62083191      -2.37776500      10.05086399       0.21629867      -0.22852106      -0.37490627
Si       0.81372339       0.20460446       9.62896741       0.30780069       0.28399531       0.29578003
Si       1.58399974       6.02733180       4.64187467       0.01252835       0.22397714      -0.04552398
Si       3.44367737      -0.06178008       8.93294412      -0.38686194       0.06042401      -0.38728651
Si       2.03168859       6.67698341       2.38896882      -0.06119525      -0.20553664       0.31572784
Si       2.11433732       2.22707909       5.61559416      -0.26322805      -0.16177267      -0.28514791
Si       0.74632331       2.80313005       3.72522994       0.23655457       0.25841363       0.10742802
Si       0.47499051       3.06943127       7.12310362       0.03073531      -0.06710025       0.02176037
Si       3.62490847       4.04426967       6.11779819      -0.21489102       0.50081579       0.28064007
Si       0.56549750       7.66613172       9.94005687      -0.24751882       0.30137786       0.58246811
Si       3.78809926       1.11157288       6.81991690      -0.51334312      -0.20043102       0.84620771
Si       2.79356707       4.19033048       2.47689384       0.15491785       0.46551852       0.07747813
Si       1.03053754       0.01659991       4.61734363       0.47641267      -0.48724455      -0.32767192
Si       1.48129877      -0.30081557       7.12804166       0.31445335      -0.48033477       0.10985701
Si       0.15232537       6.15221596       8.14528988       0.00200612      -0.04664166      -0.31273770
Si       1.62287429       3.46757651      10.06629196       0.07647275      -0.37267214      -0.14832676
Si      -0.56683008       4.58387855       9.79763758      -0.07757371       0.05190953      -0.01103999
Si       3.62101825       9.74250937       5.14752827      -0.14842171       0.06124203      -0.28713008
Si       2.26319366       4.78698109       8.13814041       0.13155505       0.25937999      -0.21495409
Si       1.51763651       2.46130628       1.44581613      -0.19271067      -0.44802181      -0.42183498
Si      -1.12797941      10.92967260       2.24044871      -0.11027565       0.16677766      -0.08885534
Si       1.54828788       8.45966715       4.25073088       0.06129542       0.44203823       0.28575295
Si      -0.14175124       0.91972260       2.56978982       0.25281202      -0.32374936       0.05569515
24
Lattice="4.321891083160487 0.08789870437479476 0.8488010053554116 -1.835317989788867 12.076344181128398 0.4263355656232306 0.4823781113279554 -3.422985334002874 9.951630830901331" Properties=species:S:1:pos:R:3:forces:R:3 unique_starting_index=438 config_type=initial n_minim_iter=9 energy=-3900.6332555944805 stress="0.0019422843108276287 5.1343432899399805e-05 -0.0033049100649520592 5.1343432899399805e-05 0.0023885965482101992 0.0013778447646042055 -0.0033049100649520592 0.0013778447646042055 0.003259719217443589" free_energy=-3900.6332555944805 pbc="T T T"
Si       1.47777638      -2.42099439       8.53281547      -0.36263997      -0.01064166      -0.16304219
Si       3.41032821      -2.33890370      10.10262765       0.60738719       0.09057225      -0.29465191
Si       0.70708933       0.26706437       9.72148729       0.32438240       0.55812149       0.45468066
Si       1.50417583       6.04466850       4.70037854       0.07549448       0.18983922       0.00590555
Si       3.28257805       0.01399319       9.01758658      -0.51337835      -0.10968054      -0.36871062
Si       1.99880752       6.65641215       2.43141326      -0.10306095      -0.25461131       0.34003596
Si       2.01865925       2.23935748       5.62851329      -0.08072776      -0.15647309       0.05145764
Si       0.70685599       2.85025340       3.77736898       0.07434900       0.42901872      -0.45659896
Si       0.39606364       3.07437396       7.18731255       0.11748217      -0.09038328       0.00874209
Si       3.49561001       4.07536667       6.13938202      -0.25420389       0.65348595       0.20582725
Si       0.48615412       7.62849971      10.09183446      -0.48019180      -0.26598559       0.30951508
Si       3.66539062       1.11571561       6.88887117      -0.47743499      -0.25406701       0.70549056
Si       2.72067875       4.21096756       2.46921713       0.20003460       0.35491889       0.07412627
Si       0.98327746       0.04584381       4.65636523       0.35684647      -0.36279948      -0.16444590
Si       1.39092368      -0.31632695       7.18315472       0.31116636      -0.52681565       0.11795115
Si       0.02908301       6.12134228       8.20292004       0.14466536       0.40354498       0.04258374
Si       1.49759498       3.45273838      10.16157585       0.08519508      -0.35640818      -0.20881937
Si      -0.64933129       4.59740006       9.93449629      -0.08181024      -0.04167088      -0.00364110
Si       3.54484203       9.74257957       5.17301727      -0.00604329       0.00535890      -0.33595539
Si       2.16811242       4.82694234       8.24127266       0.13774939       0.01986213      -0.27042423
Si       1.48331321       2.45712873       1.45918652      -0.22398755      -0.52810903      -0.20920226
Si      -1.09346911      10.87667077       2.30437503      -0.12762165       0.19243928      -0.16775556
Si       1.52849627       8.44440514       4.28231573       0.02593130       0.15488220       0.35211493
Si      -0.14766393       0.92328944       2.63013033       0.25041664      -0.09439831      -0.02518340
24
Lattice="4.266366100771632 0.08757139640454714 0.8880744769295662 -1.8007644148653752 12.035399320687667 0.3814721832083168 0.5680254847363571 -3.429360747824267 9.889149627821483" Properties=species:S:1:pos:R:3:forces:R:3 unique_starting_index=438 config_type=initial n_minim_iter=10 energy=-3900.7863677270593 stress="0.0009657550904173536 3.1534053813679566e-05 0.0021104006817963443 3.1534053813679566e-05 0.0008340286028481668 0.0015627505209936368 0.0021104006817963443 0.0015627505209936368 -0.004438374793704761" free_energy=-3900.7863677270593 pbc="T T T"
Si       1.56701188      -2.47010107       8.47292812      -0.48829096      -0.00187271      -0.22656516
Si       3.43702322      -2.38177216      10.05597606       0.88596132       0.29957379      -0.22357357
Si       0.80962402       0.28592000       9.66663931       0.22583056       0.70256395       0.50863997
Si       1.50318093       6.04964250       4.67700707       0.04537525       0.10466039       0.35152342
Si       3.30788793       0.02569482       9.00295372      -0.44745482      -0.35021278       0.08384624
Si       1.99037190       6.62615793       2.44840900      -0.13390715      -0.27645431      -0.05989890
Si       2.02689000       2.21561017       5.56824027       0.64101067      -0.36067300       0.29438342
Si       0.74175450       2.88854575       3.76136543       0.07556253       0.48338398      -0.72895320
Si       0.45807501       3.04556866       7.11676998      -0.20034880       0.04637379       0.22017461
Si       3.48171675       4.08506542       6.11768802      -0.38697400       0.62242032       0.24200940
Si       0.57948699       7.56415523      10.05159470      -0.43178464      -0.63876038      -0.35443033
Si       3.67967141       1.06254369       6.93519320      -0.65140759       0.06842743       0.00303184
Si       2.69347294       4.22656724       2.46010764       0.15313035       0.08700653       0.10834765
Si       1.04256206       0.03519802       4.62846881       0.35104744      -0.30453170      -0.11117715
Si       1.46137312      -0.38818914       7.14488642       0.46701390      -0.54688840      -0.05557900