20
Lattice="6.915078934762754 -0.27528567268311654 0.5132563063647634 -2.3544758460555983 5.233523412426468 1.8669073860116752 -2.2853534977719114 -1.0721765464981279 9.615290177393348" Properties=species:S:1:pos:R:3:forces:R:3 unique_starting_index=76 config_type=initial n_minim_iter=1 energy=-3256.234382972767 stress="-0.002386631289185334 -0.0003949896525396001 -0.00028186982438812983 -0.0003949896525396001 -0.00100711588551102 -0.0006750093335567684 -0.00028186982438812983 -0.0006750093335567684 0.0004104793915737983" free_energy=-3256.234382972767 pbc="T T T"
Si       3.57102036       0.13857764       8.08443917      -0.07534396       0.02065792       0.05789064
Si      -2.80397893      -0.38948060       9.78100529       0.05909913       0.00824750      -0.04484371
Si       3.27395696      -0.13739998       2.32755395      -0.02615073       0.00881091      -0.03629568
Si      -1.58691660       2.25474764       3.50732497      -0.04061173      -0.11418492      -0.13152267
Si       3.33033841       2.62802524       0.72766356       0.03501288      -0.01504455       0.02247543
Si       2.19586986       2.11438062       8.26314698       0.06140139      -0.02220276      -0.07324162
Si      -3.24831077       4.22009571       7.71373024       0.04028848      -0.08447558      -0.06419219
Si      -0.98593098       0.93114985       7.25165425      -0.00819759      -0.04849496       0.08177251
Si       4.94823257      -0.35907490       4.31070371      -0.01461575       0.00811120      -0.07925156
Si      -0.46796460      -0.07431781       9.39920739       0.11867944       0.07455977       0.12357630
Si       2.83418762      -0.09188162       5.45110683      -0.06752475      -0.16727450      -0.04492423
Si       2.47462569       3.78754428       2.73210628      -0.02068289       0.03659613       0.03221147
Si       1.37394578       1.65123075       6.09052610       0.03082799       0.00106120      -0.05206386
Si      -1.18566889       3.35250395       7.03610543       0.20168356      -0.05911753      -0.04618739
Si      -1.32349427       2.61969690       1.18030079      -0.12976814      -0.05533865       0.18013299
Si      -0.05353786       3.13114171       4.95869345      -0.08903558       0.00396378       0.15580208
Si       1.68362312       1.42766142       3.40275366      -0.00610541       0.06812020      -0.14260262
Si       3.26707472       2.87179400       4.80336986      -0.01742299       0.11658469      -0.03902174
Si       0.06900778       3.46118044       9.16921945      -0.02837641       0.14906494       0.08062775
Si      -2.17697838       3.28566239      10.03790950      -0.02315694       0.07035520       0.01965808
20
Lattice="6.937450475810413 -0.2714944395528942 0.5153583035802619 -2.3585657901466095 5.2410919195144405 1.8697486102015413 -2.2896373707250355 -1.0660896272476224 9.608117393881876" Properties=species:S:1:pos:R:3:forces:R:3 unique_starting_index=76 config_type=initial n_minim_iter=2 energy=-3256.2371050092197 stress="0.0008075690856488442 -5.6257368884597354e-05 -0.00033574245756153053 -5.6257368884597354e-05 0.0014687347819390653 -8.746746660712835e-05 -0.00033574245756153053 -8.746746660712835e-05 0.0012731813733597229" free_energy=-3256.2371050092197 pbc="T T T"
Si       3.58542534       0.14812537       8.08166602      -0.06250119       0.01686724       0.03921438
Si      -2.80928895      -0.38255987       9.77399950       0.07092741       0.01571491      -0.03265832
Si       3.28524271      -0.13368107       2.32725410      -0.02467106       0.00419872      -0.02835063
Si      -1.58964755       2.25974275       3.50634637      -0.04047007      -0.09811284      -0.06295809
Si       3.34290242       2.63399194       0.73101072       0.03337153      -0.02754583       0.01232883
Si       2.20746875       2.12588655       8.26106642       0.08736099      -0.00849420      -0.07911184
Si      -3.25344870       4.23082480       7.71183123       0.05206002      -0.10208090      -0.05805931
Si      -0.98588068       0.93832371       7.24841543      -0.03298707      -0.05226871       0.06572474
Si       4.96560377      -0.35295661       4.30958309      -0.03130705       0.01928418      -0.07345799
Si      -0.46548866      -0.06582009       9.39421570       0.10332635       0.06595547       0.12972963
Si       2.84511504      -0.08614124       5.44891881      -0.06603581      -0.16523124      -0.05372957
Si       2.48560477       3.79665159       2.73511095      -0.00400447       0.04787039       0.03409916
Si       1.38170147       1.65977164       6.08899108       0.03959691      -0.00562480      -0.06399267
Si      -1.18427025       3.36263147       7.03464403       0.17947350      -0.05143401      -0.02788212
Si      -1.32639822       2.62342694       1.18219877      -0.11508199      -0.05105749       0.13384021
Si      -0.05047612       3.13991309       4.95936039      -0.10179217      -0.00605423       0.10989440
Si       1.69109653       1.43386100       3.40228559       0.00776496       0.06879353      -0.12609226
Si       3.28092435       2.88226400       4.80443120      -0.02174597       0.09146500      -0.03656863
Si       0.07447320       3.47484509       9.16762498      -0.04309964       0.16733852       0.09201682
Si      -2.17850677       3.29838679      10.03459128      -0.03018516       0.07041631       0.02601325
20
Lattice="6.947302530792547 -0.2664971928044451 0.5203632266837626 -2.3569017571504878 5.233406270707789 1.8671725907176802 -2.284008891768894 -1.0563325690797027 9.576973170491609" Properties=species:S:1:pos:R:3:forces:R:3 unique_starting_index=76 config_type=initial n_minim_iter=3 energy=-3256.2395724760995 stress="0.0004784068283620412 0.0002602801123548245 2.403576700784012e-05 0.0002602801123548245 -0.00033609736124483227 0.00041749933677138416 2.403576700784012e-05 0.00041749933677138416 -0.0014543533040321478" free_energy=-3256.2395724760995 pbc="T T T"
Si       3.59774729       0.15809831       8.06226454      -0.04017341       0.02199975       0.00979710
Si      -2.80324319      -0.37389727       9.74222273       0.09934280      -0.01480360      -0.00792024
Si       3.29172477      -0.12920887       2.32331099      -0.01995596       0.02721599      -0.04457862
Si      -1.58742519       2.25785675       3.49608280      -0.02583514      -0.07050138       0.02312196
Si       3.35003144       2.63238827       0.73487570       0.04213307      -0.05030477       0.01845605
Si       2.22047228       2.13188109       8.24069950       0.09814073       0.00908474      -0.07790758
Si      -3.24748870       4.22911533       7.68993441       0.06403382      -0.10803943      -0.05530295
Si      -0.97979708       0.94298194       7.22796294      -0.05447050      -0.04131301       0.03507733
Si       4.97620125      -0.34513493       4.30093992      -0.03149944       0.00292884      -0.07180173
Si      -0.45604544      -0.05616316       9.36753441       0.08398840       0.06398461       0.18249499
Si       2.85371632      -0.08039713       5.43537660      -0.04584781      -0.16539811      -0.05625935
Si       2.49381832       3.79527149       2.73361476      -0.00595174       0.06126261       0.01521219
Si       1.39082664       1.66396293       6.07380803       0.03279848      -0.01079645      -0.05745695
Si      -1.17543978       3.36316731       7.01609458       0.13752333      -0.03213107       0.00195311
Si      -1.32655704       2.61928944       1.18133743      -0.11710173      -0.01914975       0.07356798
Si      -0.04468646       3.13986476       4.94909383      -0.12527745      -0.02319994       0.03967637
Si       1.69759799       1.43655047       3.39435475      -0.01027230       0.06077018      -0.13527266
Si       3.29163305       2.88529505       4.79621215      -0.00073881       0.07270790      -0.01046809
Si       0.08525357       3.47986721       9.14526750      -0.05594095       0.16839098       0.09878133
Si      -2.16998719       3.30244861      10.00680483      -0.02489539       0.04729190       0.01882977
20
Lattice="6.953392565464102 -0.26836492330101663 0.5458251541629837 -2.353739333244211 5.221015554161939 1.8635525903433345 -2.2522175276998486 -1.0565624585747464 9.602312164980642" Properties=species:S:1:pos:R:3:forces:R:3 unique_starting_index=76 config_type=initial n_minim_iter=4 energy=-3256.248710481802 stress="0.0009640598978948035 -0.0003100598488948025 0.0022122967764033343 -0.0003100598488948025 -0.0016240728857159039 -0.00026322839588702044 0.0022122967764033343 -0.00026322839588702044 0.0012669047472102647" free_energy=-3256.248710481802 pbc="T T T"
Si       3.62426697       0.15473458       8.10366170       0.03292239       0.00876346       0.07521860
Si      -2.76664468      -0.37563074       9.76473101       0.07816219       0.02719724      -0.05169590
Si       3.30037072      -0.12993945       2.34027423      -0.01683550       0.01034502      -0.02893717
Si      -1.57919781       2.24652210       3.49950513       0.05559515       0.03486592       0.10327132
Si       3.35590054       2.62266958       0.74877069       0.04096021       0.01575737      -0.00679864
Si       2.25440635       2.12282965       8.27107368      -0.01828885      -0.02076713      -0.08703526
Si      -3.22135453       4.21138756       7.70016012       0.09499199       0.00561299      -0.06091341
Si      -0.95815071       0.93570281       7.25214902      -0.03381840      -0.09447024       0.08062364
Si       4.99241284      -0.34701071       4.32832305      -0.02147954      -0.07133233       0.00398838
Si      -0.41839046      -0.05537732       9.40692308       0.01970787       0.04546504       0.10095743
Si       2.87070143      -0.09282740       5.46051239      -0.02507625      -0.13656628      -0.03905724
Si       2.50290183       3.78739136       2.75143477       0.00221557       0.03551226       0.03816549
Si       1.41392673       1.65691290       6.09522915       0.07860986       0.01367986      -0.04357598
Si      -1.14355809       3.35038997       7.03375786       0.02252948      -0.02142114       0.08248748
Si      -1.33120726       2.61087279       1.18660851      -0.08022606       0.00433449       0.02097781
Si      -0.03528740       3.12988772       4.96971754      -0.11139688      -0.09648666      -0.09542853
Si       1.70951994       1.43508007       3.40335730      -0.00633144       0.07104264      -0.11917626
Si       3.30840815       2.88069815       4.82120096      -0.02292203       0.06593008      -0.04982228
Si       0.11278206       3.47774864       9.18086561      -0.02574393       0.07455866       0.08368777
Si      -2.13969285       3.29510963      10.03358546      -0.06357584       0.02797873      -0.00693728
20
Lattice="6.931445068974707 -0.26410867079235967 0.5199405607340255 -2.3502633072250987 5.233678833501134 1.8734403089535157 -2.2817000894311863 -1.0562378528778429 9.603617668042123" Properties=species:S:1:pos:R:3:forces:R:3 unique_starting_index=76 config_type=initial n_minim_iter=5 energy=-3256.259497495595 stress="-0.00046749144170775257 -0.00033813258940218325 0.00014949218205839517 -0.00033813258940218325 0.0003876735419294314 -9.946981461790143e-06 0.00014949218205839517 -9.946981461790143e-06 -0.000421351963298346" free_energy=-3256.259497495595 pbc="T T T"
Si       3.58094977       0.16286074       8.08784391       0.09248596       0.02677395       0.05952923
Si      -2.78845859      -0.37354933       9.76602599      -0.00547743       0.08640887       0.04696882
Si       3.28059929      -0.12578667       2.32377599      -0.08979915      -0.08238797      -0.02136374
Si      -1.58776846       2.24711245       3.50236905      -0.01164599       0.00112951       0.15375235
Si       3.34841151       2.62975160       0.73840275       0.03326062       0.16496513      -0.06206358
Si       2.22495438       2.13326298       8.25227209      -0.06600710      -0.02863299      -0.00382336
Si      -3.23281621       4.21679053       7.70428544       0.12947016       0.05913581      -0.00843215
Si      -0.98422894       0.93682294       7.25577198      -0.01327710      -0.10430726       0.02468347
Si       4.96000909      -0.34253447       4.30203257      -0.03494516      -0.04422540       0.03886468
Si      -0.44473827      -0.04629388       9.41351705       0.02695076      -0.06127817       0.04719102
Si       2.83828540      -0.10118415       5.44231226      -0.00541717      -0.02601605      -0.05035870
Si       2.48778864       3.80394140       2.74438569       0.00705776       0.06181602      -0.03175108
Si       1.39185916       1.66466814       6.08241473       0.11695190      -0.02540615      -0.10574164
Si      -1.15219406       3.35832257       7.03442095      -0.10551886      -0.05046643       0.12740404
Si      -1.33890184       2.61470797       1.20004426       0.04997574      -0.00608136      -0.09998339
Si      -0.05982369       3.13851013       4.97310028      -0.01049368       0.01508704      -0.14924929
Si       1.69288734       1.44659798       3.38531236       0.00028640       0.03815107      -0.10663001
Si       3.28236087       2.89923250       4.80512946       0.00605259       0.00213601      -0.01085988
Si       0.07790301       3.50299782       9.18315698       0.01133093      -0.03939713       0.08622024
Si      -2.17046880       3.31121136      10.03770489      -0.13124119       0.01259550       0.06564298
20
Lattice="6.93792702399311 -0.2501313745285319 0.5097014816878062 -2.34581082401036 5.218175672786152 1.8806811698214638 -2.301592021752727 -1.0569762126864215 9.621346857511616" Properties=species:S:1:pos:R:3:forces:R:3 unique_starting_index=76 config_type=initial n_minim_iter=6 energy=-3256.262850990525 stress="0.00023066769524926326 0.0007734697059182724 -0.0005916835173141236 0.0007734697059182724 -0.0007509804879311102 -0.00017691031224081915 -0.0005916835173141236 -0.00017691031224081915 0.0004971963988618461" free_energy=-3256.262850990525 pbc="T T T"
Si       3.57287102       0.17132216       8.09577480       0.13543789      -0.00220634       0.05798637
Si      -2.80631803      -0.37537682       9.78502654       0.01438227       0.04932027       0.04299895
Si       3.27861202      -0.11977586       2.32098984      -0.09696044      -0.08807481      -0.02593060
Si      -1.59144770       2.23826751       3.51216694      -0.02422189       0.02251673       0.10187930
Si       3.35732963       2.63243306       0.73396640       0.03530659       0.16454415      -0.07863093
Si       2.21898692       2.13362008       8.25968338      -0.07213873       0.01158248      -0.00764774
Si      -3.23753247       4.20170274       7.72015746       0.10297111       0.05003434       0.00049584
Si      -0.99603016       0.93142157       7.26975010      -0.02908817      -0.11291372       0.03004164
Si       4.95703760      -0.33226565       4.29978801      -0.05397985      -0.06089291       0.05875118
Si      -0.45813779      -0.04527439       9.43177226       0.00177809      -0.05136689       0.06412083
Si       2.83145661      -0.09833752       5.44412606       0.02110964      -0.03202394      -0.06314699
Si       2.49353271       3.80281786       2.74515134       0.01504072       0.07385373      -0.03653583
Si       1.38944924       1.66419513       6.08682374       0.12063741      -0.01496249      -0.08691949
Si      -1.15675997       3.34835428       7.04885940      -0.08679017      -0.04803285       0.09294289
Si      -1.33885780       2.60593167       1.20497471       0.04133869       0.03416173      -0.05581695
Si      -0.06411718       3.13213470       4.98020607      -0.01913837       0.03485262      -0.11769182
Si       1.69214606       1.44907456       3.38372060       0.00030341       0.04758747      -0.10150218
Si       3.28383137       2.90173378       4.80675686       0.00597942      -0.01933094      -0.00151690
Si       0.06942808       3.49944393       9.20024108      -0.00944925      -0.03023511       0.07494456
Si      -2.18502113       3.30266189      10.05782826      -0.10251838      -0.02841352       0.05117787
20
Lattice="6.95630083019691 -0.25399939213316625 0.5032564823199163 -2.3584606396327987 5.224777780511469 1.9074819680028987 -2.3146506690554554 -1.0115248444616587 9.627191313167273" Properties=species:S:1:pos:R:3:forces:R:3 unique_starting_index=76 config_type=initial n_minim_iter=7 energy=-3256.2832809510364 stress="0.0013847760101773606 -0.0009643970542472312 -0.0014389196297175109 -0.0009643970542472312 -0.0006333898087917102 0.0012555913522524589 -0.0014389196297175109 0.0012555913522524589 0.0017246457908151706" free_energy=-3256.2832809510364 pbc="T T T"
Si       3.58529890       0.20948084       8.11557827       0.08899895       0.00855250      -0.00708371
Si      -2.80841880      -0.31708567       9.79732121      -0.02377163       0.03861427       0.15561002
Si       3.26758225      -0.12331214       2.31050511      -0.07283089       0.02971571      -0.08033316
Si      -1.60689771       2.24334864       3.54427078      -0.18747153       0.02562663      -0.12983215
Si       3.37471854       2.65157310       0.73538097      -0.00764787       0.13814072      -0.09651993
Si       2.21738434       2.16327436       8.26148915       0.05501919       0.04424531      -0.05358182
Si      -3.22803612       4.23048452       7.73834413      -0.12365233       0.04280314       0.08755106
Si      -1.01445831       0.93906564       7.29434398       0.01024217      -0.00765564      -0.04412415
Si       4.95619783      -0.32519457       4.29488391      -0.04165745      -0.04937330       0.12828858
Si      -0.45011488      -0.00165727       9.47150780      -0.04129392      -0.14284694       0.08142077
Si       2.82658967      -0.10671553       5.42935791       0.06824364       0.04179548      -0.04264772
Si       2.49496865       3.82786572       2.76163726       0.03866990       0.08238839      -0.04640920
Si       1.41153189       1.68449756       6.07401667       0.10680366       0.07608453      -0.16155278
Si      -1.16072756       3.36404715       7.08786003       0.01628726      -0.13905446      -0.07993689
Si      -1.35662463       2.60651789       1.22203255       0.03552147      -0.00160071       0.05549491
Si      -0.09082985       3.15169807       4.98751519       0.10382105      -0.09900865       0.20527473
Si       1.69219629       1.47787505       3.35490209       0.03068997      -0.00023937      -0.05624481
Si       3.28487691       2.93044851       4.81558850       0.02415344      -0.08216412       0.03955869
Si       0.05262919       3.55624353       9.25134553      -0.10440898      -0.02456167       0.05149919
Si      -2.22610152       3.35541106      10.09571392       0.02428389       0.01853818      -0.00643164
20
Lattice="6.9523285299304804 -0.23839739892966355 0.515365058313512 -2.3407920573231142 5.228042457959451 1.8925396270784396 -2.298525660260142 -1.0339255270861927 9.609861171115973" Properties=species:S:1:pos:R:3:forces:R:3 unique_starting_index=76 config_type=initial n_minim_iter=8 energy=-3256.2887472515877 stress="0.0001435180493618664 0.0012070717733790744 -0.00010082374936488891 0.0012070717733790744 0.0009564735134018363 0.00013930782531383314 -0.00010082374936488891 0.00013930782531383314 0.001013926580828113" free_energy=-3256.2887472515877 pbc="T T T"
Si       3.60103704       0.20805418       8.11306049       0.06138382      -0.03893196      -0.03134411
Si      -2.78676910      -0.33600860       9.77940832      -0.03789138      -0.01917884       0.13914407
Si       3.26442753      -0.12169430       2.31019706      -0.08828929      -0.00881358      -0.06959900
Si      -1.59666201       2.23670731       3.53655082      -0.17335144      -0.04336819      -0.14605320
Si       3.38338089       2.67079286       0.73381371      -0.03307063       0.10317813      -0.09723802
Si       2.23669523       2.16051520       8.24597734       0.09740283       0.12949082      -0.05188946
Si      -3.19528090       4.21956659       7.71234159      -0.26748094       0.02176933       0.10727065
Si      -1.00071707       0.92140465       7.28308795       0.04470568       0.03987640      -0.03842043
Si       4.95707498      -0.32258422       4.29760249       0.00638056       0.00269584       0.12747017
Si      -0.42880906      -0.01740882       9.46466915      -0.04067962      -0.07064677       0.11023720
Si       2.83257559      -0.11568120       5.42182546       0.04001519      -0.00024426      -0.00409454
Si       2.50810904       3.84352125       2.75574170       0.08195432       0.08155000      -0.02805766
Si       1.43257376       1.68201064       6.05765070       0.10982030       0.11368649      -0.18655044
Si      -1.13703011       3.35385169       7.07387939       0.07572497      -0.17105088      -0.06176679
Si      -1.34979379       2.60622702       1.21490172       0.02844927       0.06198603       0.07041931
Si      -0.07856975       3.15046436       4.97323797       0.16699588      -0.08385259       0.17708062
Si       1.70081950       1.48450979       3.34086503       0.02139209       0.03475484      -0.03930896
Si       3.29853692       2.94068373       4.80855219      -0.03571438      -0.09983229       0.03263933
Si       0.07572766       3.55516979       9.23929983      -0.07443620      -0.00286772       0.01699150
Si      -2.20446447       3.34479639      10.07441410       0.01668898      -0.05020080      -0.02693025
20
Lattice="6.967430147355867 -0.2519843045500798 0.5164706196861915 -2.354507560833591 5.226089921999776 1.872484311475879 -2.2987799288013298 -1.0551790989901775 9.58373933707039" Properties=species:S:1:pos:R:3:forces:R:3 unique_starting_index=76 config_type=initial n_minim_iter=9 energy=-3256.2965863066 stress="0.0006799004786588831 -0.00027765031674952277 0.00010041940728300168 -0.00027765031674952277 -0.00013164706231827614 -0.0012348966985586461 0.00010041940728300168 -0.0012348966985586461 -0.0007923606119233743" free_energy=-3256.2965863066 pbc="T T T"
Si       3.61407793       0.18124548       8.09295782       0.04667035       0.02686210      -0.03991951
Si      -2.78659185      -0.35387938       9.75441732      -0.01700652      -0.04037898       0.11760672
Si       3.26594799      -0.13606295       2.30078286      -0.09368439      -0.00311449      -0.06539940
Si      -1.60804184       2.22651480       3.52177218      -0.21142182      -0.05021160      -0.13923150
Si       3.38830206       2.66975844       0.72175310      -0.00930680       0.10251909      -0.09935199
Si       2.24191453       2.13530108       8.21227735       0.11650735       0.09502309      -0.01105503
Si      -3.20464338       4.20316861       7.67705324      -0.22417809       0.00314894       0.08812754
Si      -1.00387624       0.89797528       7.26148377       0.04239054       0.07075036      -0.00082580
Si       4.96648375      -0.34490466       4.28890695       0.01966027       0.00208595       0.13172228
Si      -0.42343306      -0.04324916       9.44684067      -0.08557871      -0.03737689       0.12158529
Si       2.83904652      -0.14247671       5.40260824       0.06798265       0.01089147       0.02747160
Si       2.50870778       3.83714308       2.73735617       0.09334005       0.07402058      -0.00920429
Si       1.44271948       1.66409221       6.02605412       0.08405003       0.12607329      -0.23764814
Si      -1.14028997       3.32957387       7.04703676       0.00483081      -0.16947046      -0.03384593
Si      -1.35917184       2.60457368       1.20600413      -0.00482829       0.09081368       0.06091172
Si      -0.08499268       3.13466870       4.95096731       0.23379838      -0.09841610       0.17027249
Si       1.70292955       1.47698646       3.31726770       0.02342145       0.02704134      -0.02869719
Si       3.30091187       2.92299248       4.78684546      -0.03015512      -0.10300222       0.00795237
Si       0.06893483       3.53430628       9.21030083      -0.10338199      -0.04232131       0.00619680
Si      -2.21798188       3.32303621      10.03801068       0.04688984      -0.08493782      -0.06666804
20
Lattice="6.966339181681993 -0.25992966880841256 0.5229881493884078 -2.358016068021085 5.234738157447564 1.872087562836367 -2.2851313950065903 -1.0387613254544943 9.552212990982898" Properties=species:S:1:pos:R:3:forces:R:3 unique_starting_index=76 config_type=initial n_minim_iter=10 energy=-3256.318069783914 stress="-0.0016179759426206643 -0.0015351000738448321 0.0016804042930703663 -0.0015351000738448321 -0.001335925561877969 -0.00020257346347012347 0.0016804042930703663 -0.00020257346347012347 -0.002899214861373062" free_energy=-3256.318069783914 pbc="T T T"
Si       3.63345285       0.19281120       8.08327261      -0.06498199       0.05010343      -0.06146302
Si      -2.76596453      -0.32795145       9.73433192      -0.03284003      -0.02946565       0.13168211
Si       3.24917942      -0.14399792       2.28619876      -0.08305159       0.05326271      -0.10985034
Si      -1.62321961       2.22526758       3.51699411      -0.09847918      -0.01165268      -0.02779201
Si       3.39179839       2.69056158       0.71572351      -0.01897812       0.02755734      -0.07305495
Si       2.25608692       2.14989123       8.18244437       0.12656455      -0.01062828      -0.04621089
Si      -3.19424906       4.21869612       7.65690039      -0.13414525       0.00427218       0.07719718
Si      -0.99954005       0.89532147       7.24834430       0.09159532       0.09288603       0.01143903
Si       4.96316505      -0.35110519       4.28839268       0.09989476       0.01264988       0.09569617
Si      -0.40282822      -0.03309999       9.44936757      -0.05476083      -0.05230643       0.12843709
Si       2.84263104      -0.15902881       5.37835746       0.02615301       0.02149407       0.10307743
Si       2.51192086       3.85865002       2.73594096       0.09084721       0.04429505       0.02251795
Si       1.47247930       1.67659411       5.98230325       0.14306372       0.09969919      -0.18467104
Si      -1.12691455       3.32187899       7.03913829      -0.09115524      -0.09852822       0.00150066
Si      -1.36714469       2.61001844       1.21109691      -0.04702900       0.07727339       0.01470917
Si      -0.08530447       3.13688698       4.94540310       0.13036127      -0.17324904       0.04425595
Si       1.70570985       1.49416024       3.28247079       0.00813902      -0.00968014      -0.01707677
Si       3.30005167       2.93067499       4.77929749      -0.04254210      -0.05575601       0.00800722
Si       0.06524275       3.56208992       9.21076521      -0.12502644      -0.01179810      -0.03901256
Si      -2.22485790       3.34633446      10.01825826       0.07637089      -0.03042870      -0.07938837
20
Lattice="6.9896588094611385 -0.2526855839364276 0.4874626568763149 -2.370039856169076 5.236502885649305 1.8727013528583576 -2.342579631248718 -1.0522611170225948 9.534472028381215" Properties=species:S:1:pos:R:3:forces:R:3 unique_starting_index=76 config_type=initial n_minim_iter=11 energy=-3256.358821514245 stress="-0.0028363937935938447 -0.0024401286031218604 0.0018234225007421603 -0.0024401286031218604 -0.0017709562072333765 0.00043752787622542094 0.0018234225007421603 0.00043752787622542094 -0.003981257828526612" free_energy=-3256.358821514245 pbc="T T T"
Si       3.63588070       0.20096216       8.06405841      -0.23504429       0.06286353      -0.08030632
Si      -2.80390118      -0.31759426       9.75250118      -0.02179893      -0.02871867       0.09318615
Si       3.19347129      -0.16306689       2.22715553      -0.10341086       0.07438427      -0.19564452
Si      -1.69375267       2.19460302       3.52405605       0.10146506       0.04307956       0.05078343
Si       3.42429693       2.76146373       0.65814629      -0.00451593      -0.21545799      -0.06997525
Si       2.25038502       2.15679213       8.10602817       0.12518345      -0.23733230      -0.04118616
Si      -3.22331901       4.20536387       7.64293547       0.09911855      -0.04875198       0.03448091
Si      -1.04753512       0.84457465       7.25222719       0.15680732       0.10452253       0.06302785
Si       4.94028786      -0.36766528       4.26961910       0.21902915       0.04693329       0.04088897
Si      -0.42572670      -0.05639047       9.51052133      -0.02805675      -0.02063603       0.19169719
Si       2.81894771      -0.22269854       5.31502028      -0.03146313       0.00862094       0.27213197
Si       2.52969720       3.91755096       2.70556440       0.09619550       0.00894286       0.13638095
Si       1.52751424       1.68788423       5.86359618       0.21125159       0.01692284      -0.11185116
Si      -1.13985542       3.25522694       7.04419657      -0.28623912       0.07818497       0.01417195
Si      -1.39645228       2.61303073       1.23044830      -0.14160819       0.13831092      -0.01028855
Si      -0.11522373       3.11264178       4.93728225      -0.03735740      -0.15858119      -0.14223928
Si       1.70133694       1.53388784       3.17624208      -0.00635582      -0.01335226       0.05081955
Si       3.28467589       2.94211100       4.73868164      -0.03585286       0.06408737      -0.04987547
Si      -0.00986010       3.59435889       9.23869826      -0.24652121       0.09336035      -0.14267376
Si      -2.32328994       3.34907355      10.01257628       0.16917386      -0.01738300      -0.10352842
20
Lattice="7.017471594243006 -0.22230677688557174 0.44708026546006885 -2.368729381098764 5.220863141733144 1.8819482868464399 -2.416273134535492 -1.078307184182085 9.569550763755027" Properties=species:S:1:pos:R:3:forces:R:3 unique_starting_index=76 config_type=initial n_minim_iter=12 energy=-3256.3851398062393 stress="-0.0009393845209010743 -0.0006424771749129134 0.00026301338739005025 -0.0006424771749129134 -0.00039693641290235144 0.0005468107666646443 0.00026301338739005025 0.0005468107666646443 -0.0010949378457977292" free_energy=-3256.3851398062393 pbc="T T T"