22
Lattice="5.938253310668621 1.2403819738518365e-15 0.6694035229023647 -2.9180884641155433e-15 8.875844564348238 1.1256895663684964e-14 2.0502916036518606 -1.8036773177189262e-14 14.784317180556103" Properties=species:S:1:pos:R:3:forces:R:3 unique_starting_index=292 config_type=initial n_minim_iter=1 energy=-3574.8092792507896 stress="-5.900438763078257e-05 -2.678060514260138e-12 5.03092029280307e-05 -2.678060514260138e-12 -3.306607163805307e-05 2.167429776070962e-12 5.03092029280307e-05 2.167429776070962e-12 -6.657217583423176e-05" free_energy=-3574.8092792507896 pbc="T T T"
Si       3.85888138       2.30910857      12.49875301      -0.02877195       0.01668838      -0.00379787
Si       4.12966354       2.30910857       2.95496769       0.02877195       0.01668838       0.00379787
Si       6.16050602       3.97707430       3.91485999       0.03211153      -0.00965814       0.01007859
Si       1.82803889       3.97707430      11.53886072      -0.03211153      -0.00965814      -0.01007860
Si       5.56330999       7.62938580      14.03825043       0.02536852       0.02436242      -0.00378009
Si       2.42523493       7.62938580       1.41547028      -0.02536852       0.02436242       0.00378009
Si       5.77430309       2.79152945       9.52314754       0.02205043      -0.01295955       0.00291135
Si       2.21424183       2.79152945       5.93057317      -0.02205043      -0.01295955      -0.00291135
Si       0.19046675       2.56548718       1.16710865      -0.00320958       0.00112459       0.03432368
Si       7.79807817       2.56548718      14.28661205       0.00320958       0.00112459      -0.03432368
Si       0.90113995       4.97319475       6.19912022      -0.00318739      -0.00942820       0.03147244
Si       7.08740496       4.97319475       9.25460049       0.00318739      -0.00942820      -0.03147244
Si       3.67415867       4.21659434       4.44728113       0.01527031       0.01644994       0.01629634
Si       4.31438624       4.21659434      11.00643958      -0.01527031       0.01644994      -0.01629634
Si       5.53011372       2.13838011      14.09627592      -0.00226119      -0.00627844      -0.02183924
Si       2.45843120       2.13838011       1.35744479       0.00226119      -0.00627844       0.02183924
Si       4.62753633       2.16689331       5.35740099       0.01319378      -0.00576359      -0.01408222
Si       3.36100859       2.16689331      10.09631971      -0.01319378      -0.00576359       0.01408222
Si       2.88476520       3.48059082       8.08522590      -0.01679807      -0.01005763       0.02552180
Si       5.10377972       3.48059082       7.36849481       0.01679807      -0.01005763      -0.02552180
Si       3.93747500       5.87616110       0.91900535      -0.02295711      -0.00447978       0.04822984
Si       4.05106992       5.87616110      14.53471535       0.02295711      -0.00447978      -0.04822984
22
Lattice="5.939444922110881 1.242839342189368e-15 0.668447092986958 -2.9171215520097688e-15 8.87694868543747 1.1257568359136631e-14 2.0479481302667764 -1.8042649891821056e-14 14.787632260647664" Properties=species:S:1:pos:R:3:forces:R:3 unique_starting_index=292 config_type=initial n_minim_iter=2 energy=-3574.8093590942194 stress="0.00023034859918500035 -1.3503711055055902e-12 -5.9314393895321215e-05 -1.3503711055055902e-12 0.00018412648148535837 -1.3256778033802405e-12 -5.9314393895321215e-05 -1.3256778033802405e-12 0.000180402992906922" free_energy=-3574.8093590942194 pbc="T T T"
Si       3.85723094       2.30947766      12.50113463      -0.03155480       0.01852005      -0.00125953
Si       4.13016211       2.30947766       2.95494472       0.03155480       0.01852005       0.00125953
Si       6.16129012       3.97752166       3.91472383       0.03036312      -0.00831484       0.00637021
Si       1.82610293       3.97752166      11.54135553      -0.03036312      -0.00831484      -0.00637021
Si       5.56201210       7.63045436      14.04069505       0.02155121       0.01961204       0.00489176
Si       2.42538096       7.63045436       1.41538430      -0.02155121       0.01961204      -0.00489176
Si       5.77389046       2.79181314       9.52445410       0.01899338      -0.01031095       0.00158427
Si       2.21350259       2.79181314       5.93162525      -0.01899338      -0.01031095      -0.00158427
Si       0.19027233       2.56581183       1.16753331      -0.00152434       0.00359294       0.03086655
Si       7.79712073       2.56581183      14.28854604       0.00152434       0.00359294      -0.03086655
Si       0.90015086       4.97376715       6.20065679      -0.00415780      -0.01420780       0.03524696
Si       7.08724219       4.97376715       9.25542257       0.00415780      -0.01420780      -0.03524696
Si       3.67420739       4.21719955       4.44777950       0.01645208       0.01403563       0.01596557
Si       4.31318567       4.21719955      11.00829985      -0.01645208       0.01403563      -0.01596557
Si       5.52866196       2.13861532      14.09865280      -0.00589727      -0.00419769      -0.01276191
Si       2.45873110       2.13861532       1.35742656       0.00589727      -0.00419769       0.01276191
Si       4.62761425       2.16713459       5.35779784       0.01033339      -0.00184830      -0.01289798
Si       3.35977880       2.16713459      10.09828151      -0.01033339      -0.00184830       0.01289798
Si       2.88379269       3.48097446       8.08683022      -0.00913765      -0.00902019       0.02053279
Si       5.10360036       3.48097446       7.36924913       0.00913765      -0.00902019      -0.02053280
Si       3.93806252       5.87687010       0.91872680      -0.02039543      -0.00786090       0.04548072
Si       4.04933054       5.87687010      14.53735256       0.02039543      -0.00786090      -0.04548072
22
Lattice="5.936770943175247 1.2480215711668123e-15 0.6650063709605398 -2.912585196708523e-15 8.871768272508747 1.12494430649922e-14 2.0384295196402182 -1.8048063495164615e-14 14.787890339267735" Properties=species:S:1:pos:R:3:forces:R:3 unique_starting_index=292 config_type=initial n_minim_iter=3 energy=-3574.8097758457056 stress="-0.00010624572125579436 -5.3106554012182126e-12 -0.00037413277336982516 -5.3106554012182126e-12 -0.00035791482799918037 -5.591619756056746e-13 -0.00037413277336982516 -5.591619756056746e-13 0.00010916952288913124" free_energy=-3574.8097758457056 pbc="T T T"
Si       3.84735672       2.30871840      12.49999011      -0.03154071       0.01264172      -0.00731775
Si       4.12784375       2.30871840       2.95290661       0.03154071       0.01264172       0.00731775
Si       6.15770044       3.97488083       3.91178701       0.03493077      -0.00608351       0.01800159
Si       1.81750002       3.97488083      11.54110970      -0.03493077      -0.00608351      -0.01800159
Si       5.55242340       7.62679574      14.03874930       0.01388260       0.01543439       0.01823115
Si       2.42277706       7.62679574       1.41414741      -0.01388260       0.01543439      -0.01823114
Si       5.76678014       2.78976240       9.52207766       0.00697862      -0.01361008       0.00415595
Si       2.20842032       2.78976240       5.93081905      -0.00697862      -0.01361008      -0.00415595
Si       0.18941344       2.56437458       1.16868524       0.00060406      -0.00085838       0.01192159
Si       7.78578702       2.56437458      14.28421148      -0.00060406      -0.00085838      -0.01192159
Si       0.89602491       4.97049942       6.20185423       0.00181112      -0.00584317       0.02031782
Si       7.07917556       4.97049942       9.25104249      -0.00181112      -0.00584317      -0.02031782
Si       3.67070472       4.21528177       4.44660756       0.01417759       0.01690398       0.02214231
Si       4.30449574       4.21528177      11.00628916      -0.01417759       0.01690398      -0.02214231
Si       5.51810573       2.13717002      14.09611674      -0.01215228      -0.01203912       0.00917765
Si       2.45709473       2.13717002       1.35677997       0.01215228      -0.01203912      -0.00917765
Si       4.62310264       2.16570631       5.35512349       0.00822902      -0.00817754      -0.00909057
Si       3.35209783       2.16570631      10.09777322      -0.00822902      -0.00817754       0.00909057
Si       2.87740011       3.47860704       8.08676304       0.00756264      -0.01298772       0.00670628
Si       5.09780035       3.47860704       7.36613368      -0.00756264      -0.01298772      -0.00670628
Si       3.93524192       5.87325730       0.91812530      -0.01317524       0.01461944       0.03808541
Si       4.03995854       5.87325730      14.53477141       0.01317524       0.01461944      -0.03808541
22
Lattice="5.9355372086406595 1.2435114418378825e-15 0.668461674208049 -2.914074684727509e-15 8.876671613335622 1.1257211295080013e-14 2.0470212716524165 -1.8037944050918162e-14 14.7842076334893" Properties=species:S:1:pos:R:3:forces:R:3 unique_starting_index=292 config_type=initial n_minim_iter=4 energy=-3574.8106493205205 stress="-9.235325821528925e-05 5.035385587578501e-12 3.8712154828762805e-05 5.035385587578501e-12 1.1945820498828253e-05 8.669256671700527e-13 3.8712154828762805e-05 8.669256671700527e-13 0.00012137118099477166" free_energy=-3574.8106493205205 pbc="T T T"
Si       3.85171087       2.31130793      12.49792008       0.01996582       0.00252596      -0.01481254
Si       4.13084762       2.31130793       2.95474923      -0.01996582       0.00252596       0.01481254
Si       6.16091417       3.97636938       3.91506509       0.02625873       0.00025479       0.01789131
Si       1.82164431       3.97636938      11.53760422      -0.02625873       0.00025479      -0.01789131
Si       5.56141799       7.63277345      14.03749835       0.00898035       0.00265021       0.02343068
Si       2.42114049       7.63277345       1.41517096      -0.00898035       0.00265021      -0.02343068
Si       5.77264974       2.79033406       9.52267696      -0.01311448      -0.00617555      -0.00054242
Si       2.20990875       2.79033406       5.92999235       0.01311448      -0.00617555       0.00054242
Si       0.18988834       2.56591217       1.17089039       0.02726632       0.01228890      -0.04824674
Si       7.79267014       2.56591217      14.28177892      -0.02726632       0.01228890       0.04824674
Si       0.89938138       4.97244449       6.20279551       0.01047614       0.00338166      -0.02545376
Si       7.08317710       4.97244449       9.24987380      -0.01047614       0.00338166       0.02545376
Si       3.67364946       4.21885793       4.44870142       0.01394591       0.00519898       0.02928753
Si       4.30890902       4.21885793      11.00396789      -0.01394591       0.00519898      -0.02928753
Si       5.52499770       2.13786056      14.09347801      -0.01521915      -0.00567845       0.00148635
Si       2.45756078       2.13786056       1.35919130       0.01521915      -0.00567845      -0.00148634
Si       4.62608534       2.16650804       5.35514792       0.00632447      -0.00358738      -0.00299985
Si       3.35647314       2.16650804      10.09752139      -0.00632447      -0.00358738       0.00299985
Si       2.88059259       3.47974241       8.08762614       0.02275632      -0.02706112      -0.01554960
Si       5.10196589       3.47974241       7.36504317      -0.02275632      -0.02706112       0.01554961
Si       3.93303268       5.87621444       0.92391576      -0.01336904       0.01620199       0.02577207
Si       4.04952580       5.87621444      14.52875355       0.01336904       0.01620199      -0.02577207
22
Lattice="5.937316290447352 1.2476798898112617e-15 0.6676391524895176 -2.911316263712709e-15 8.876681901886943 1.1266427857153866e-14 2.0464378867088486 -1.8012618224813408e-14 14.776665847796655" Properties=species:S:1:pos:R:3:forces:R:3 unique_starting_index=292 config_type=initial n_minim_iter=5 energy=-3574.8107390137257 stress="0.00011125603132634186 -2.604114845783073e-12 -3.030446473936968e-05 -2.604114845783073e-12 4.73367486407194e-06 3.356888343484983e-13 -3.030446473936968e-05 3.356888343484983e-13 -0.0001682594410248303" free_energy=-3574.8107390137257 pbc="T T T"
Si       3.85173240       2.31145833      12.49126906       0.01582798       0.00128680      -0.01518881
Si       4.13202178       2.31145833       2.95303594      -0.01582798       0.00128680       0.01518881
Si       6.16288188       3.97630236       3.91277180       0.02380548      -0.00075418       0.02234657
Si       1.82087229       3.97630236      11.53153320      -0.02380548      -0.00075418      -0.02234657
Si       5.56221546       7.63297659      14.03015498       0.00954979       0.00163790       0.01815769
Si       2.42153872       7.63297659       1.41415002      -0.00954979       0.00163790      -0.01815769
Si       5.77374771       2.79020722       9.51747115      -0.01140904      -0.00714679       0.00783449
Si       2.21000646       2.79020722       5.92683385       0.01140904      -0.00714679      -0.00783449
Si       0.18996455       2.56598807       1.17030879       0.03092348       0.01214684      -0.04086575
Si       7.79378963       2.56598807      14.27399621      -0.03092348       0.01214684       0.04086575
Si       0.89917630       4.97238408       6.19975627       0.00515333       0.00016237      -0.03395901
Si       7.08457788       4.97238408       9.24454873      -0.00515333       0.00016237       0.03395901
Si       3.67461166       4.21901653       4.44645824       0.01386384       0.00565033       0.03205801
Si       4.30914252       4.21901653      10.99784677      -0.01386384       0.00565033      -0.03205801
Si       5.52543942       2.13778479      14.08586331      -0.00789450      -0.00561264       0.00079868
Si       2.45831476       2.13778479       1.35844169       0.00789449      -0.00561264      -0.00079868
Si       4.62720297       2.16645246       5.35197337       0.00559095      -0.00452295      -0.00574482
Si       3.35655120       2.16645246      10.09233163      -0.00559095      -0.00452295       0.00574482
Si       2.88082464       3.47953248       8.08346252       0.02623135      -0.02085483      -0.00993929
Si       5.10292953       3.47953248       7.36084249      -0.02623135      -0.02085483       0.00993929
Si       3.93393257       5.87627077       0.92363394      -0.00416872       0.01800714       0.01983733
Si       4.04982161       5.87627077      14.52067106       0.00416872       0.01800714      -0.01983733
22
Lattice="5.932854317235398 1.2466757953366635e-15 0.6691057751954694 -2.9071911640253856e-15 8.873524419760367 1.1266482930305554e-14 2.0478642192768794 -1.801240576630338e-14 14.782738037177188" Properties=species:S:1:pos:R:3:forces:R:3 unique_starting_index=292 config_type=initial n_minim_iter=6 energy=-3574.8123718699676 stress="0.00015389688244013644 4.657816368052855e-13 6.311246283033187e-05 4.657816368052855e-13 -0.0001229461899018275 2.1541695814605428e-12 6.311246283033187e-05 2.1541695814605428e-12 8.341154272914295e-05" free_energy=-3574.8123718699676 pbc="T T T"
Si       3.84996264       2.31331858      12.49398185       0.00079841      -0.00038989       0.01693777
Si       4.13075590       2.31331858       2.95786197      -0.00079842      -0.00038989      -0.01693777
Si       6.16737135       3.97357923       3.92005124      -0.00400100       0.00471177      -0.00112304
Si       1.81334718       3.97357923      11.53179257       0.00400100       0.00471177       0.00112304
Si       5.56554056       7.63378266      14.03998999       0.02402806       0.00225761      -0.01130130
Si       2.41517798       7.63378266       1.41185383      -0.02402806       0.00225761       0.01130130
Si       5.77210578       2.78642494       9.52318356      -0.03645501      -0.01027863      -0.00178119
Si       2.20861275       2.78642494       5.92866025       0.03645501      -0.01027863       0.00178119
Si       0.19426420       2.56722511       1.16818351      -0.02588563       0.02993361       0.00533283
Si       7.78645434       2.56722511      14.28366030       0.02588563       0.02993361      -0.00533283
Si       0.90058897       4.96946530       6.20213485      -0.01194302      -0.00952143      -0.02354679
Si       7.08012957       4.96946530       9.24970897       0.01194302      -0.00952143       0.02354679
Si       3.67704506       4.22061279       4.45608273       0.01831819      -0.00017873       0.02500381
Si       4.30367347       4.22061279      10.99576109      -0.01831819      -0.00017873      -0.02500381
Si       5.52159965       2.13525297      14.09014474      -0.01210303       0.01254629       0.01594099
Si       2.45911889       2.13525297       1.36169908       0.01210303       0.01254629      -0.01594099
Si       4.62736242       2.16434207       5.35240443       0.00964046      -0.01177152       0.01565157
Si       3.35335611       2.16434207      10.09943939      -0.00964046      -0.01177152      -0.01565157
Si       2.88224364       3.47305082       8.08830975      -0.03476746      -0.00980420      -0.01239126
Si       5.09847490       3.47305082       7.36353406       0.03476746      -0.00980420       0.01239126
Si       3.92658152       5.87633395       0.93503324       0.05392534      -0.00750489       0.01730546
Si       4.05413702       5.87633395      14.51681058      -0.05392534      -0.00750489      -0.01730546
22
Lattice="5.929780217504504 1.2510403085933798e-15 0.6677194762002442 -2.9037822084192076e-15 8.878069861555247 1.1275818302451274e-14 2.0437050292763446 -1.8002691593013703e-14 14.779600974019779" Properties=species:S:1:pos:R:3:forces:R:3 unique_starting_index=292 config_type=initial n_minim_iter=7 energy=-3574.8124987106976 stress="-7.380593016247828e-05 -8.459399994961058e-12 -5.734330689998593e-05 -8.459399994961058e-12 0.00016363050542904142 -2.091139940756383e-12 -5.734330689998593e-05 -2.091139940756383e-12 -2.520009434158346e-05" free_energy=-3574.8124987106976 pbc="T T T"
Si       3.84527595       2.31474843      12.49069589      -0.00246764       0.00238509       0.01406608
Si       4.12820930       2.31474843       2.95662456       0.00246764       0.00238509      -0.01406608
Si       6.16424756       3.97551483       3.91843091       0.00093965       0.00581716      -0.00086732
Si       1.80923769       3.97551483      11.52888955      -0.00093965       0.00581716       0.00086732
Si       5.56035126       7.63803059      14.03648664       0.02383321       0.00268617      -0.01233778
Si       2.41313399       7.63803059       1.41083381      -0.02383321       0.00268617       0.01233778
Si       5.76714514       2.78754721       9.52028797      -0.03698556      -0.00923920       0.00498656
Si       2.20634011       2.78754721       5.92703248       0.03698556      -0.00923920      -0.00498656
Si       0.19418040       2.56887168       1.16772524      -0.03035843       0.03494332       0.00954779
Si       7.77930484       2.56887168      14.27959522       0.03035843       0.03494332      -0.00954779
Si       0.89884551       4.97186275       6.20069181      -0.01208280      -0.01437184      -0.02620011
Si       7.07463973       4.97186275       9.24662864       0.01208280      -0.01437184       0.02620011
Si       3.67476295       4.22306049       4.45525518       0.01762681      -0.00610180       0.02519459
Si       4.29872230       4.22306049      10.99206527      -0.01762681      -0.00610180      -0.02519459
Si       5.51559537       2.13624050      14.08625849      -0.01017618       0.01467600       0.02178114
Si       2.45788988       2.13624050       1.36106196       0.01017618       0.01467600      -0.02178114
Si       4.62422520       2.16527152       5.35027673       0.00986293      -0.00885370       0.01257772
Si       3.34926005       2.16527152      10.09704372      -0.00986293      -0.00885370      -0.01257772
Si       2.87911381       3.47430571       8.08627375      -0.04278452      -0.00549972      -0.00718200
Si       5.09437143       3.47430571       7.36104670       0.04278452      -0.00549972       0.00718200
Si       3.92427598       5.87950719       0.93504708       0.04948970      -0.01644148       0.01720611
Si       4.04920927       5.87950719      14.51227337      -0.04948970      -0.01644147      -0.01720611
22
Lattice="5.926513511883637 1.2493799964634596e-15 0.6680992254315528 -2.903278959612507e-15 8.876424999766893 1.1272975288223057e-14 2.0436009919096385 -1.800312461889425e-14 14.778905480542427" Properties=species:S:1:pos:R:3:forces:R:3 unique_starting_index=292 config_type=initial n_minim_iter=8 energy=-3574.813235829536 stress="-6.47083887746321e-05 -3.369247013156e-12 1.5225665100858164e-05 -3.369247013156e-12 -9.256703109261981e-05 -2.302897889617507e-12 1.5225665100858164e-05 -2.302897889617507e-12 -3.351251094423109e-05" free_energy=-3574.813235829536 pbc="T T T"
Si       3.84308838       2.31597947      12.48948054       0.00043003      -0.00544844       0.00924331
Si       4.12702612       2.31597947       2.95752416      -0.00043003      -0.00544844      -0.00924331
Si       6.16601594       3.97429652       3.92126640      -0.00321186       0.00332083       0.00244742
Si       1.80409856       3.97429652      11.52573830       0.00321187       0.00332083      -0.00244742
Si       5.56248048       7.63889644      14.03728858       0.00527528      -0.02826292       0.00893421
Si       2.40763402       7.63889644       1.40971612      -0.00527528      -0.02826292      -0.00893421
Si       5.76302552       2.78478486       9.52079309      -0.03011377      -0.01328941       0.00714410
Si       2.20708898       2.78478486       5.92621161       0.03011377      -0.01328941      -0.00714410
Si       0.19491657       2.57154164       1.16671044      -0.01766548       0.01620931       0.03210096
Si       7.77519793       2.57154164      14.28029427       0.01766548       0.01620931      -0.03210096
Si       0.89856696       4.96956306       6.19891438      -0.00443674      -0.01502715      -0.00113763
Si       7.07154754       4.96956306       9.24809033       0.00443674      -0.01502715       0.00113763
Si       3.67664553       4.22394677       4.46094977       0.01995957      -0.01411368       0.01547191
Si       4.29346898       4.22394677      10.98605494      -0.01995957      -0.01411368      -0.01547191
Si       5.51144243       2.13558092      14.08559496       0.02250533       0.01604702       0.00725090
Si       2.45867207       2.13558092       1.36140975      -0.02250533       0.01604702      -0.00725090
Si       4.62417465       2.16345076       5.34959220       0.01297072      -0.01388500       0.01435346
Si       3.34593986       2.16345076      10.09741251      -0.01297072      -0.01388500      -0.01435346
Si       2.87688417       3.47013893       8.08621332      -0.02816470      -0.00067385      -0.00756034
Si       5.09323033       3.47013893       7.36079138       0.02816470      -0.00067385       0.00756034
Si       3.92248841       5.87897507       0.94237772      -0.05435482       0.05512330      -0.02801679
Si       4.04762610       5.87897507      14.50462699       0.05435482       0.05512330       0.02801679
22
Lattice="5.924649474124388 1.2484922453716616e-15 0.6673134484267483 -2.905733487298585e-15 8.878518836236536 1.1273915152652363e-14 2.0410943009984988 -1.8006143623055562e-14 14.778078428072497" Properties=species:S:1:pos:R:3:forces:R:3 unique_starting_index=292 config_type=initial n_minim_iter=9 energy=-3574.8141801787046 stress="0.00011865706226410565 3.256441932698027e-13 -2.6410749652996803e-05 3.256441932698027e-13 0.00016285222191173858 1.93934554497782e-12 -2.6410749652996803e-05 1.93934554497782e-12 4.5751718846182994e-05" free_energy=-3574.8141801787046 pbc="T T T"
Si       3.83995678       2.31717484      12.48913736       0.02158706      -0.00071733      -0.00835178
Si       4.12578699       2.31717484       2.95625452      -0.02158706      -0.00071732       0.00835178
Si       6.16630491       3.97538939       3.92200273      -0.00153963       0.00437275       0.01028311
Si       1.79943887       3.97538939      11.52338915       0.00153963       0.00437275      -0.01028311
Si       5.56261316       7.64021670      14.03704183       0.00541949       0.01563232       0.00209765
Si       2.40313062       7.64021670       1.40835005      -0.00541949       0.01563232      -0.00209765
Si       5.75583774       2.78298557       9.52061678       0.00511811      -0.01389705       0.01155736
Si       2.20990603       2.78298557       5.92477510      -0.00511811      -0.01389705      -0.01155736
Si       0.19321957       2.57627089       1.16806882       0.01886549       0.01603389       0.00256858
Si       7.77252421       2.57627089      14.27732306      -0.01886549       0.01603389      -0.00256858
Si       0.89670118       4.96851054       6.19651382       0.02197382      -0.01467169       0.03377767
Si       7.06904260       4.96851054       9.24887806      -0.02197382      -0.01467169      -0.03377768
Si       3.67900856       4.22482533       4.46558646       0.01782373      -0.02443538      -0.00335796
Si       4.28673522       4.22482533      10.97980541      -0.01782372      -0.02443538       0.00335796
Si       5.50777572       2.13746745      14.08544347       0.03931349       0.02957952      -0.00968612
Si       2.45796806       2.13746745       1.35994841      -0.03931349       0.02957952       0.00968612
Si       4.62449104       2.16194600       5.34979205       0.01503258      -0.01372394       0.00201098
Si       3.34125274       2.16194600      10.09559983      -0.01503259      -0.01372394      -0.00201098
Si       2.87133316       3.46854423       8.08470137       0.04534980      -0.00106126      -0.00931672
Si       5.09441062       3.46854423       7.36069051      -0.04534980      -0.00106126       0.00931672
Si       3.91977480       5.88376076       0.94474991      -0.00752801       0.00288815      -0.00977949
Si       4.04596898       5.88376076      14.50064197       0.00752801       0.00288815       0.00977949
22
Lattice="5.917552187442554 1.245739119317676e-15 0.6681076344241075 -2.9028229288644765e-15 8.873361332507033 1.1265389173042746e-14 2.040812066814613 -1.800714782052061e-14 14.776384335509352" Properties=species:S:1:pos:R:3:forces:R:3 unique_starting_index=292 config_type=initial n_minim_iter=10 energy=-3574.81501300866 stress="-0.00022061775119053986 -3.465868964888653e-13 5.000771117755293e-05 -3.465868964888653e-13 -0.00032705969648781717 1.6961543663863054e-12 5.000771117755293e-05 1.6961543663863054e-12 -4.483893942422385e-05" free_energy=-3574.81501300866 pbc="T T T"
Si       3.83657646       2.31865830      12.48605254       0.02681037      -0.00363453       0.00649610
Si       4.12178780       2.31865830       2.95843943      -0.02681037      -0.00363453      -0.00649610
Si       6.16865532       3.97238218       3.92820478      -0.01433979       0.00702931       0.00850167
Si       1.78970894       3.97238218      11.51628720       0.01433979       0.00702931      -0.00850167
Si       5.56594516       7.63950362      14.03925029       0.01304218       0.04864158      -0.01555874
Si       2.39241910       7.63950362       1.40524168      -0.01304218       0.04864158       0.01555874
Si       5.74730446       2.77572231       9.52243530       0.01163654      -0.01952230       0.00757325
Si       2.21105980       2.77572231       5.92205667      -0.01163654      -0.01952230      -0.00757325
Si       0.19558755       2.58147828       1.16821992      -0.02886902       0.02109120       0.00036082
Si       7.76277670       2.58147828      14.27627205       0.02886902       0.02109119      -0.00036082
Si       0.89763222       4.96163323       6.19620505       0.02020977      -0.01611212       0.02419665
Si       7.06073204       4.96163323       9.24828692      -0.02020977      -0.01611211      -0.02419665
Si       3.68375857       4.22343648       4.47615171       0.01211624      -0.02965316      -0.01211617
Si       4.27460568       4.22343648      10.96834026      -0.01211624      -0.02965316       0.01211617
Si       5.50339255       2.13797104      14.08288601       0.01121877       0.03719427       0.00006273
Si       2.45497170       2.13797104       1.36160597      -0.01121877       0.03719427      -0.00006273
Si       4.62518033       2.15662532       5.34884136       0.02234051      -0.02773379       0.00509347
Si       3.33318393       2.15662532      10.09565061      -0.02234051      -0.02773379      -0.00509347
Si       2.86912611       3.45997008       8.08389071       0.01456942       0.00672802      -0.00360826
Si       5.08923814       3.45997008       7.36060126      -0.01456942       0.00672802       0.00360826
Si       3.91024059       5.88523357       0.95610958       0.06204990      -0.02402849       0.00327548
Si       4.04812366       5.88523357      14.48838239      -0.06204990      -0.02402849      -0.00327548
22
Lattice="5.912618728612533 1.2457086339991319e-15 0.6673443175369744 -2.9050345682280774e-15 8.879871114802793 1.1280979726420592e-14 2.038388924031355 -1.7982387435104558e-14 14.765910962887668" Properties=species:S:1:pos:R:3:forces:R:3 unique_starting_index=292 config_type=initial n_minim_iter=11 energy=-3574.817572121932 stress="6.732293312175203e-05 3.905427617074317e-12 -1.2104575539013835e-05 3.905427617074317e-12 0.00011838905620133595 3.381222155820343e-13 -1.2104575539013835e-05 3.381222155820343e-13 -6.663482261971503e-05" free_energy=-3574.817572121932 pbc="T T T"
Si       3.83613464       2.32274815      12.47670578       0.02777548       0.00156160       0.00420826
Si       4.11487301       2.32274815       2.95654950      -0.02777548       0.00156160      -0.00420826
Si       6.17189859       3.97622555       3.93307267       0.00268635      -0.00063973       0.01626366
Si       1.77910906       3.97622555      11.50018261      -0.00268635      -0.00063973      -0.01626366