10
Lattice="7.235354837215239 -0.3013320492512189 1.3231777781809076e-15 -2.7871268266495566 6.683792686528397 -2.449585632856167e-14 -2.22411400528282 -3.1912303186385826 3.500183598284285" Properties=species:S:1:pos:R:3:forces:R:3 unique_starting_index=198 config_type=initial n_minim_iter=15 energy=-1627.1904654863922 stress="-7.361739514725621e-05 -1.7400675939463696e-05 3.765552030373783e-12 -1.7400675939463696e-05 -8.645712303671005e-05 2.1360468741533824e-12 3.765552030373783e-12 2.1360468741533824e-12 5.685663214120953e-05" free_energy=-1627.1904654863922 pbc="T T T"
Si      -1.62516270       5.10712043       1.96029578       0.00059100       0.00017656      -0.00056070
Si      -3.12983358       2.94817025       1.53988781       0.00003892      -0.00061558       0.00056070
Si      -1.16196412       1.57667224       1.96029578      -0.00059100      -0.00017656      -0.00056070
Si       0.34270677       3.73562242       1.53988781      -0.00003892       0.00061558       0.00056070
Si      -4.77964153       1.72733826       3.28997961      -0.00059100      -0.00017656       0.00056070
Si      -1.05085665       7.07751876       0.21020398      -0.00003892       0.00061558      -0.00056070
Si       4.77964155      -1.72733828       3.28997961       0.00059100       0.00017656       0.00056070
Si       5.49908467      -0.69505814       0.21020398       0.00003892      -0.00061558      -0.00056070
Si       2.22411401       3.19123031      -0.00000000      -0.00000000       0.00000000      -0.00000000
Si       3.61767743      -0.15066603       1.75009180       0.00000000       0.00000000      -0.00000000
