22
Lattice="8.37442967133312 -5.604363261859982e-07 -1.2211447511892517e-13 -4.088246327553071 7.308714954446683 1.0524975872960206e-06 -4.0882469848868315 -2.51362510227318 6.862870955794719" Properties=species:S:1:pos:R:3:forces:R:3 unique_starting_index=400 config_type=initial n_minim_iter=1 energy=-3460.686782072127 stress="-0.5772454205202129 -0.5621656108946648 -0.5704532970291106 -0.011313800870018336 0.019292071691183695 0.01347937380659415" pbc="T T T"
Si       2.58236635       2.46932474       1.24658259     -29.21786544     -10.40055454       5.48225579
Si      -2.29858170       2.27541997       5.54423269       2.15308519      26.27264642      17.23434357
Si       3.39176509      -0.15338576       4.04339650      -5.18663993      -5.36826787      30.59723501
Si      -3.10798044       4.89813047       2.74741878     -21.87814031      21.24035975      -7.88063565
Si       3.39176536       3.84949579       1.24658279      -5.18663753      30.57701624       5.48226169
Si      -3.10798071       0.89524892       5.54423249     -21.87814272     -14.70492436      17.23433767
Si      -2.29858156       4.42345966       4.04339716       2.15308391       7.14728292      30.59723682
Si       2.58236621       0.32128505       2.74741812     -29.21786416       8.72480896      -7.88063745
Si      -2.40862151       0.48511059       4.16485500       7.77400765     -18.81174412     -11.66612399
Si       4.74047954       3.05854516       0.90692683      20.14804085       2.43690880     -11.77001640
Si      -1.59922197       3.26928176       3.18388070      20.21292746     -11.77948819      -1.75971083
Si       3.93108000       0.27437399       1.88790113       7.70912105      -4.59534713     -21.67642955
Si      -1.59922207       1.86528238       4.16485520      20.21292841       2.39885559     -11.66612093
Si       3.93108010       1.67837337       0.90692663       7.70912010     -18.77369091     -11.77001945
Si       4.74047932      -0.20029707       3.18388020      20.14803990     -11.89013317      -1.75971085
Si      -2.40862129       3.74395282       1.88790163       7.77400861      -4.48470214     -21.67642954
Si      -1.35904485      -0.95442978       5.72943436      -6.77491024      -1.93926693       3.52096258
Si      -1.35904441       5.70817939       1.07426872      -6.77490984       3.97313464      -0.61003294
Si       0.16950950       4.81176116       3.52173047      -1.61491068       0.94706057       7.65195937
Si       0.16950928       1.65203027       5.72943473      -1.61491028       6.85946214       3.52096385
Si       0.22743463      -0.13337889       5.03932575       6.67528399      -3.91470833      -5.60284438
Si       0.22743496       4.77779114       1.60789080       6.67528399      -3.91470833      -5.60284438
22
Lattice="8.579972610503873 -0.004858688158623319 -0.006953074747195749 -4.19282858323369 7.485729227034849 0.006954152036149057 -4.192829256050892 -2.56797521288109 7.031478371205287" Properties=species:S:1:pos:R:3:forces:R:3 unique_starting_index=400 config_type=initial n_minim_iter=2 energy=-3477.9766040828076 stress="-0.46799241929569174 -0.46358104055144517 -0.4660054824544017 -0.0033096877138096745 0.0056436146734557555 0.0039431945387439875" pbc="T T T"
Si       2.64028739       2.52637552       1.27643618     -24.28672504      -8.60904629       4.83596767
Si      -2.36070395       2.33651516       5.68347302       1.54037436      21.94860289      14.25599356
Si       3.47121118      -0.15759762       4.14169945      -4.34286966      -4.19423830      25.51264633
Si      -3.19162773       5.02048830       2.81820974     -18.40348102      17.53379490      -6.42068509
Si       3.47121146       3.94325067       1.27643638      -4.34286768      25.39882171       4.83597257
Si      -3.19162801       0.91964002       5.68347282     -18.40348300     -12.05926511      14.25598867
Si      -2.36070380       4.53319416       4.14865320       1.54037328       5.83775027      25.51264777
Si       2.64028725       0.32969652       2.81125599     -24.28672396       7.50180633      -6.42068654
Si      -2.47067983       0.49820041       4.26689978       7.52867410     -15.71124768      -8.81043185
Si       4.85636819       3.12956882       0.92526769      16.03828674       1.89044573     -10.97030173
Si      -1.64094177       3.34867229       3.26383269      17.38722698      -8.65107406      -1.99779935
Si       4.02663013       0.27909694       1.92833478       6.17973386      -5.16972790     -17.78293423
Si      -1.64094187       1.91305305       4.26689999      17.38722764       1.09936128      -8.81042943
Si       4.02663022       1.71471618       0.92526748       6.17973320     -14.92016324     -10.97030416
Si       4.85636797      -0.20750162       3.25687911      16.03828588     -10.95126153      -1.99779969
Si      -2.47067961       3.83527085       1.93528836       7.52867496      -2.86954042     -17.78293390
Si      -1.39729903      -0.97385585       5.86940821      -5.50553103      -1.32276935       2.95397727
Si      -1.39729857       5.84629568       1.10416771      -5.50553072       3.22870933      -0.22614130
Si       0.16778844       4.92845265       3.61012487      -1.53326566       0.89918020       6.13409681
Si       0.16778823       1.69489974       5.86940859      -1.53326536       5.45065888       2.95397824
Si       0.22959477      -0.13464570       5.16071007       5.39757607      -3.16539881      -4.53041081
Si       0.22959510       4.89220652       1.64844796       5.39757607      -3.16539881      -4.53041081
22
Lattice="10.104581107340731 -0.019648119046556393 -0.02811999460680237 -4.950022368640707 8.809098925666552 0.028121260338940555 -4.950023159149467 -3.003234965117846 8.28140003898396" Properties=species:S:1:pos:R:3:forces:R:3 unique_starting_index=400 config_type=initial n_minim_iter=3 energy=-3544.3608726963 stress="-0.07444580492673551 -0.06427619880589212 -0.06986529480318296 -0.007629864134161739 0.013010294901141724 0.009090295286312422" pbc="T T T"
Si       3.07913334       2.96000666       1.50420152      -8.74146602      -1.86284866       0.98842776
Si      -2.79580161       2.78000052       6.71106207       0.46323515       6.71760232       5.95983683
Si       4.07441455      -0.18924860       4.89037454      -2.64164122      -2.00842629       8.35753421
Si      -3.79108281       5.92925578       3.32488905      -5.63658964       6.86317995      -1.40926963
Si       4.07441487       4.65714088       1.50420176      -2.64164052       8.53845218       0.98842925
Si      -3.79108314       1.08286630       6.71106183      -5.63659034      -3.68369852       5.95983533
Si      -2.79580144       5.34557445       4.91849533       0.46323492       3.28594662       8.35753498
Si       3.07913317       0.39443273       3.29676826      -8.74146579       1.56880704      -1.40927040
Si      -2.91314296       0.58061115       5.01953742       1.86681526      -5.52897128      -4.55092008
Si       5.72745842       3.67510515       1.07136592       6.85118687       0.41631455      -2.76646288
Si      -1.92886761       3.93642696       3.84750369       5.73671042      -4.64126686      -0.56052810
Si       4.74318307       0.31928935       2.24339965       2.98129172      -0.47138987      -6.75685485
Si      -1.92886772       2.25897767       5.01953766       5.73671080       1.06989744      -4.55091913
Si       4.74318318       1.99673863       1.07136568       2.98129134      -6.18255417      -2.76646383
Si       5.72745816      -0.25793736       3.81938309       6.85118666      -2.74088418      -0.56052783
Si      -2.91314270       4.51365367       2.27152025       1.86681547      -2.37177255      -6.75685513
Si      -1.66291718      -1.13611301       6.91230896      -0.86300516      -0.11000672       0.49869538
Si      -1.66291664       6.88138168       1.31048468      -0.86300512       0.50610790       0.06821604
Si       0.17972704       5.80076595       4.26085492      -0.32529622       0.19076929       0.92917486
Si       0.17972679       2.00592675       6.91230942      -0.32529618       0.80688391       0.49869552
Si       0.26381234      -0.15471258       6.06842869       0.30875880      -0.18107105      -0.25915415
Si       0.26381273       5.75145436       1.94178930       0.30875880      -0.18107105      -0.25915415
22
Lattice="10.692328983052613 -0.09448410622889292 -0.13522739116193253 -5.302262814205876 9.285517487963766 0.13522871472430276 -5.302263640832312 -3.066511949942319 8.765592821905772" Properties=species:S:1:pos:R:3:forces:R:3 unique_starting_index=400 config_type=initial n_minim_iter=4 energy=-3552.392353920187 stress="-0.03891029656686611 -0.03705585554718589 -0.03807503453523581 -0.0013913157396791228 0.002372444349902812 0.0016576272729817744" pbc="T T T"
Si       3.20695033       3.09190057       1.57383295      -4.69882348      -1.59680034       0.86363831
Si      -3.04813964       2.99097950       7.13216024       0.31761344       4.16615312       2.81369408
Si       4.25721059      -0.20146835       5.12620080      -0.90028706      -0.86751631       4.87970114
Si      -4.09839990       6.28434843       3.57979238      -3.48092298       3.43686909      -1.20236874
Si       4.25721093       4.88278401       1.57383321      -0.90028667       4.88038889       0.86363924
Si      -4.09840024       1.20009607       7.13215998      -3.48092336      -2.31103611       2.81369315
Si      -3.04813946       5.66842471       5.26142902       0.31761324       1.20922300       4.87970143
Si       3.20695015       0.41445537       3.44456416      -4.69882328       1.36012978      -1.20236904
Si      -3.13591458       0.65281722       5.31949170       1.28050424      -3.45227415      -1.63862407
Si       6.03331394       3.82402243       1.08788974       3.28931918       0.77230939      -2.19701941
Si      -2.10063797       4.16334075       4.10012707       3.63806330      -1.73393994      -0.03040540
Si       4.99803733       0.31349891       2.30725437       0.93176013      -0.94602482      -3.80523808
Si      -2.10063809       2.41815006       5.31949196       3.63806345       0.56778881      -1.63862349
Si       4.99803745       2.05868959       1.08788948       0.93175998      -3.24775357      -2.19701999
Si       6.03331367      -0.29363741       3.96489905       3.28931898      -2.32861181      -0.03040548
Si      -3.13591431       4.77047706       2.44248239       1.28050445      -0.35135295      -3.80523800
Si      -1.82480724      -1.13859777       7.29988504      -0.62819797       0.00583737       0.39447692
Si      -1.82480668       7.24616959       1.44144732      -0.62819794       0.36840561       0.14115045
Si       0.10286376       6.11569003       4.52795913      -0.31176953       0.18283662       0.64780346
Si       0.10286350       2.14842795       7.29988552      -0.31176950       0.54540487       0.39447700
Si       0.21744083      -0.12751811       6.39472850       0.56274069      -0.33001827      -0.47233174
Si       0.21744124       6.04849661       2.07954645       0.56274069      -0.33001827      -0.47233174
22
Lattice="11.638211891907284 -0.1448345660758147 -0.20729035080368877 -5.807968788278216 10.08644888220388 0.20729178245409005 -5.807969682410668 -3.274302579885054 9.542450060941132" Properties=species:S:1:pos:R:3:forces:R:3 unique_starting_index=400 config_type=initial n_minim_iter=5 energy=-3556.7420348166174 stress="-0.0007378829376435572 0.007318735548559175 0.0028909127261124257 -0.00604457082094593 0.010307083789681563 0.007201561213069177" pbc="T T T"
Si       3.44830472       3.33764427       1.70629371       0.47525344      -0.01785158      -0.22303182
Si      -3.36863503       3.29600888       7.78798177       0.18176385      -0.36745504      -0.32843020
Si       4.60074158      -0.22152579       5.56611107       0.24759004      -0.06977413      -0.45799393
Si      -4.52107189       6.85517894       3.92816441       0.40942725      -0.31553248      -0.09346809
Si       4.60074195       5.30275726       1.70629399       0.24759002      -0.40605870      -0.22303188
Si      -4.52107226       1.33089589       7.78798149       0.40942727       0.02075208      -0.32843015
Si      -3.36863483       6.17933389       5.77340232       0.18176387      -0.18201962      -0.45799395
Si       3.44830453       0.45431926       3.72087316       0.47525342      -0.20328700      -0.09346808
Si      -3.43915320       0.72210948       5.79104114       0.74997681      -1.29646627       0.87453583
Si       6.56025204       4.12790299       1.15043596       0.00792852       0.85199405      -1.51067740
Si      -2.30914787       4.52674036       4.47904438       1.49760550       0.82862494       0.28046642
Si       5.43024671       0.32327212       2.46243272      -0.73970017      -1.27309717      -0.91660799
Si      -2.30914800       2.64897184       5.79104142       1.49760544      -0.02162484       0.87453602
Si       5.43024683       2.20104064       1.15043568      -0.73970011      -0.42284739      -1.51067759
Si       6.56025174      -0.33941771       4.27175335       0.00792835      -1.71154283       0.28046605
Si      -3.43915290       5.18943019       2.66972376       0.74997698       1.26707061      -0.91660762
Si      -2.02545571      -1.20287057       7.93878504      -0.07059020       1.19990005       0.48356760
Si      -2.02545510       7.86820053       1.60082683      -0.07059028       0.04139736       1.29301354
Si       0.06100434       6.64459939       4.94158548      -1.08166384       0.63434000      -0.32587858
Si       0.06100405       2.35491903       7.93878555      -1.08166392      -0.52416269       0.48356735
Si       0.20384595      -0.11954544       6.94326576      -1.67759113       0.98382031       1.40807224
Si       0.20384640       6.56083029       2.27568662      -1.67759113       0.98382031       1.40807224
22
Lattice="11.67006217780944 -0.33792690869322917 -0.48364975398710713 -5.9920373272789 10.019981694063768 0.4836511482594256 -5.992038198066993 -2.991942075681292 9.575083485942208" Properties=species:S:1:pos:R:3:forces:R:3 unique_starting_index=400 config_type=initial n_minim_iter=6 energy=-3557.6264611375295 stress="-0.006382416911054679 -0.0038074186217248616 -0.005222607411228121 -0.0019319221313470567 0.003294275784456572 0.0023017110557081322" pbc="T T T"
Si       3.36190271       3.24935211       1.65935814       0.43224407      -0.86549892      -0.40441830
Si      -3.61386082       3.40436974       7.86364029       0.81677907       0.13301153      -0.64393894
Si       4.48339969      -0.21708798       5.41752298       0.96637092      -0.39532207      -0.09656695
Si      -4.73535780       6.87080983       4.10547546       0.28265222      -0.33716531      -0.95179029
Si       4.48340005       5.16170701       1.65935842       0.96637095       0.04528359      -0.40441817
Si      -4.73535816       1.49201484       7.86364002       0.28265219      -0.77777097      -0.64393907
Si      -3.61386063       6.21310943       5.90117361       0.81677902      -0.65040320      -0.09656699
Si       3.36190252       0.44061242       3.62182483       0.43224412      -0.08208418      -0.95179025
Si      -3.59248452       0.84263045       5.84953494       0.48543150      -1.63973479       1.44927915
Si       6.47878185       3.97066712       1.03939476      -0.26027161       1.50769017      -1.63826524
Si      -2.48918518       4.55587781       4.56957008       1.66804397       1.23126991       0.85228381
Si       5.37548250       0.25741976       2.31935963      -1.44288407      -1.36331453      -1.04126990
Si      -2.48918530       2.72395429       5.84953521       1.66804391       0.37683232       1.44927944
Si       5.37548262       2.08934328       1.03939449      -1.44288402      -0.50887693      -1.63826553
Si       6.47878156      -0.38960838       4.08591966      -0.26027185      -2.05685577       0.85228334
Si      -3.59248423       5.20290595       2.80301004       0.48543174       1.92481115      -1.04126943
Si      -2.19844332      -1.03467151       7.92268466      -0.05629789       0.79322695       0.32569149
Si      -2.19844273       7.79523496       1.75322820      -0.05629794       0.03301571       0.85685115
Si      -0.17023948       6.60579808       5.00070929      -0.71976596       0.42210557      -0.20546833
Si      -0.17023976       2.42378078       7.92268516      -0.71976601      -0.33810566       0.32569133
Si       0.03455867      -0.02026721       6.89961111      -2.17230217       1.27394272       1.82330386
Si       0.03455910       6.48569468       2.35389494      -2.17230218       1.27394272       1.82330386
22
Lattice="11.817929699436451 -0.3940738220908208 -0.5640088438575235 -6.113225361007326 10.121621938378288 0.5640102446811462 -6.113226235887016 -2.9514413071335595 9.69816073971954" Properties=species:S:1:pos:R:3:forces:R:3 unique_starting_index=400 config_type=initial n_minim_iter=7 energy=-3558.018945213112 stress="-0.000542735448825361 0.0006878222110762288 1.1522181220428003e-05 -0.000923240057310245 0.0015742908680829583 0.0010999573029400178" pbc="T T T"
Si       3.37999904       3.26136623       1.66509526       0.72678223      -0.56960122      -0.55524915
Si      -3.72037781       3.47477949       7.97587061       0.76399659      -0.30466335      -0.69602372
Si       4.50842825      -0.21989815       5.44187696       0.85191689      -0.39886482      -0.52545604
Si      -4.84880702       6.95604387       4.19908891       0.63886193      -0.47539975      -0.72581684
Si       4.50842861       5.18554184       1.66509554       0.85191689      -0.35622409      -0.55524912
Si      -4.84880738       1.55060388       7.97587033       0.63886193      -0.51804048      -0.69602375
Si      -3.72037762       6.29427808       6.00588669       0.76399658      -0.54878478      -0.52545606
Si       3.37999885       0.44186764       3.63507918       0.72678225      -0.32547979      -0.72581681
Si      -3.67595730       0.88142490       5.93869390       0.35347390      -1.44295863       1.65620046
Si       6.53334307       3.97939754       1.01825476      -0.53939683       1.55199279      -1.50014759
Si      -2.56379263       4.62105663       4.65085651       1.43188984       1.41899898       0.94138556
Si       5.42117840       0.23976581       2.30609215      -1.61781276      -1.30996481      -0.78533269
Si      -2.56379275       2.77786571       5.93869417       1.43188977       0.39593461       1.65620073
Si       5.42117852       2.08295672       1.01825449      -1.61781269      -0.28690044      -1.50014786
Si       6.53334278      -0.41246139       4.08684700      -0.53939706      -1.94240015       0.94138507
Si      -3.67595701       5.27328382       2.87010166       0.35347414       2.05143431      -0.78533220
Si      -2.27170906      -1.00025815       8.01360260       0.05400471       0.89577518       0.29436215
Si      -2.27170847       7.86877126       1.81681094       0.05400464      -0.03167107       0.94236893
Si      -0.23604048       6.67495670       5.07624427      -0.75541634       0.44301270      -0.35364483
Si      -0.23604076       2.47092286       8.01360310      -0.75541640      -0.48443355       0.29436195
Si      -0.01722650       0.01010211       6.97563224      -1.90830011       1.11911918       1.60171591
Si      -0.01722606       6.54663373       2.40855699      -1.90830011       1.11911918       1.60171591
22
Lattice="11.834764599794733 -0.42275279119185594 -0.6050550213153019 -6.14647319801259 10.12231389509595 0.6050564181086319 -6.146474070375171 -2.913136996453016 9.71292715796512" Properties=species:S:1:pos:R:3:forces:R:3 unique_starting_index=400 config_type=initial n_minim_iter=8 energy=-3558.2844581609875 stress="0.00021171547149464827 0.0003824582726013591 0.0002886200356440154 -0.00012810175716813837 0.00021843660272749562 0.000152621692978916" pbc="T T T"
Si       3.37374955       3.24945302       1.65757581       0.63911702      -0.57251914      -0.56572313
Si      -3.75690731       3.49297418       7.99238030       0.77632286      -0.25756304      -0.62231462
Si       4.49936159      -0.22120956       5.42359362       0.81166690      -0.43550291      -0.45587876
Si      -4.88251934       6.96363676       4.22636250       0.60377298      -0.39457927      -0.73215899
Si       4.49936195       5.16882483       1.65757609       0.81166691      -0.27829050      -0.56572309
Si      -4.88251970       1.57360237       7.99238003       0.60377297      -0.55179168      -0.62231466
Si      -3.75690712       6.30352310       6.02864952       0.77632285      -0.49577089      -0.45587877
Si       3.37374936       0.43890411       3.62130660       0.63911703      -0.33431129      -0.73215898
Si      -3.70151215       0.89583755       5.95863546       0.33755828      -1.43725343       1.67236983
Si       6.52618731       3.96536179       0.99885264      -0.55553822       1.56508737      -1.48941018
Si      -2.58884657       4.63453114       4.67205033       1.41914095       1.43036272       0.95737418
Si       5.41352173       0.22666820       2.28543777      -1.63712089      -1.30252878      -0.77441452
Si      -2.58884670       2.79313249       5.95863574       1.41914089       0.40703966       1.67237010
Si       5.41352186       2.06806684       0.99885236      -1.63712082      -0.27920572      -1.48941044
Si       6.52618702      -0.42585275       4.06699464      -0.55553845      -1.93682124       0.95737369
Si      -3.70151186       5.28705209       2.89049346       0.33755852       2.06465518      -0.77441404
Si      -2.29946250      -0.97408876       8.02049293       0.10844973       0.87783289       0.25378707
Si      -2.29946191       7.86624104       1.84375368       0.10844967      -0.06360026       0.91156650
Si      -0.27242833       6.67749011       5.08936193      -0.71317826       0.41824226      -0.40399256
Si      -0.27242861       2.48236902       8.02049342      -0.71317832      -0.52319089       0.25378687
Si      -0.04937442       0.02895520       6.98258743      -1.79019130       1.04985448       1.50258225
Si      -0.04937398       6.54668065       2.42865206      -1.79019130       1.04985448       1.50258225
22
Lattice="11.827700120083092 -0.4280229636018464 -0.6125978468302246 -6.147623947124169 10.113575623084754 0.6125992416062555 -6.147624818226853 -2.903049015671614 9.707316076900685" Properties=species:S:1:pos:R:3:forces:R:3 unique_starting_index=400 config_type=initial n_minim_iter=9 energy=-3558.6235450535405 stress="0.0003836566978640083 0.00043235628520735085 0.0004055915658133145 -3.653742549677357e-05 6.230290475689435e-05 4.353104999303194e-05" pbc="T T T"
Si       3.37301114       3.24137831       1.65157018       0.52696562      -0.53111683      -0.53047088
Si      -3.75671072       3.49195352       7.98536838       0.72637790      -0.20390423      -0.52151263
Si       4.49783301      -0.22360838       5.41268084       0.72078307      -0.42911259      -0.37082524
Si      -4.88153259       6.95694021       4.22425772       0.53256045      -0.30590847      -0.68115827
Si       4.49783337       5.15940276       1.65157046       0.72078308      -0.20062315      -0.53047083
Si      -4.88153295       1.57392907       7.98536810       0.53256043      -0.53439791      -0.52151268
Si      -3.75671053       6.29728994       6.02527956       0.72637789      -0.41957242      -0.37082524
Si       3.37301095       0.43604189       3.61165899       0.52696563      -0.31544864      -0.68115827
Si      -3.70203227       0.89198318       5.96442284       0.37818134      -1.40870339       1.59828135
Si       6.51659931       3.96573093       0.98807709      -0.51213002       1.48725735      -1.48585263
Si      -2.58573662       4.63916223       4.67623383       1.41405558       1.37778041       0.88551543
Si       5.40030366       0.21855188       2.27626610      -1.54800427      -1.29922645      -0.77308671
Si      -2.58573675       2.79546806       5.96442312       1.41405552       0.35764862       1.59828161
Si       5.40030378       2.06224605       0.98807682      -1.54800420      -0.27909465      -1.48585289
Si       6.51659901      -0.43609792       4.06363532      -0.51213025      -1.90671327       0.88551496
Si      -3.70203198       5.29381203       2.88886462       0.37818156       1.98526724      -0.77308623
Si      -2.30277244      -0.96423485       8.01614463       0.17376671       0.85878911       0.20601851
Si      -2.30277185       7.85876901       1.85151102       0.17376665      -0.10190529       0.87725577
Si      -0.28264410       6.67406801       5.08606191      -0.66467137       0.38979548      -0.46521896
Si      -0.28264438       2.48044724       8.01614513      -0.66467143      -0.57089891       0.20601831
Si      -0.06516643       0.03821640       6.98581767      -1.74788494       1.02504399       1.46707276
Si      -0.06516599       6.54652872       2.43845925      -1.74788494       1.02504399       1.46707276
22
Lattice="11.715750196204908 -0.43676247831220955 -0.6251061065253561 -6.100599351008433 10.01160576316189 0.6251074853585933 -6.100600212154099 -2.8562341418517674 9.615868413468327" Properties=species:S:1:pos:R:3:forces:R:3 unique_starting_index=400 config_type=initial n_minim_iter=10 energy=-3560.6724889761035 stress="-0.0014298833169838435 0.0002559870967199865 -0.000670547472016382 -0.0012648437015827184 0.0021567867035541897 0.0015069472435347187" pbc="T T T"
Si       3.36252464       3.17914113       1.60566882      -0.53275945      -0.20245705      -0.07343823
Si      -3.70111108       3.45334182       7.88693190       0.18869936       0.40423048       0.36222222
Si       4.48210536      -0.24223130       5.33006183      -0.08339088      -0.26286047       0.50414779
Si      -4.82069180       6.87471425       4.16253889      -0.26066921       0.46463390      -0.21536380
Si       4.48210572       5.08822847       1.60566910      -0.08339083       0.56379737      -0.07343812
Si      -4.82069216       1.54425448       7.88693162      -0.26066927      -0.36202395       0.36222211
Si      -3.70111089       6.21813764       5.95516881       0.18869934       0.20110236       0.50414786
Si       3.36252445       0.41434531       3.53743192      -0.53275944       0.00067107      -0.21536387
Si      -3.66266594       0.83687757       5.97399953       0.71659175      -1.22585338       0.69990099
Si       6.42742356       3.97565481       0.91383504       0.11139939       0.74027946      -1.39486850
Si      -2.51842573       4.65071867       4.67252716       1.41968070       0.66647807       0.21539578
Si       5.28318334       0.16181371       2.21530741      -0.59168956      -1.15205199      -0.91036329
Si      -2.51842585       2.78801296       5.97399981       1.41968065      -0.02696021       0.69990116
Si       5.28318347       2.02451942       0.91383476      -0.59168951      -0.45861372      -1.39486868
Si       6.42742326      -0.50922414       4.04742037       0.11139923      -1.56437740       0.21539545
Si      -3.66266564       5.32175652       2.84041419       0.71659191       1.07880348      -0.91036297
Si      -2.28807046      -0.90864897       7.94809647       0.38609355       0.60211669      -0.02059948
Si      -2.28806987       7.77575469       1.88030282       0.38609350      -0.22642396       0.55830195
Si      -0.32397898       6.62391642       5.02512966      -0.33700845       0.19763813      -0.59950108
Si      -0.32397926       2.44048018       7.94809695      -0.33700850      -0.63090252      -0.02059965
Si      -0.16417869       0.09628197       6.98969758      -1.01694714       0.59638683       0.85356617
Si      -0.16417826       6.53020192       2.49431711      -1.01694714       0.59638683       0.85356617
22
Lattice="12.091032519274641 -0.7941045727318139 -1.1365445237970928 -6.595672890775985 10.16468226287102 1.1365458732148888 -6.5956737335503375 -2.428640671719134 9.935501768777936" Properties=species:S:1:pos:R:3:forces:R:3 unique_starting_index=400 config_type=initial n_minim_iter=11 energy=-3560.7086517904463 stress="0.009400542364670248 0.0024472632608126673 0.0062687037313539674 0.005216777741141446 -0.00889554724585958 -0.006215320386942723" pbc="T T T"
Si       3.28037503       3.10221585       1.56477645       0.08021840      -0.97322071      -0.66158338
Si      -4.23647629       3.75514908       8.24968195       1.09752720       0.28253392      -0.32694764
Si       4.38934609      -0.24795089       5.22677757       0.88853163      -0.76054795       0.15285446
Si      -5.34544735       7.10531582       4.58768082       0.28921397       0.06986115      -1.14138548
Si       4.38934644       4.99321180       1.56477672       0.88853171       0.40509903      -0.66158318
Si      -5.34544770       1.86415314       8.24968168       0.28921389      -1.09578582      -0.32694784
Si      -4.23647611       6.45496124       6.36332295       1.09752715      -0.40417295       0.15285452
Si       3.28037485       0.40240370       3.45113545       0.08021844      -0.28651384      -1.14138554
Si      -4.01673168       1.04869008       6.24776343       0.24876523      -1.06076976       1.81332913
Si       6.46544304       3.81192859       0.70889366      -0.88452577       1.43361039      -1.27970878
Si      -2.87613194       4.83707052       4.95974314       1.04722073       1.59928183       0.90603837
Si       5.32484330       0.02354815       1.99691395      -1.68298127      -1.22644120      -0.37241802
Si      -2.87613206       2.99361782       6.24776371       1.04722064       0.30074049       1.81332932
Si       5.32484342       1.86700086       0.70889338      -1.68298118       0.07210014      -1.27970897
Si       6.46544274      -0.64535475       3.82319794      -0.88452598      -1.69469415       0.90603790
Si      -4.01673138       5.50597342       3.13345915       0.24876544       2.06753478      -0.37241755