20
Lattice="2.5266666638999866 0.18235784029934826 -0.08900322517420849 1.5704879983616165 8.29854115154003 1.6259694974993424 0.4896101992363982 6.621926414252421 17.5086345798326" Properties=species:S:1:pos:R:3:forces:R:3 unique_starting_index=238 config_type=initial n_minim_iter=1 energy=-3255.530993023456 stress="9.847166005173213e-05 0.00011579237116917097 0.00032271918715837225 0.00011579237116917097 -0.0017294563286404936 -0.0010584988803274856 0.00032271918715837225 -0.0010584988803274856 0.0006201659852065616" free_energy=-3255.530993023456 pbc="T T T"
Si       4.09016320      11.29193172       9.84282508      -0.02436967       0.05405355       0.03515217
Si       3.24713307      12.84994512      18.00704666       0.04841346      -0.05777564      -0.02378861
Si       3.63918405      14.96848746      16.29135526      -0.07340948      -0.00556987      -0.00715624
Si       1.84513168       5.49163080       2.79172252       0.04127320      -0.02563527       0.08332105
Si       1.79277853       8.86403204       9.07959015      -0.04275323      -0.12594811      -0.03039662
Si       2.28757969       6.77946259       6.43565534      -0.04393920       0.02949230       0.00873020
Si       3.94773477      10.72605600       7.16451716      -0.02151475      -0.06567315      -0.04236640
Si      -0.33776537       1.33365374       3.42851299       0.00437169      -0.01228384       0.09637115
Si       2.32366026       4.78602892       5.07092726      -0.15584703       0.12732812      -0.03308865
Si       4.24616719      10.65913483      15.05138312      -0.07196473       0.02571848      -0.00855682
Si       3.87868482      13.06332570      14.80133194       0.10055365       0.03764150      -0.04460801
Si       1.92957806       7.74154769      11.20736698       0.01793050      -0.00767106      -0.16279465
Si       1.29527749       7.74741949       3.62600892      -0.03061534      -0.03539473      -0.07221576
Si       1.98360790       6.91829205      17.16417055       0.15205370      -0.17974693       0.01545927
Si       1.89771063       9.27825295      17.16452333       0.01024790      -0.02329000       0.01999761
Si       2.33469727       5.40658319       8.38124243       0.03066074      -0.00692847       0.11042057
Si       4.34823209       8.90903461      13.29537819       0.06710300       0.04006929       0.00827446
Si       1.59728322      11.01195109      12.35889863      -0.00481014       0.05764410      -0.00956358
Si       2.33649498       5.42598073      10.82706399      -0.06079969       0.06431236       0.03405648
Si       1.67579279       3.30183128       1.89178725       0.05741544       0.10965736       0.02275237
20
Lattice="2.5262794722066184 0.1822422442854885 -0.08991391111557771 1.5678477790283316 8.324115071779632 1.6376629662921796 0.4792220143365797 6.670067082156865 17.502244433970436" Properties=species:S:1:pos:R:3:forces:R:3 unique_starting_index=238 config_type=initial n_minim_iter=2 energy=-3255.5331899946696 stress="0.0002910045466616294 -5.308695171634518e-05 6.543138557720507e-05 -5.308695171634518e-05 0.0013370227293841954 0.00016961935287571831 6.543138557720507e-05 0.00016961935287571831 0.0007509118016856227" free_energy=-3255.5331899946696 pbc="T T T"
Si       4.08219009      11.33961316       9.85030744      -0.02310084       0.05037952       0.00805529
Si       3.23512064      12.91547702      18.00921703       0.04798855      -0.05345982      -0.02762705
Si       3.62701827      15.03717493      16.29871440      -0.07007365      -0.02202819      -0.01903455
Si       1.84256592       5.51120142       2.79773684       0.02714604      -0.03047340       0.05658982
Si       1.78592937       8.90321766       9.08457384      -0.04460713      -0.08508642      -0.02615761
Si       2.28240592       6.80900227       6.43965225      -0.04198543       0.01533850      -0.02344279
Si       3.94129196      10.76705318       7.17340002      -0.02239533      -0.04374914      -0.04959327
Si      -0.33971718       1.34320603       3.42801162       0.00810783      -0.04571248       0.07511613
Si       2.31902290       4.80816117       5.07266990      -0.14921329       0.11999069       0.01272534
Si       4.23535962      10.71375377      15.05231953      -0.07418687       0.04473453      -0.04581259
Si       3.86844459      13.12433693      14.80662598       0.09820098       0.03032734      -0.00642266
Si       1.92210568       7.78177318      11.20761949       0.02385238      -0.04633908      -0.13821569
Si       1.29160025       7.77474369       3.63457191      -0.02407960      -0.03182570      -0.03823341
Si       1.97383713       6.96552678      17.15792528       0.14635028      -0.13599211      -0.00303548
Si       1.88683153       9.33282718      17.16236224       0.01662411      -0.07875562       0.03670406
Si       2.32912200       5.43542924       8.38143147       0.02740974      -0.05432478       0.11760430
Si       4.33931300       8.95584337      13.29510938       0.06651329       0.05281937       0.00523180
Si       1.58854631      11.06361781      12.36448049      -0.00275543       0.06402538       0.00889492
Si       2.32920909       5.45938574      10.82448793      -0.06734622       0.10120679       0.02401524
Si       1.67420660       3.31445741       1.89476749       0.05755057       0.14892461       0.03263822
20
Lattice="2.52494558105959 0.1820301934181566 -0.09061890983527744 1.5661920389587012 8.320718652090688 1.6398877430090435 0.4720165000929686 6.67836301292597 17.476489550363624" Properties=species:S:1:pos:R:3:forces:R:3 unique_starting_index=238 config_type=initial n_minim_iter=3 energy=-3255.534423365881 stress="-0.0010946395992403627 -2.8450733081514672e-05 -0.00010743713984899273 -2.8450733081514672e-05 -0.0003935151724271684 0.0006333453879057921 -0.00010743713984899273 0.0006333453879057921 -0.001954198905377727" free_energy=-3255.534423365881 pbc="T T T"
Si       4.07574609      11.34050298       9.83961062      -0.02285069       0.04117817      -0.01554464
Si       3.22645213      12.92029646      17.98556470       0.05150860      -0.05531650      -0.03614597
Si       3.61788720      15.03996967      16.27937725      -0.06966728      -0.03388093      -0.01868021
Si       1.84060374       5.50989097       2.79643254       0.02010482      -0.02225970       0.04299757
Si       1.78092623       8.90383119       9.07409742      -0.04775638      -0.07670025      -0.04748767
Si       2.27821525       6.80981872       6.43222847      -0.04333495       0.03308481      -0.03677037
Si       3.93598902      10.76567402       7.16649711      -0.01935822      -0.03412605      -0.03844988
Si      -0.34084630       1.34457601       3.42376377       0.01384368      -0.07090535       0.07590000
Si       2.31458938       4.80987453       5.06628391      -0.14393065       0.10916942       0.03490872
Si       4.22645855      10.71840850      15.03182761      -0.07299197       0.05407968      -0.06113706
Si       3.86104712      13.12750079      14.78842055       0.09862330       0.02864077       0.01617145
Si       1.91670635       7.78492331      11.19180834       0.02475437      -0.04965038      -0.11556939
Si       1.28913541       7.77276115       3.63272789      -0.01826933      -0.03756534      -0.01424624
Si       1.96703638       6.97228317      17.13240330       0.14048633      -0.12279754      -0.01741332
Si       1.87904711       9.33900168      17.13867286       0.01696294      -0.08855995       0.03761026
Si       2.32469865       5.43788348       8.37063877       0.02574198      -0.05912052       0.11599576
Si       4.33209857       8.96032403      13.27668516       0.06576838       0.05571556      -0.00200612
Si       1.58262394      11.06648968      12.35012870      -0.00491775       0.06691609       0.02670343
Si       2.32315186       5.46440145      10.80887858      -0.06688050       0.10201816       0.02318499
Si       1.67291592       3.31491621       1.89332227       0.05216333       0.16007986       0.02997867
20
Lattice="2.531051030959431 0.18185299828662146 -0.0945060888856651 1.5674867079195318 8.314122358370962 1.6429288787978449 0.4456510348326052 6.683387026108978 17.482587151441415" Properties=species:S:1:pos:R:3:forces:R:3 unique_starting_index=238 config_type=initial n_minim_iter=4 energy=-3255.5430314076493 stress="0.002665594595261487 0.00021290427738939553 -0.0006706167713445686 0.00021290427738939553 -0.0006990198982366275 0.0005660623002661268 -0.0006706167713445686 0.0005660623002661268 -0.0016487229371041257" free_energy=-3255.5430314076493 pbc="T T T"
Si       4.06881227      11.33903961       9.84232175      -0.01809512      -0.01592136      -0.02107611
Si       3.20855934      12.91697453      17.98978000       0.05032655      -0.05787369      -0.02140977
Si       3.59723607      15.03545653      16.28478814      -0.04638231      -0.03250868      -0.01891834
Si       1.84220042       5.50519702       2.80062787       0.01614363       0.02588364       0.01911277
Si       1.76858406       8.89641273       9.07650632      -0.04858351      -0.01514883      -0.07668340
Si       2.27128290       6.80897228       6.43293740      -0.04435243       0.02873953       0.00945926
Si       3.93305739      10.75786637       7.16578058      -0.01692439       0.00800560      -0.00653110
Si      -0.34658178       1.34320061       3.42997356       0.00700210      -0.06186655      -0.00467737
Si       2.30413152       4.81511933       5.06682217      -0.12485019       0.03719729       0.05925277
Si       4.20899002      10.72046893      15.03208159      -0.06054040       0.02037841      -0.02611799
Si       3.85238106      13.12662848      14.79227191       0.08659398       0.04232613       0.01458000
Si       1.90494109       7.78292350      11.18797351       0.00621967       0.00954779      -0.01253860
Si       1.28531838       7.76608829       3.63397054      -0.01012939      -0.01628782       0.01673138
Si       1.95259349       6.96910090      17.13611516       0.11688079      -0.07027965      -0.02384291
Si       1.85739740       9.33781819      17.14589345       0.01947666      -0.08478376       0.02871620
Si       2.31854842       5.43598745       8.37779102       0.01732266      -0.02399575       0.07086229
Si       4.32509563       8.96332594      13.27772281       0.05538922       0.02599129      -0.05593699
Si       1.56687496      11.06759964      12.35696447      -0.00583245       0.06971519       0.01424773
Si       2.30815478       5.47123972      10.81173115      -0.04659915       0.05786867       0.02926627
Si       1.67694381       3.32069939       1.89464848       0.04693408       0.05301257       0.00550392
20
Lattice="2.522521764226888 0.18090365380957316 -0.09550413777904897 1.5584768121489654 8.314471456490068 1.645116887106841 0.4358107598590798 6.683000757236636 17.516332498507435" Properties=species:S:1:pos:R:3:forces:R:3 unique_starting_index=238 config_type=initial n_minim_iter=5 energy=-3255.548741092928 stress="-0.001914558085646825 -0.00032508621145114266 -0.000517688800087337 -0.00032508621145114266 -0.00020150064597861553 3.549024659670777e-05 -0.000517688800087337 3.549024659670777e-05 0.00025964316341475503" free_energy=-3255.548741092928 pbc="T T T"
Si       4.04629822      11.34063115       9.86000063      -0.01319766      -0.07680390      -0.03052441
Si       3.18954709      12.91325259      18.02170642       0.05362667      -0.06882391      -0.03326736
Si       3.57028760      15.03380828      16.31378129      -0.03524970      -0.01809316      -0.01586954
Si       1.83448322       5.50383741       2.80824132       0.01312841       0.05775033       0.01980179
Si       1.75378129       8.89159051       9.09117262      -0.05239619       0.02836672      -0.09036864
Si       2.25658324       6.80987621       6.44360774      -0.05049578       0.01805595       0.07294729
Si       3.91221950      10.75498336       7.17567304      -0.01277857       0.04212598       0.02299251
Si      -0.34662948       1.34088915       3.44064882      -0.00066968      -0.03685625      -0.07266993
Si       2.28487833       4.82059801       5.07636473      -0.11739700      -0.02237377       0.06763468
Si       4.18187637      10.72143800      15.05753532      -0.04434393      -0.02366173       0.02784198
Si       3.83481146      13.12770038      14.81874177       0.07647192       0.05315995       0.00346237
Si       1.89300765       7.78073332      11.20194175      -0.00358088       0.07620703       0.06150943
Si       1.27556749       7.76458430       3.63823681      -0.00140277       0.00825589       0.04318672
Si       1.94549276       6.96069325      17.16842976       0.09987594      -0.01650557      -0.03164298
Si       1.84273938       9.33356223      17.18006835       0.02239484      -0.06202708       0.01226875
Si       2.30734639       5.43309106       8.39914030       0.00846387       0.03669059       0.01746672
Si       4.30629300       8.96457359      13.30174173       0.04620229      -0.00250537      -0.09624119
Si       1.55304709      11.07111932      12.38049353      -0.00580497       0.06552560       0.00114947
Si       2.29128155       5.47518039      10.83336148      -0.03305692       0.00507161       0.03612132
Si       1.67239972       3.32754886       1.89909958       0.05021011      -0.06355893      -0.01579896
20
Lattice="2.525900241074799 0.18348955267932945 -0.08822460128844749 1.5733426592165953 8.321561055278199 1.6479542485976817 0.4925820602101914 6.688651767454358 17.496559563405334" Properties=species:S:1:pos:R:3:forces:R:3 unique_starting_index=238 config_type=initial n_minim_iter=6 energy=-3255.55283045303 stress="0.0001782721465741369 5.2207489974936746e-05 4.620298787914477e-05 5.2207489974936746e-05 0.00019976874826013437 -0.00027086928194026814 4.620298787914477e-05 -0.00027086928194026814 -0.0002046725277568096" free_energy=-3255.55283045303 pbc="T T T"
Si       4.08967443      11.35307544       9.85990073      -0.00683283      -0.09511165      -0.04854762
Si       3.26045500      12.92233347      18.00781280       0.05776076      -0.06805878      -0.03217049
Si       3.63268254      15.04680566      16.30386935      -0.02497517       0.00581683      -0.02014170
Si       1.85169582       5.50946172       2.81294589       0.02059798       0.07265699       0.00838356
Si       1.78790760       8.89646706       9.08255118      -0.04829514       0.05097967      -0.10943343
Si       2.28198737       6.81814507       6.44309441      -0.05449570       0.02198412       0.10568854
Si       3.94730002      10.76517587       7.17723379      -0.01722987       0.08135934       0.04279107
Si      -0.33572839       1.33920957       3.43731192      -0.02072162      -0.01032035      -0.12097549
Si       2.29912868       4.83049896       5.07842149      -0.09788945      -0.07605627       0.07462755
Si       4.23704789      10.73454018      15.05051572      -0.03667690      -0.03708624       0.04316311
Si       3.90011282      13.14305373      14.81185974       0.06113408       0.02788505       0.00615073
Si       1.93570835       7.78816775      11.18983023      -0.00608524       0.09891907       0.08914199
Si       1.29417344       7.76992709       3.63696375       0.00053212       0.01440376       0.04887238
Si       2.01116294       6.96197973      17.15272805       0.07933713       0.02642729      -0.02602217
Si       1.90405223       9.33853556      17.16632345       0.02260416      -0.06764158      -0.00483414
Si       2.34086189       5.43825833       8.40056598       0.00207989       0.03633889      -0.01801912
Si       4.36209421       8.97722631      13.29656446       0.03698834      -0.01556529      -0.09787432
Si       1.60077658      11.08422757      12.37071201       0.00023238       0.06359638       0.01673145
Si       2.32733786       5.48526134      10.82864954      -0.02075757      -0.00920674       0.04318438
Si       1.68640482       3.33586248       1.90255503       0.05269264      -0.12132051      -0.00071627
20
Lattice="2.527654623435629 0.18421894361490654 -0.08398314077845806 1.5805852632760897 8.316497046199418 1.6667353874175916 0.5233616723732775 6.7136178627414385 17.52320426575913" Properties=species:S:1:pos:R:3:forces:R:3 unique_starting_index=238 config_type=initial n_minim_iter=7 energy=-3255.5567560660215 stress="0.0012780136590183873 0.00028882702474019217 0.0004226040981860254 0.00028882702474019217 -0.0003545180893111512 0.0005878920657019931 0.0004226040981860254 0.0005878920657019931 0.0005643171123229671" free_energy=-3255.5567560660215 pbc="T T T"
Si       4.11174452      11.35973299       9.89357051      -0.00178810      -0.10520012      -0.03166144
Si       3.30041602      12.93845088      18.04831317       0.06205968      -0.05966254      -0.02821476
Si       3.66369851      15.06121420      16.34834419      -0.01023759      -0.00478182      -0.00844564
Si       1.86150486       5.51086380       2.83070895       0.02507935       0.05786915       0.00224589
Si       1.80387119       8.90221898       9.10384830      -0.04712127       0.06059372      -0.11043995
Si       2.29325851       6.82529188       6.46645632      -0.05643159       0.01489476       0.10130900
Si       3.96465616      10.76903204       7.20799097      -0.02295379       0.06779625       0.00600433
Si      -0.33008130       1.34148719       3.44152787      -0.01917491      -0.00817418      -0.08590188
Si       2.30155260       4.83835828       5.09745869      -0.08578860      -0.06934086       0.08306944
Si       4.26420292      10.75298476      15.08810542      -0.02557450      -0.06627459       0.03983768
Si       3.93789489      13.16036443      14.85318155       0.04246566       0.03271688       0.01397264
Si       1.95870245       7.80274350      11.21315735      -0.01049047       0.12850029       0.12033564
Si       1.30317280       7.76802072       3.65587121       0.00411811       0.01702978       0.05070808
Si       2.05116178       6.98143749      17.18095195       0.06010868       0.04012204      -0.02953752
Si       1.93777677       9.35591473      17.20100865       0.02818098      -0.03950696       0.01255123
Si       2.35932332       5.44835706       8.42499570      -0.00569966       0.03095099      -0.01033929
Si       4.39391684       8.99537250      13.32697264       0.02298248      -0.00760680      -0.10194958
Si       1.62590122      11.10037934      12.40367928       0.00444843       0.06697669      -0.00198462
Si       2.34505319       5.50360819      10.85314306      -0.00564216      -0.02694044       0.02337142
Si       1.69590641       3.33867274       1.91362122       0.04145927      -0.12996227      -0.04493069
20
Lattice="2.5300098130302833 0.18413950504983767 -0.08025848253771975 1.583342940100326 8.324980914751565 1.6602083943833683 0.5483959611848163 6.709422193790924 17.485536206943966" Properties=species:S:1:pos:R:3:forces:R:3 unique_starting_index=238 config_type=initial n_minim_iter=8 energy=-3255.5662371884214 stress="0.00299884611505666 0.0002731503803688666 0.0006685071037308533 0.0002731503803688666 0.0006727810082701227 -0.0002744647625108719 0.0006685071037308533 -0.0002744647625108719 -0.0001588017988815597" free_energy=-3255.5662371884214 pbc="T T T"
Si       4.12511966      11.36027641       9.86917592      -0.00055678      -0.05917639      -0.02628652
Si       3.33984439      12.92726123      18.00286441       0.07375161      -0.04487189      -0.01568593
Si       3.67851855      15.06438034      16.30830237       0.02522256       0.06719125      -0.01210226
Si       1.87192497       5.52002794       2.83171798       0.01905222       0.00854100      -0.04177408
Si       1.80703950       8.90165395       9.06730754      -0.02898037       0.03580922      -0.08347175
Si       2.29322013       6.83343902       6.46150136      -0.06504683       0.02563617       0.14597323
Si       3.97325223      10.77893640       7.19117906      -0.03134125       0.09624944      -0.00815142
Si      -0.32623995       1.33373457       3.43058667      -0.02855153       0.07260994      -0.06898435
Si       2.28291205       4.84627107       5.09704497      -0.04703113      -0.11919375       0.09025568
Si       4.27672611      10.75472025      15.05785573       0.00992377      -0.08280527       0.06074195
Si       3.97920955      13.17302364      14.82116146       0.01153510      -0.05396285       0.03155182
Si       1.97740767       7.81143781      11.18481428      -0.01817918       0.13193794       0.04475044
Si       1.30615235       7.77241207       3.64671585       0.01948303      -0.00738930       0.04117466
Si       2.10218476       6.96402353      17.14242640       0.00577828       0.08753275      -0.03512621
Si       1.96770874       9.34072237      17.16819280       0.02467354      -0.00945745      -0.06506073
Si       2.37639237       5.44819483       8.42014606      -0.02152721      -0.00637401      -0.06609381
Si       4.42767002       9.00035461      13.29047281      -0.01470170      -0.00469138      -0.02123050
Si       1.64340122      11.11910592      12.37641169       0.01079753       0.02735448       0.01646225
Si       2.35296043       5.51116349      10.83889157       0.01989027      -0.00853906       0.02210158
Si       1.71151390       3.34401595       1.91140410       0.03580807      -0.15640086      -0.00904405
20
Lattice="2.5274981951277016 0.18443155053361968 -0.08375932326657994 1.5810356346385765 8.319421594050269 1.6643610196055643 0.5245876922506895 6.714942751004136 17.501736839322632" Properties=species:S:1:pos:R:3:forces:R:3 unique_starting_index=238 config_type=initial n_minim_iter=9 energy=-3255.5737221333084 stress="0.0018169534883794498 0.00024667694135305386 0.00043597401462791536 0.00024667694135305386 9.713358390775382e-05 0.00014477827853529588 0.00043597401462791536 0.00014477827853529588 0.00023993003112465265" free_energy=-3255.5737221333084 pbc="T T T"
Si       4.10738880      11.35213257       9.87457691      -0.00478541      -0.01063944       0.01104331
Si       3.32172743      12.91979229      18.01517106       0.08156483      -0.02898923      -0.00624336
Si       3.64976797      15.06243655      16.32220460       0.04756808       0.07579605      -0.00223029
Si       1.87020018       5.52143465       2.83761493       0.01304633      -0.06332173      -0.05298937
Si       1.78761171       8.89975537       9.06594084      -0.01968538      -0.00993961      -0.04771387
Si       2.27577280       6.83548565       6.47593046      -0.07216009       0.02810388       0.12378248
Si       3.95830896      10.77958815       7.19743118      -0.03339826       0.04752120      -0.06317212
Si      -0.33141969       1.33207687       3.42979791      -0.00590997       0.07973182       0.03518612
Si       2.25823855       4.84549672       5.10825244      -0.03871773      -0.06338788       0.07901823
Si       4.24695903      10.75381245      15.07139357       0.03287435      -0.08930720       0.04295969
Si       3.96681814      13.17587093      14.83529495      -0.00543304      -0.07671672       0.04362945
Si       1.96149136       7.82033898      11.19584959      -0.02199331       0.11616830      -0.02685771
Si       1.30047989       7.76767420       3.65488821       0.02913517      -0.02731013       0.02525698
Si       2.09094932       6.96490227      17.15328248      -0.01666884       0.06502912      -0.04503555
Si       1.94637965       9.33604753      17.18460490       0.02459281       0.03646312      -0.07204366
Si       2.36435877       5.44999698       8.43061600      -0.03075653      -0.03620795      -0.04080288
Si       4.41204080       9.00373692      13.29176450      -0.03632397       0.02236294       0.03881084
Si       1.62640347      11.12659835      12.39138688       0.01026282       0.00633288      -0.00238274
Si       2.33177680       5.51767004      10.85142583       0.02937867       0.01329122      -0.00350850
Si       1.71484587       3.33921976       1.91242437       0.01740947      -0.08498067      -0.03670705
20
Lattice="2.523771530417623 0.18351190126584963 -0.08971966089115377 1.571772415938846 8.316886343074872 1.656590153851928 0.48080331071583415 6.704741620598178 17.49929920784968" Properties=species:S:1:pos:R:3:forces:R:3 unique_starting_index=238 config_type=initial n_minim_iter=10 energy=-3255.5787503634433 stress="-0.00018121021030306447 -3.758801364929539e-05 -2.6375510087642732e-05 -3.758801364929539e-05 -0.0001840254662025234 8.493378025036114e-05 -2.6375510087642732e-05 8.493378025036114e-05 6.182740704073262e-05" free_energy=-3255.5787503634433 pbc="T T T"
Si       4.07280649      11.33909847       9.85823246      -0.01170427       0.03411120       0.03185076
Si       3.27771488      12.90064399      17.99989956       0.08776688      -0.01480552      -0.00074411
Si       3.59861244      15.05194417      16.30643331       0.06121089       0.08201680      -0.00499605
Si       1.86109408       5.52027020       2.83157633       0.00307266      -0.11575904      -0.04971095
Si       1.75559722       8.89317492       9.04932887      -0.01263261      -0.04939090      -0.02480681
Si       2.24806685       6.83327806       6.47711169      -0.07839228       0.03614122       0.09855049
Si       3.92909123      10.77742570       7.18262423      -0.03013825       0.00351499      -0.07667104
Si      -0.34010867       1.32998933       3.42709552       0.01385715       0.07249820       0.09644006
Si       2.22919893       4.83909788       5.10857064      -0.03739908      -0.00132948       0.05606717
Si       4.19812777      10.73923788      15.06042813       0.04925953      -0.06767119       0.01867638
Si       3.92844172      13.16602274      14.82268629      -0.01206875      -0.09498685       0.04969703
Si       1.92936185       7.82130185      11.18961860      -0.02124406       0.07229621      -0.10396635
Si       1.28746373       7.76332125       3.65112568       0.03526485      -0.04259509       0.00825085
Si       2.05453940       6.95309569      17.14370290      -0.02734815       0.03008050      -0.04641789
Si       1.90286843       9.32020160      17.17639409       0.02311495       0.05569629      -0.07386795
Si       2.33933337       5.44407268       8.42504645      -0.03516498      -0.06137306      -0.01599994
Si       4.37456174       8.99537426      13.27344438      -0.05010514       0.04218311       0.09344739
Si       1.59128613      11.12426516      12.38433745       0.00757088      -0.01503439      -0.00623202
Si       2.29859409       5.51300906      10.84771137       0.03019902       0.05011843      -0.00945809
Si       1.71194113       3.33193932       1.90593487       0.00488077      -0.01571142      -0.04010892
20
Lattice="2.5176696543661907 0.18415172277038352 -0.09891843520940623 1.563517871739902 8.317517520760537 1.6396119266764224 0.41869839326050967 6.6830396539224814 17.487307727523476" Properties=species:S:1:pos:R:3:forces:R:3 unique_starting_index=238 config_type=initial n_minim_iter=11 energy=-3255.5852717129833 stress="-0.003259685159937942 -0.0004093875563165577 -0.0007183195516930642 -0.0004093875563165577 -0.00034750793223587106 5.030892582394206e-05 -0.0007183195516930642 5.030892582394206e-05 -8.44251216204221e-05" free_energy=-3255.5852717129833 pbc="T T T"
Si       4.02620431      11.32239940       9.82499603      -0.02086297       0.07658828       0.04755516
Si       3.22738809      12.86619336      17.96299611       0.09970707       0.01579504       0.00595127
Si       3.53258568      15.04183067      16.26851683       0.08875965       0.06538893      -0.02461212
Si       1.85220669       5.51580531       2.81666937      -0.01532886      -0.16901964      -0.01431722
Si       1.70989801       8.88085192       9.01109841       0.00263725      -0.08362968      -0.02336144
Si       2.20298276       6.83475379       6.48247618      -0.09304954       0.05638510       0.04525860
Si       3.88888809      10.78042759       7.14778740      -0.01789243      -0.07183266      -0.02955980
Si      -0.35193596       1.32861892       3.42500923       0.03676733       0.00973840       0.11447582
Si       2.17981283       4.83028065       5.11126169      -0.03224988       0.13078151      -0.00414097
Si       4.13106361      10.71243614      15.03549657       0.07615588       0.00686848      -0.04505747
Si       3.88165275      13.14800877      14.79522068      -0.03010965      -0.10213790       0.04521895
Si       1.88457189       7.82887132      11.16698966      -0.01781508      -0.01461459      -0.17509091
Si       1.27482157       7.75675103       3.64143984       0.04249503      -0.03781263      -0.01351408
Si       2.00702689       6.93056316      17.11688034      -0.04295020      -0.03744395      -0.02600942
Si       1.84530115       9.29249765      17.15016406       0.02319493       0.05423373      -0.02545490
Si       2.30300390       5.43130645       8.41187898      -0.04548991      -0.09716487       0.03461253
Si       4.32230615       8.98608194      13.23953560      -0.06735055       0.05415759       0.13659201
Si       1.54594005      11.12288831      12.36434497       0.00162827      -0.04387026      -0.00650745
Si       2.25146844       5.50876808      10.83738418       0.02923706       0.10986047       0.00723787
Si       1.71257562       3.32045223       1.89146352      -0.01748341       0.07772863      -0.04927644
20
Lattice="2.5216964334020413 0.18981624784074896 -0.09157247628348103 1.5880626205054524 8.328788251205047 1.6260854151730948 0.48508306821691927 6.66173916518444 17.439537585984294" Properties=species:S:1:pos:R:3:forces:R:3 unique_starting_index=238 config_type=initial n_minim_iter=12 energy=-3255.6051297699532 stress="0.000286956901094402 -7.429126739463146e-05 -7.619423917263117e-05 -7.429126739463146e-05 0.0004578637457065648 -0.0001904932490280955 -7.619423917263117e-05 -0.0001904932490280955 5.4047749607906746e-05" free_energy=-3255.6051297699532 pbc="T T T"