6
Lattice="3.3961899999999994 1.113889358313963e-16 -7.600223522744675e-33 -0.5125695711077608 4.7267194818049445 -3.2251070829338005e-16 2.7369110631344083e-48 5.169013323786803e-16 7.57571" Properties=species:S:1:pos:R:3:forces:R:3 unique_starting_index=22 config_type=initial n_minim_iter=1 energy=-946.0784586383131 stress="-0.29028744008497276 -0.6034173852409899 -0.6064097229442693 2.3544663345197e-12 -1.4845803098015093e-13 -0.19548466519327606" pbc="T T T"
Si       2.95533515       1.58492671       0.12140151      -8.60856405     -26.30606271       4.90282558
Si      -0.07171472       3.14179277       0.12140151       8.60856405      26.30606271       4.90282558
Si       1.96829557       3.44901536       4.81759778      -1.98033338       7.67134419     -20.67285443
Si       0.91532486       1.27770412       4.81759778       1.98033338      -7.67134419     -20.67285443
Si       0.80334968       1.88131613       6.29513244     -16.67955414      -4.29514656      15.77002885
Si       2.08027075       2.84540335       6.29513244      16.67955414       4.29514656      15.77002885
6
Lattice="3.408210173426166 0.008117841306461166 -5.538917127699541e-19 -0.5030855364937491 4.760321200991044 -3.248034007826e-16 -9.62964972193618e-34 5.207273884060624e-16 7.631784707282751" Properties=species:S:1:pos:R:3:forces:R:3 unique_starting_index=22 config_type=initial n_minim_iter=2 energy=-947.7145079071314 stress="-0.27397796371093686 -0.5581178243160556 -0.5642228334156923 5.928249452696479e-13 4.344473745926836e-12 -0.18400057913685375" pbc="T T T"
Si       2.96871323       1.60101662       0.12279402      -7.91438641     -24.01329842       4.72492709
Si      -0.06358859       3.16742242       0.12279402       7.91438641      24.01329842       4.72492709
Si       1.98330919       3.47990511       4.85117461      -1.87623209       7.04982352     -19.25134004
Si       0.92181545       1.28853393       4.85117461       1.87623209      -7.04982352     -19.25134004
Si       0.80901497       1.89666140       6.34331711     -15.49343976      -3.99047812      14.52641295
Si       2.09610967       2.87177764       6.34331711      15.49343976       3.99047812      14.52641295
6
Lattice="3.615152422591752 0.15439745226611173 -1.0534754998835339e-17 -0.3307305189549933 5.34070756322703 -3.64403977353535e-16 -3.0814879110195774e-33 5.868826986932665e-16 8.601357456088738" Properties=species:S:1:pos:R:3:forces:R:3 unique_starting_index=22 config_type=initial n_minim_iter=3 energy=-965.5073943700631 stress="-0.11013631482609963 -0.14369207759804792 -0.2156842729197733 -2.4915539203585245e-12 -3.579568448494897e-12 -0.06206637739316638" pbc="T T T"
Si       3.20043424       1.88230613       0.14764377      -2.64838986      -5.28310463       2.79583827
Si       0.08398767       3.61279889       0.14764377       2.64838986       5.28310463       2.79583827
Si       2.24897311       4.01802022       5.42980110      -0.78231323       2.80534821      -7.76016344
Si       1.03544879       1.47708479       5.42980110       0.78231323      -2.80534821      -7.76016344
Si       0.91021775       2.16183729       7.17763456      -5.26293270      -2.85722441       4.96432516
Si       2.37420415       3.33326772       7.17763456       5.26293270       2.85722441       4.96432516
6
Lattice="3.8196263087249993 0.2834780760488927 -1.934210723612936e-17 -0.18194001929521253 5.716785794266485 -3.9006432320929135e-16 -3.697785493223493e-32 6.514225236872471e-16 9.547253639708861" Properties=species:S:1:pos:R:3:forces:R:3 unique_starting_index=22 config_type=initial n_minim_iter=4 energy=-970.751554031796 stress="-0.009031875502506503 -0.019670087208686408 -0.06252065803852598 4.549826378808041e-12 8.660734227435046e-12 -0.015164789067962163" pbc="T T T"
Si       3.42457491       2.10063482       0.17550212      -1.38241835      -2.23971861       0.77537246
Si       0.21311138       3.89962905       0.17550212       1.38241835       2.23971860       0.77537246
Si       2.49731217       4.39338870       5.99466157      -0.08031190       1.19230609      -2.60266883
Si       1.14037412       1.60687517       5.99466157       0.08031190      -1.19230609      -2.60266883
Si       1.00853204       2.33440269       7.98759909      -1.01821754      -2.19794401       1.82729637
Si       2.62915425       3.66586118       7.98759909       1.01821754       2.19794401       1.82729637
6
Lattice="3.852647884566149 0.3382013848527732 -2.307595544743491e-17 -0.110761470725807 5.810001033130834 -3.9642452986539234e-16 8.02419452029498e-30 6.865259197547945e-16 10.061729289053092" Properties=species:S:1:pos:R:3:forces:R:3 unique_starting_index=22 config_type=initial n_minim_iter=5 energy=-971.5282965439825 stress="0.0157378683774505 0.002347461561880791 -0.016115570184157005 -1.317790390441206e-12 3.6306317436103897e-12 -0.011642027890218927" pbc="T T T"
Si       3.46854840       2.16570845       0.19017326      -0.95205519      -1.44064083      -0.33775253
Si       0.27333801       3.98249397       0.19017326       0.95205519       1.44064083      -0.33775253
Si       2.57294764       4.50674187       6.30019663       0.02504819       0.22769280      -1.14221830
Si       1.16893877       1.64146055       6.30019663      -0.02504819      -0.22769280      -1.14221830
Si       1.03877781       2.37233973       8.43031639      -0.40460386      -1.57448508       1.47997082
Si       2.70310861       3.77586269       8.43031639       0.40460386       1.57448508       1.47997082
6
Lattice="3.792265354944573 0.385132342203819 -2.6278120575928046e-17 -0.0363310891153904 5.794396292325884 -3.953597964868419e-16 -3.000999446783746e-28 6.985731164940292e-16 10.23829309941513" Properties=species:S:1:pos:R:3:forces:R:3 unique_starting_index=22 config_type=initial n_minim_iter=6 energy=-971.8374295033304 stress="0.01274857798023533 0.0025756445239252814 -0.0109122964472914 2.839967711468034e-12 -1.044438795162927e-12 -0.008377243169700727" pbc="T T T"
Si       3.42987691       2.19159258       0.19060963      -0.99887571      -1.22605607      -0.43364829
Si       0.32605736       3.98793606       0.19060963       0.99887571       1.22605607      -0.43364829
Si       2.58652198       4.52931329       6.40094286      -0.07583897      -0.11545582      -0.92478545
Si       1.16941228       1.65021534       6.40094286       0.07583897       0.11545582      -0.92478545
Si       1.04661981       2.36726651       8.59096287       0.04183976      -1.50577879       1.35843374
Si       2.70931446       3.81226213       8.59096287      -0.04183976       1.50577879       1.35843374
6
Lattice="3.636601782344017 0.4912290838684833 -3.351725025375164e-17 0.13482480805978603 5.742997700748471 -3.9185279835525714e-16 1.0860679490485212e-26 7.262877638316352e-16 10.644479188080213" Properties=species:S:1:pos:R:3:forces:R:3 unique_starting_index=22 config_type=initial n_minim_iter=7 energy=-972.355824444202 stress="-0.001054051687425471 -0.004360136844365788 -0.0018982438814335151 -5.6194898675390355e-12 -2.2385706631462936e-12 0.001330434852058696" pbc="T T T"
Si       3.31801598       2.23686284       0.18512993      -0.90195062      -0.88456351      -0.31401839
Si       0.45341061       3.99736395       0.18512993       0.90195062       0.88456351      -0.31401839
Si       2.60319693       4.56142409       6.62707634      -0.29415921      -0.65733158      -0.33827564
Si       1.16822967       1.67280269       6.62707634       0.29415921       0.65733158      -0.33827564
Si       1.06345586       2.34036936       8.97264841       1.42231130      -1.67664736       0.65229403
Si       2.70797074       3.89385742       8.97264841      -1.42231130       1.67664736       0.65229403
6
Lattice="3.6467191446713647 0.47912233569151536 -3.269119003179544e-17 0.11644802273910326 5.821486588365612 -3.9720820721391863e-16 -4.52748905551474e-25 7.306032443817391e-16 10.707726948793796" Properties=species:S:1:pos:R:3:forces:R:3 unique_starting_index=22 config_type=initial n_minim_iter=8 energy=-972.6056774683054 stress="0.009364452563684478 0.002617670662455856 0.002356533664087301 7.172217653219911e-13 -5.024293443347272e-12 7.128938425619216e-06" pbc="T T T"
Si       3.30242632       2.22689940       0.17744715      -0.76037592      -0.44291513      -0.48255222
Si       0.46074085       4.07370953       0.17744715       0.76037592       0.44291513      -0.48255222
Si       2.58875707       4.59503759       6.65699211      -0.19460354      -0.67875275      -0.26023046
Si       1.17441010       1.70557133       6.65699211       0.19460354       0.67875275      -0.26023046
Si       1.07489169       2.33704068       9.04420645       0.99291723      -1.23363819       0.74278268
Si       2.68827548       3.96356824       9.04420645      -0.99291723       1.23363819       0.74278268
6
Lattice="3.577654840160733 0.4733152296340148 -3.2294954447253396e-17 0.11878938161683772 5.790692625530427 -3.951070155419194e-16 1.8742109378441898e-23 7.27090014989992e-16 10.656235207585105" Properties=species:S:1:pos:R:3:forces:R:3 unique_starting_index=22 config_type=initial n_minim_iter=9 energy=-972.7490867616133 stress="0.000993719168397453 -0.0008215792682069857 -0.0021743932626352176 9.81135415787028e-14 -7.631265873584628e-13 -0.00012357719344552144" pbc="T T T"
Si       3.23210325       2.20370298       0.16793776      -0.81443756      -0.60727430      -0.24080029
Si       0.46434097       4.06030487       0.16793776       0.81443756       0.60727430      -0.24080029
Si       2.53906631       4.55832385       6.62031166      -0.18583997      -0.56212796      -0.28208980
Si       1.15737791       1.70568400       6.62031166       0.18583997       0.56212796      -0.28208980
Si       1.06297521       2.30923011       9.01403843       1.21524665      -1.44592051       0.52289009
Si       2.63346901       3.95477774       9.01403843      -1.21524665       1.44592051       0.52289009
6
Lattice="3.5718026492702073 0.47407463874707334 -3.234713371742077e-17 0.12072954657349522 5.798787811576773 -3.9566257837862093e-16 -7.934262759934928e-22 7.297499893696269e-16 10.695296637794199" Properties=species:S:1:pos:R:3:forces:R:3 unique_starting_index=22 config_type=initial n_minim_iter=10 energy=-972.8510953401395 stress="0.0031197108442359263 -0.00016203435085291294 -0.00015223051613326037 9.583039073420845e-13 -4.865957710542709e-15 -4.2973874875156895e-05" pbc="T T T"
Si       3.21897151       2.19763899       0.16489853      -0.73789975      -0.49393540      -0.29060641
Si       0.47356068       4.07522346       0.16489853       0.73789975       0.49393540      -0.29060641
Si       2.53349889       4.55760745       6.64029753      -0.16330601      -0.52915442      -0.22421288
Si       1.15903331       1.71525500       6.64029753       0.16330601       0.52915442      -0.22421288
Si       1.06897594       2.29822292       9.05501656       1.12950232      -1.31228492       0.51481930
Si       2.62355626       3.97463953       9.05501656      -1.12950232       1.31228492       0.51481930
6
Lattice="3.5295826024390147 0.47211902584725823 -3.219797917185654e-17 0.1243798363699995 5.802669010459446 -3.957882686708956e-16 3.4358208663754387e-20 7.304023103844381e-16 10.701533113757526" Properties=species:S:1:pos:R:3:forces:R:3 unique_starting_index=22 config_type=initial n_minim_iter=11 energy=-973.0384735553089 stress="-5.6766052918142265e-05 -0.0029427073446028173 -0.0014243516936650075 -4.201897817498697e-12 4.333009477767454e-12 0.00014390319175576903" pbc="T T T"
Si       3.16552735       2.17961570       0.15494854      -0.63727505      -0.31795604      -0.18149923
Si       0.48843509       4.09517234       0.15494854       0.63727505       0.31795604      -0.18149923
Si       2.50119510       4.54386237       6.63641856      -0.13811027      -0.39627005      -0.19594001
Si       1.15276734       1.73092566       6.63641856       0.13811027       0.39627004      -0.19594001
Si       1.07278629       2.26981930       9.07809368       1.07472042      -1.15928918       0.37743924
Si       2.58117615       4.00496874       9.07809368      -1.07472042       1.15928918       0.37743924
6
Lattice="3.530650534551904 0.47324719387157704 -3.299395433204711e-17 0.12578881062474445 5.9164574129210505 -4.0982347823986864e-16 -1.5715316109702042e-18 7.270363524418586e-16 10.802318606274818" Properties=species:S:1:pos:R:3:forces:R:3 unique_starting_index=22 config_type=initial n_minim_iter=12 energy=-973.2338277563873 stress="0.010627758477422974 0.004475395584938512 0.005388450396835951 -1.3800910049200717e-12 2.3831484225031362e-12 -0.00033404095751922376" pbc="T T T"
Si       3.14275467       2.19373591       0.14539905      -0.44789487      -0.00672623      -0.44590117
Si       0.51368468       4.19596869       0.14539905       0.44789487       0.00672623      -0.44590117
Si       2.49458480       4.60706200       6.68703473      -0.11228245      -0.09053762      -0.07166369
Si       1.16185455       1.78264260       6.68703473       0.11228245       0.09053762      -0.07166369
Si       1.09811692       2.26671692       9.18648329       0.86509510      -0.65252713       0.51756486
Si       2.55832243       4.12298769       9.18648329      -0.86509510       0.65252713       0.51756486
6
Lattice="3.4483411433691087 0.4683088522659275 -1.1726980522744065e-18 0.13133830398685697 5.858001401037359 -1.2644561363089863e-16 6.886868380506413e-17 1.1737916329169964e-15 10.673163312469502" Properties=species:S:1:pos:R:3:forces:R:3 unique_starting_index=22 config_type=initial n_minim_iter=13 energy=-973.2753462179143 stress="-0.008287279663430503 -0.008154477326551597 -0.0075063408424538925 -2.6801053547567677e-12 -1.5340990764583941e-12 -0.00018787152904314503" pbc="T T T"
Si       3.06723974       2.17030946       0.13477376      -0.52998819      -0.01248230       0.11725124
Si       0.51243970       4.15600079       0.13477376       0.52998819       0.01248231       0.11725124
Si       2.44109075       4.55956556       6.60565456      -0.15557006      -0.13857134      -0.24379921
Si       1.13858870       1.76674469       6.60565456       0.15557006       0.13857134      -0.24379921
Si       1.08274140       2.23656264       9.08696247       0.92126325      -0.87656825       0.12654797
Si       2.49693805       4.08974761       9.08696247      -0.92126325       0.87656825       0.12654797
6
Lattice="3.478849959437613 0.47317680007608715 -1.4039472441970433e-15 0.133508834193781 5.908862064532307 -1.2407683166307167e-14 -3.059732430747662e-15 -1.883985550538707e-14 10.758408396373419" Properties=species:S:1:pos:R:3:forces:R:3 unique_starting_index=22 config_type=initial n_minim_iter=14 energy=-973.3172746568843 stress="0.0015376102705723794 -0.002131763886825008 -3.1674196932218514e-05 1.0224353581582301e-12 -1.1577737567958586e-12 -9.796114098625825e-05" pbc="T T T"
Si       3.09189220       2.18893240       0.13700683      -0.46152170      -0.00053910      -0.17812739
Si       0.52046659       4.19310646       0.13700683       0.46152170       0.00053910      -0.17812739
Si       2.46238975       4.59835878       6.65600799      -0.15630391      -0.06425504      -0.12475207
Si       1.14996904       1.78368008       6.65600799       0.15630391       0.06425504      -0.12475207
Si       1.09612749       2.25071532       9.16078715       0.87027662      -0.68454037       0.30287946
Si       2.51623131       4.13132355       9.16078715      -0.87027662       0.68454037       0.30287946
6
Lattice="3.47313736605141 0.4737748559234249 9.325876889228428e-16 0.13520336358309626 5.9226404311450755 -1.6195474535393046e-17 2.153791082131838e-15 1.5113968456723192e-15 10.75877817180184" Properties=species:S:1:pos:R:3:forces:R:3 unique_starting_index=22 config_type=initial n_minim_iter=15 energy=-973.3357517220014 stress="0.0014024046439294602 -0.0019734835452582273 -0.00029599257076178806 2.290933644976292e-13 -8.853021408167889e-13 -0.00019349415280162257" pbc="T T T"
Si       3.08496501       2.19286306       0.13524338      -0.45416218       0.01220931      -0.16776298
Si       0.52337572       4.20355222       0.13524338       0.45416218      -0.01220931      -0.16776298
Si       2.45880967       4.60797826       6.65499843      -0.16610699      -0.03911017      -0.12867765
Si       1.14953106       1.78843703       6.65499843       0.16610699       0.03911017      -0.12867765
Si       1.09850587       2.25170894       9.16410850       0.85736633      -0.65891190       0.29644063
Si       2.50983486       4.14470634       9.16410850      -0.85736633       0.65891190       0.29644063
6
Lattice="3.4225996998862054 0.4836347252378627 -4.0446174295447495e-15 0.15655343712070469 6.050302594569504 -3.306786054246932e-14 -8.999347299937352e-15 -5.261971219101267e-14 10.79298092283633" Properties=species:S:1:pos:R:3:forces:R:3 unique_starting_index=22 config_type=initial n_minim_iter=16 energy=-973.4858965353192 stress="0.00032287390467053905 -7.227970146262386e-06 -0.0016459595033554012 8.347385234070566e-12 -2.7209034646129822e-12 -0.0005373312400659592" pbc="T T T"
Si       3.02407572       2.23360389       0.11917515      -0.36391607       0.09514325      -0.09715709
Si       0.55507742       4.30033342       0.11917515       0.36391607      -0.09514325      -0.09715709
Si       2.43081342       4.70126790       6.66350060      -0.26832529       0.24962890      -0.13577529
Si       1.14833972       1.83266942       6.66350060       0.26832529      -0.24962890      -0.13577529
Si       1.12431204       2.26048734       9.22239433       0.70358303      -0.46035544       0.23293238
Si       2.45484110       4.27344998       9.22239433      -0.70358303       0.46035544       0.23293238
