18
Lattice="8.436093201914273 -0.836507014226324 -1.3267233005911894 -3.3388657574336924 7.7922646226927785 -1.3267233005917172 -3.3388657574324303 -4.556269295194043 6.459101545577589" Properties=species:S:1:pos:R:3:forces:R:3 unique_starting_index=454 config_type=initial n_minim_iter=1 energy=-2928.8526986774536 stress="0.00013824171660212285 -0.000928418960764919 -0.0014724981923093547 -0.000928418960764919 -0.0004483416895387536 -0.002009394447897547 -0.0014724981923093547 -0.002009394447897547 -0.0023683616992041462" free_energy=-2928.8526986774536 pbc="T T T"
Si      -2.98942215       0.26426497       2.93502015       0.08176604      -0.24140657       0.19649182
Si       1.15249706       3.84282661      -1.23501342      -0.25482399       0.17503373       0.08944149
Si       3.31716388      -2.08713423       1.50370165       0.24366453       0.16272370      -0.13311819
Si      -1.35194415       3.53364565       0.89466607      -0.21092612      -0.08613955       0.03517805
Si       3.77675956       0.90413317       0.18292744      -0.01860097       0.12963163      -0.18972873
Si      -0.27554012      -1.50484364       3.57412302       0.12921358      -0.18038148      -0.06255971
Si      -1.92803119      -2.77226171       6.58293241       0.39534696       0.01258469       0.24603084
Si      -2.06271045       7.09238786       0.42543867      -0.10709065       0.05784863       0.44963752
Si       7.38430726       0.31078740       0.33638620       0.08742066       0.44222145       0.11741630
Si       3.89506921      -2.75763352       3.70336836       0.17340902       0.07879959      -0.05582400
Si      -3.80286058       2.09855836       4.19825536       0.02290325      -0.13188556       0.14655381
Si       3.14662262       5.07883572      -0.89176095      -0.13265881       0.13994851       0.04703657
Si       2.34631296       0.84198811       3.35959742      -0.05428087      -0.31460578      -0.01005520
Si       0.09609636       1.95757280       3.69590279      -0.28364162       0.05409387      -0.13654889
Si       1.83769864       3.04114241       2.20801715       0.13702295      -0.01363881      -0.28820654
Si       1.75837122      -0.92431110       5.01277817      -0.08698624      -0.31032687      -0.00673584
Si      -1.41105398       3.92030270       3.42261868      -0.26970959       0.06997734      -0.16209459
Si       4.16326256       3.15921725       1.32693499       0.14797188      -0.04447849      -0.28291471
18
Lattice="8.41969880083085 -0.8160425053298966 -1.294266022497551 -3.3144132978011824 7.782796268602618 -1.2942660224980789 -3.3144132977999257 -4.522901080024693 6.464550109318328" Properties=species:S:1:pos:R:3:forces:R:3 unique_starting_index=454 config_type=initial n_minim_iter=2 energy=-2928.871234715403 stress="0.00445373539096994 0.0007662630426593396 0.0012153144231275938 0.0007662630426593396 0.00493786723344999 0.0016584373798009776 0.0012153144231275938 0.0016584373798009776 0.006522540124038387" free_energy=-2928.871234715403 pbc="T T T"
Si      -2.96704616       0.27470640       2.95110102       0.00504676      -0.20047003       0.20855392
Si       1.15571315       3.84678266      -1.20599085      -0.19267867       0.21213817       0.03975887
Si       3.31996739      -2.06278263       1.52005533       0.26032540       0.08753055      -0.09098091
Si      -1.33453628       3.54161415       0.92608816      -0.19122114      -0.06576173       0.02995113
Si       3.77911414       0.92429510       0.21361671      -0.00510542       0.11416910      -0.16948909
Si      -0.25702397      -1.48073847       3.59485877       0.11040399      -0.16565867      -0.04642587
Si      -1.89083672      -2.72851680       6.61744290       0.29727694      -0.01293076       0.24598060
Si      -2.03220157       7.10255709       0.48420783      -0.10187920       0.10142979       0.35830136
Si       7.38481392       0.34995372       0.39073473       0.12740767       0.35200637       0.09437180
Si       3.90773885      -2.71458674       3.74104886       0.11442316       0.15127285      -0.03453686
Si      -3.76562976       2.12175987       4.23710020       0.10977859      -0.09784214       0.12467762
Si       3.15753136       5.09556864      -0.83667578      -0.12636621       0.08007723       0.12160654
Si       2.36870755       0.87731000       3.41555744      -0.06785365      -0.36101665       0.07578956
Si       0.12303165       1.99427365       3.74889540      -0.32380822       0.14315851      -0.12383486
Si       1.86458103       3.07312014       2.26401216       0.23405006       0.00277857      -0.29307685
Si       1.78402585      -0.88050020       5.06669986      -0.16182615      -0.30300428      -0.02451463
Si      -1.37700602       3.95272189       3.47984486      -0.24018302       0.08374852      -0.23216065
Si       4.18391961       3.19264721       1.38971099       0.15220909      -0.12162539      -0.28397169
18
Lattice="8.359431972000316 -0.8013222164703312 -1.2709192365301105 -3.282222506852895 7.729762972085032 -1.2709192365306339 -3.2822225068516473 -4.478973014914809 6.426762174071296" Properties=species:S:1:pos:R:3:forces:R:3 unique_starting_index=454 config_type=initial n_minim_iter=3 energy=-2928.8907906351646 stress="-0.003720647052240829 0.0014852149001437277 0.0023555919783142883 0.0014852149001437277 -0.0027822749801601826 0.0032144782634260915 0.0023555919783142883 0.0032144782634260915 0.00028922876790208" free_energy=-2928.8907906351646 pbc="T T T"
Si      -2.93766348       0.27613237       2.94193715      -0.02830115      -0.21519127       0.21278381
Si       1.14822192       3.82625065      -1.18427289      -0.19667070       0.23157465       0.00888854
Si       3.30264566      -2.03744069       1.51739156       0.28006160       0.05879297      -0.10244058
Si      -1.31967246       3.52261834       0.93531308      -0.16365175      -0.02116442       0.03994522
Si       3.75652322       0.92897559       0.22521914       0.02911563       0.10606277      -0.12933838
Si      -0.24575580      -1.46159095       3.58169542       0.09236575      -0.14244470      -0.00187695
Si      -1.85867690      -2.69082558       6.59453352       0.21363451      -0.05403941       0.25699429
Si      -2.00594860       7.06377148       0.51224674      -0.11588270       0.15108825       0.27990993
Si       7.33992165       0.36949842       0.41486792       0.17897785       0.28058085       0.06202694
Si       3.89047490      -2.67640082       3.73509528       0.09707332       0.23003090      -0.01660965
Si      -3.72401710       2.11852578       4.23005888       0.19010473      -0.08476163       0.13888478
Si       3.14191246       5.07252966      -0.80478678      -0.13809000       0.05817864       0.20039890
Si       2.36391597       0.88561805       3.42078944      -0.09776158      -0.35460535       0.08889028
Si       0.13239716       1.99988532       3.74928634      -0.30868552       0.16644096      -0.14217742
Si       1.86711086       3.06889434       2.27376404       0.25169565      -0.02301190      -0.28164431
Si       1.78386497      -0.85696118       5.06020817      -0.18673391      -0.32721277      -0.03747490
Si      -1.35451190       3.94387379       3.48330595      -0.25576406       0.08543669      -0.26575823
Si       4.16870657       3.18767263       1.40815199       0.15851234      -0.14575523      -0.31140227
18
Lattice="8.388069940004282 -0.8208001338103263 -1.3018117530810227 -3.309422343911305 7.751203385777308 -1.301811753081547 -3.309422343910047 -4.516090344998423 6.432790666885353" Properties=species:S:1:pos:R:3:forces:R:3 unique_starting_index=454 config_type=initial n_minim_iter=4 energy=-2929.0017574568324 stress="-0.0033457971910215746 -0.0009657953598725239 -0.0015317781907564026 -0.0009657953598725239 -0.003955995326289057 -0.0020902888700949766 -0.0015317781907564026 -0.0020902888700949766 -0.005953311679874913" free_energy=-2929.0017574568324 pbc="T T T"
Si      -2.95722019       0.23797438       2.95908168       0.13205175      -0.07138837       0.02915549
Si       1.11772741       3.85471448      -1.20408014      -0.10785056      -0.01870424       0.10678209
Si       3.33897328      -2.04647398       1.49035204       0.01465249       0.14311297      -0.05184583
Si      -1.36270053       3.51287739       0.91352217      -0.04221231       0.05589222      -0.01325584
Si       3.76019612       0.92826569       0.17615642       0.06601175      -0.00186689      -0.02684213
Si      -0.24753911      -1.50727833       3.56351226      -0.02166497      -0.05111259       0.04471766
Si      -1.85151684      -2.73487858       6.60798307      -0.03259024      -0.11235413      -0.13240383
Si      -2.05011223       7.07868450       0.51223143      -0.09731822      -0.09148258      -0.11565660
Si       7.36744543       0.38570215       0.38091641      -0.05791805      -0.05247432      -0.15845597
Si       3.90450560      -2.70199531       3.70282861       0.13534541      -0.04074061      -0.04495860
Si      -3.75264923       2.08696735       4.22126441      -0.07961850      -0.09091185       0.08599641
Si       3.12044478       5.08046207      -0.84179072      -0.06270553       0.12212932      -0.05614177
Si       2.33913442       0.81242486       3.38065412       0.08354467       0.14021022       0.25490964
Si       0.07006869       1.98336232       3.69076829       0.10853136       0.17745788       0.21987993
Si       1.87013060       3.04385960       2.19041925       0.13652215       0.13074220       0.23640160
Si       1.74758552      -0.93814690       5.01816581      -0.20853833      -0.17441485       0.00318265
Si      -1.42099814       3.93139431       3.41190061      -0.10349526       0.11124351      -0.22546068
Si       4.17683447       3.15219360       1.31677335       0.13725237      -0.17533789      -0.15600422
18
Lattice="8.381080188328172 -0.8103798877341366 -1.2852849541037918 -3.2973805755912493 7.747677201932397 -1.285284954104315 -3.297380575589994 -4.499657956504105 6.436733466057736" Properties=species:S:1:pos:R:3:forces:R:3 unique_starting_index=454 config_type=initial n_minim_iter=5 energy=-2929.0249644913497 stress="-0.0007229895186509839 -0.00015628056224465097 -0.00024786530547412906 -0.00015628056224465097 -0.0008217289765403589 -0.0003382409325564122 -0.00024786530547412906 -0.0003382409325564122 -0.0011449255202072952" free_energy=-2929.0249644913497 pbc="T T T"
Si      -2.94449828       0.24030856       2.97080629       0.09556879      -0.03264015       0.02435144
Si       1.11612094       3.85976108      -1.18744545      -0.05991234      -0.01307386       0.08385315
Si       3.34426938      -2.03145931       1.49751253       0.00558087       0.10198710      -0.01895390
Si      -1.35666179       3.51763629       0.92993849      -0.02995111       0.07841613      -0.02396425
Si       3.76291492       0.93997801       0.18972251       0.08379600      -0.01949423      -0.01478680
Si      -0.23718980      -1.49767605       3.57488315      -0.04383071      -0.04525639       0.06042493
Si      -1.82979845      -2.71422965       6.62848229      -0.08822971      -0.07867116      -0.09035483
Si      -2.03696467       7.08557207       0.54536732      -0.04843944      -0.03504390      -0.13624673
Si       7.37005263       0.40930209       0.40838512      -0.01882469      -0.09847431      -0.10993666
Si       3.91477426      -2.67872281       3.72216174       0.09787757      -0.01811927      -0.03210471
Si      -3.73355095       2.09716864       4.24475939      -0.04676142      -0.06684949       0.06544887
Si       3.12441923       5.09248648      -0.81245743      -0.04965841       0.08695801      -0.03018916
Si       2.35129877       0.82841282       3.41439105       0.04425960       0.10908032       0.24473852
Si       0.08164975       2.00672699       3.72012365       0.09068130       0.18847153       0.17323324
Si       1.88892144       3.06255259       2.21938894       0.15240122       0.09455978       0.20392814
Si       1.75614046      -0.92177133       5.04613523      -0.24343447      -0.15913884      -0.00168810
Si      -1.40796021       3.95098827       3.43576950      -0.07841699       0.11920946      -0.25343291
Si       4.19159089       3.16582687       1.34360648       0.13729395      -0.21192073      -0.14432024
18
Lattice="8.369571520751421 -0.7926519156552073 -1.257167899220416 -3.277009278650991 7.742043314784471 -1.257167899220942 -3.2770092786497473 -4.471858960828539 6.4437708873994195" Properties=species:S:1:pos:R:3:forces:R:3 unique_starting_index=454 config_type=initial n_minim_iter=6 energy=-2929.0534595864806 stress="0.003402668645379966 0.000535572074990921 0.0008494321684713686 0.000535572074990921 0.003741047879225681 0.001159148639405381 0.0008494321684713686 0.001159148639405381 0.004848639559824082" free_energy=-2929.0534595864806 pbc="T T T"
Si      -2.91704273       0.23559176       2.99922296       0.03785626       0.08916355      -0.01974071
Si       1.10335277       3.87472822      -1.15285469       0.07361853      -0.04495213       0.04829647
Si       3.36238749      -1.99694277       1.50550661      -0.06504035       0.01915375       0.07194315
Si      -1.35446885       3.52772035       0.95770865       0.00109047       0.12534754      -0.07498471
Si       3.77187001       0.96282436       0.20632159       0.11919681      -0.08438497       0.00268315
Si      -0.21810219      -1.48934642       3.59595348      -0.11637117      -0.03561858       0.08077728
Si      -1.78656274      -2.68299468       6.66810123      -0.22653374       0.00571537      -0.01217100
Si      -2.02020447       7.09949187       0.60813631       0.07368891       0.08139584      -0.19860261
Si       7.37827717       0.45724205       0.45364799       0.05541771      -0.22006182      -0.00008974
Si       3.94193936      -2.63538539       3.75260430       0.01715710      -0.00847166      -0.02071305
Si      -3.70040948       2.10784296       4.29303491      -0.01324641      -0.02464215       0.00353016
Si       3.12461451       5.12103653      -0.76023023      -0.01950732       0.01183039      -0.01657321
Si       2.37205666       0.85002774       3.48599724      -0.04817701       0.10647627       0.19807393
Si       0.09600776       2.05999827       3.77472732       0.11604298       0.18470120       0.07287657
Si       1.93539325       3.09900229       2.26976088       0.14116629      -0.00592872       0.18146193
Si       1.75346916      -0.91293966       5.09225548      -0.26779981      -0.09935144       0.01626957
Si      -1.39873408       3.99255425       3.45575350      -0.01406705       0.13766475      -0.25040504
Si       4.22844697       3.17466846       1.37145729       0.13550781      -0.23803720      -0.08263215
18
Lattice="8.33770320082552 -0.7852215182095114 -1.2453830830070491 -3.260324285860517 7.713893507739266 -1.2453830830075705 -3.260324285859276 -4.449090354402083 6.423451337914692" Properties=species:S:1:pos:R:3:forces:R:3 unique_starting_index=454 config_type=initial n_minim_iter=7 energy=-2929.1138320956447 stress="4.769007573892883e-05 0.0005992072972191586 0.0009503593791076496 0.0005992072972191586 0.00042627457615400713 0.0012968755069610461 0.0009503593791076496 0.0012968755069610461 0.0016654672739994717" free_energy=-2929.1138320956447 pbc="T T T"
Si      -2.88917133       0.23433783       2.99872214      -0.03488047       0.13374590      -0.01430673
Si       1.09376135       3.86298221      -1.12943089       0.13804064      -0.01593884       0.00017408
Si       3.35407630      -1.97033926       1.50415928      -0.05678063      -0.05451680       0.11451277
Si      -1.35271723       3.53089324       0.95595287       0.00036529       0.06206254      -0.13350478
Si       3.77436787       0.96010805       0.20793419       0.05906977      -0.12867209      -0.04036922
Si      -0.22144476      -1.48856541       3.59805951      -0.14048907      -0.04399805      -0.00155271
Si      -1.78654239      -2.67252577       6.64811644      -0.12112553       0.03472923       0.19699619
Si      -2.01022796       7.08009156       0.60238410       0.06960287       0.22303217      -0.00985394
Si       7.35677276       0.45047005       0.45447898       0.19170604      -0.06646493       0.11625927
Si       3.94556703      -2.61599825       3.74361248      -0.03000835       0.06795110      -0.01857538
Si      -3.68301562       2.09572079       4.29754937       0.07383430      -0.01324931      -0.01535740
Si       3.10781582       5.11953412      -0.74661329      -0.03487508      -0.04248729       0.05330531
Si       2.37085697       0.86744726       3.52506498      -0.17942262      -0.03303866       0.04124936
Si       0.11297955       2.09348057       3.79527144       0.02254362       0.11526432      -0.14557287
Si       1.96220791       3.10621503       2.30232032       0.10311958      -0.15558661      -0.01202899
Si       1.71225820      -0.92854413       5.08637632      -0.15434636      -0.09076611       0.05799351
Si      -1.40119972       4.00621615       3.41351985      -0.04005621       0.12756108      -0.13246963
Si       4.24221702       3.13580007       1.35484278       0.13370220      -0.11962767      -0.05689883
18
Lattice="8.331283567432088 -0.7855074542013971 -1.2458365854122528 -3.258663147322019 7.7076859259997 -1.2458365854127669 -3.2586631473207692 -4.446823538343015 6.417654676768892" Properties=species:S:1:pos:R:3:forces:R:3 unique_starting_index=454 config_type=initial n_minim_iter=8 energy=-2929.1349688694786 stress="-0.0006901543624913564 6.918504000655416e-05 0.00010972939327500357 6.918504000655416e-05 -0.0006464426238577475 0.00014973846757471002 0.00010972939327500357 0.00014973846757471002 -0.0005033642932532844" free_energy=-2929.1349688694786 pbc="T T T"
Si      -2.87895484       0.22922394       3.00291409      -0.05434131       0.17949299      -0.03667387
Si       1.08580747       3.86322908      -1.12022351       0.18752504      -0.03406185      -0.01377799
Si       3.35670766      -1.95879385       1.50135207      -0.08896809      -0.08509377       0.14614860
Si      -1.36082389       3.53492576       0.94830033       0.01930626       0.01572631      -0.19970782
Si       3.78065506       0.95601181       0.19875636       0.00918019      -0.19017661      -0.06520616
Si      -0.22724464      -1.49889917       3.59839917      -0.18410849      -0.03791401      -0.07190170
Si      -1.79021278      -2.67740385       6.64548980      -0.07066168       0.04431526       0.26149413
Si      -2.01377382       7.07986374       0.59676791       0.06354236       0.25924058       0.06397490
Si       7.35762364       0.44688967       0.44894513       0.22805822      -0.00205910       0.15271315
Si       3.95310246      -2.61213139       3.73401145      -0.03670229       0.04770942      -0.01527069
Si      -3.68159828       2.08345800       4.30094498       0.05654924      -0.00488728      -0.02519401
Si       3.09569567       5.12360780      -0.74726308      -0.02169466      -0.04534355       0.03646566
Si       2.36461974       0.86540446       3.54408715      -0.20021157      -0.05786772      -0.03524951
Si       0.11291048       2.11347363       3.79754993       0.00513012       0.05800848      -0.20318605
Si       1.98129312       3.10570308       2.30867732       0.05376870      -0.19297839      -0.06741025
Si       1.67898416      -0.95584542       5.07935200      -0.06979000      -0.04972234       0.10268012
Si      -1.41720972       4.01710109       3.37444222      -0.02638988       0.12779429      -0.02929774
Si       4.25741908       3.10570760       1.32718046       0.12980784      -0.03218269      -0.00060076
18
Lattice="8.318474318726318 -0.7825559482956049 -1.2411554152720972 -3.2519901915169003 7.696360737244491 -1.2411554152725977 -3.2519901915156373 -4.4377175167620715 6.409453846006732" Properties=species:S:1:pos:R:3:forces:R:3 unique_starting_index=454 config_type=initial n_minim_iter=9 energy=-2929.1613209126126 stress="-0.0007115705153226805 -0.0008773965624765144 -0.0013915752648237022 -0.0008773965624765144 -0.0012659175642782065 -0.0018989657237763287 -0.0013915752648237022 -0.0018989657237763287 -0.0030804205037766436" free_energy=-2929.1613209126126 pbc="T T T"
Si      -2.86073354       0.22832882       3.01278912      -0.06984443       0.22670624      -0.09584854
Si       1.07946510       3.86476552      -1.10053223       0.23721531      -0.08721393      -0.03979362
Si       3.36008325      -1.93861860       1.50480140      -0.15461957      -0.12209167       0.16324007
Si      -1.37195005       3.54211025       0.93290199       0.07460092      -0.05148165      -0.29657693
Si       3.79085739       0.94575835       0.18449815      -0.07156250      -0.29158481      -0.07765723
Si      -0.24009509      -1.51462682       3.59824376      -0.25648418      -0.00278967      -0.17430323
Si      -1.78910365      -2.67561962       6.66052584      -0.01644065       0.02436326       0.27831961
Si      -2.01240657       7.09274329       0.60468902       0.02818405       0.25472493       0.11245684
Si       7.36949309       0.45180244       0.45703692       0.23440334       0.05680757       0.14196353
Si       3.96715856      -2.59612815       3.72426961      -0.00228987      -0.03065850       0.02602396
Si      -3.67057250       2.06681174       4.31318897      -0.02854467       0.02840419       0.00091533
Si       3.07650130       5.13228501      -0.73702279       0.03568338       0.00887113      -0.01644484
Si       2.35012734       0.86262324       3.58218928      -0.14113657      -0.05747701      -0.10572589
Si       0.11462400       2.15417204       3.80075013      -0.01229255      -0.02991743      -0.18263336
Si       2.01958497       3.10260130       2.32259318      -0.02482490      -0.15585383      -0.09743926
Si       1.62670004      -0.99653141       5.08103140       0.02402166       0.03114707       0.16446623
Si      -1.44025630       4.04539196       3.31912240       0.02246426       0.13448036       0.10003356
Si       4.29133821       3.06159185       1.29119306       0.12146697       0.06356375       0.09900377
18
Lattice="8.261354707455366 -0.7558054730432923 -1.19872842038085 -3.209276042027148 7.649952339821891 -1.1987284203813258 -3.2092760420258695 -4.379429109282004 6.385868876210827" Properties=species:S:1:pos:R:3:forces:R:3 unique_starting_index=454 config_type=initial n_minim_iter=10 energy=-2929.2355582057176 stress="-0.00012739371485788996 -0.0005613858204640927 -0.0008903734649366033 -0.0005613858204640927 -0.00048208230902855437 -0.0012150177894919229 -0.0008903734649366033 -0.0012150177894919229 -0.0016430581633925204" free_energy=-2929.2355582057176 pbc="T T T"
Si      -2.81116742       0.26276529       3.02744666      -0.08739009       0.14713446      -0.21907041
Si       1.09737118       3.85314445      -1.04220694       0.16662485      -0.18085285      -0.12963729
Si       3.34360810      -1.89184261       1.54219246      -0.22264503      -0.16198155       0.03832218
Si      -1.36103944       3.55105023       0.91031430       0.16946378      -0.08622307      -0.28875125
Si       3.79609550       0.91973137       0.18657826      -0.13326587      -0.31900697      -0.00210664
Si      -0.26649104      -1.51152333       3.59657311      -0.26404565       0.09430540      -0.20227719
Si      -1.75804690      -2.61660768       6.72697581       0.06591091      -0.08522314       0.15075821
Si      -1.96549092       7.13227229       0.67609567      -0.10111904       0.12000379       0.09853578
Si       7.39305356       0.49181486       0.53892977       0.14488996       0.11489291      -0.01190757
Si       3.98537733      -2.52175785       3.73958157       0.14386661      -0.16518456       0.15980781
Si      -3.60514468       2.06348126       4.35567931      -0.20084902       0.10650806       0.14777611
Si       3.05361663       5.14416187      -0.66331694       0.16206286       0.20207093      -0.08015637
Si       2.32730566       0.89063374       3.68072070       0.09190345      -0.04474691      -0.07073781
Si       0.14820805       2.24882172       3.83120348      -0.07035264      -0.09579498       0.03641697
Si       2.09972173       3.10398350       2.39034306      -0.07015301       0.07421855      -0.07086981
Si       1.56385404      -1.01032942       5.13363708       0.01517657       0.14869976       0.13760725
Si      -1.43448223       4.12048412       3.28397714       0.13722117       0.09861608       0.11279593
Si       4.36120311       3.01775517       1.30142068       0.05270020       0.03256407       0.19349412
18
Lattice="8.25363163544979 -0.7519188326140538 -1.1925641009779349 -3.2032435021338515 7.64375877239551 -1.1925641009783972 -3.2032435021325627 -4.371197009435915 6.3829377257045685" Properties=species:S:1:pos:R:3:forces:R:3 unique_starting_index=454 config_type=initial n_minim_iter=11 energy=-2929.277316770514 stress="-0.0001445582995084364 -0.00025718845859284094 -0.00040790801595782026 -0.00025718845859284094 -0.0003070522669463697 -0.0005566377615829211 -0.00040790801595782026 -0.0005566377615829211 -0.0008389317393649062" free_energy=-2929.277316770514 pbc="T T T"
Si      -2.81387162       0.28906320       3.01513444      -0.09017784       0.02585674      -0.23753797
Si       1.12326217       3.83973165      -1.04269342       0.05182009      -0.18062158      -0.17296075
Si       3.32301913      -1.90118268       1.56061366      -0.18784174      -0.15391058      -0.07906904
Si      -1.34728793       3.55044453       0.89024933       0.16723500      -0.05050549      -0.14855403
Si       3.79137555       0.89605244       0.18959564      -0.09853595      -0.19622766       0.06612127
Si      -0.28764831      -1.50378564       3.58737681      -0.15743102       0.12564809      -0.10961150
Si      -1.76450191      -2.60338455       6.74822375       0.13578551      -0.13432657       0.06718726
Si      -1.95093754       7.15238082       0.68329562      -0.16899008       0.02225036       0.10928282
Si       7.40784414       0.48971783       0.56002086       0.07212192       0.16518345      -0.09224054
Si       3.98001990      -2.51594557       3.74745580       0.26261736      -0.17102115       0.16805985
Si      -3.59798854       2.07203374       4.35604407      -0.24218593       0.06589764       0.25192003
Si       3.05961621       5.14043876      -0.65467796       0.13579070       0.31830671      -0.08186542
Si       2.31648481       0.89856415       3.68041601       0.22644413      -0.06648704      -0.00054520
Si       0.15902968       2.25196504       3.82391741      -0.13161081      -0.08494131       0.17652575
Si       2.09945923       3.09255263       2.39736740      -0.04135062       0.22441170      -0.06022693
Si       1.56660140      -0.99296060       5.15180929      -0.05581688       0.07982238       0.05252919
Si      -1.41874777       4.13349627       3.29889570       0.09292850       0.05997644      -0.00368402
Si       4.36887115       3.02305873       1.32492655       0.02919765      -0.04931213       0.09466923
18
Lattice="8.235543182711961 -0.7383646705090495 -1.1710668243516413 -3.184870110746791 7.630593442101343 -1.1710668243520834 -3.1848701107454844 -4.346124387441727 6.380325743614564" Properties=species:S:1:pos:R:3:forces:R:3 unique_starting_index=454 config_type=initial n_minim_iter=12 energy=-2929.31465868546 stress="0.0010456981600772742 0.0007022703705805583 0.001113820266334467 0.0007022703705805583 0.0014893988748445367 0.0015199368447392364 0.001113820266334467 0.0015199368447392364 0.0029417315178013833" free_energy=-2929.31465868546 pbc="T T T"
Si      -2.81218368       0.33010569       2.99460674      -0.13578216      -0.00445062      -0.19908627
Si       1.16188983       3.81518579      -1.03893487       0.03665792      -0.12324429      -0.20386022
Si       3.28797755      -1.91048232       1.58879746      -0.12856224      -0.18300969      -0.08983959
Si      -1.31599874       3.55072619       0.86636709       0.10169944       0.02728933       0.02075445
Si       3.78221886       0.86160480       0.20629801      -0.00461326      -0.02662182       0.10386639
Si      -0.31773761      -1.48047766       3.57733560      -0.02399561       0.09907304       0.03357043
Si      -1.75309789      -2.57288865       6.79664081       0.23749860      -0.12855391      -0.03489166
Si      -1.92529338       7.18742010       0.72226855      -0.19412470      -0.11241673       0.15436062
Si       7.43353108       0.50979197       0.60840964      -0.04871871       0.23367703      -0.13103684
Si       3.99000879      -2.49543112       3.78015688       0.32462150      -0.07910640       0.03486719
Si      -3.58143593       2.09477021       4.38431146      -0.17321809      -0.09170691       0.27283328
Si       3.07631043       5.15618801      -0.62207052      -0.03526856       0.32929278      -0.05634764
Si       2.31856240       0.92014198       3.70594261       0.27472124      -0.09676193       0.08453289
Si       0.17897940       2.27134189       3.84257412      -0.17502203      -0.02408813       0.24651064
Si       2.11192657       3.09866991       2.42784151       0.02975281       0.29750235      -0.05086809
Si       1.57260387      -0.95317857       5.19878851      -0.09338398      -0.04349700      -0.02897025
Si      -1.38262170       4.16825269       3.33512532      -0.01334646       0.01789512      -0.10465882
Si       4.39113087       3.03638554       1.38107446       0.02108428      -0.09127223      -0.05173650
18