22
Lattice="5.5596154792827575 1.0889647474906425 -0.2824375887186304 3.9346994152296126 6.2417667626724995 -0.8277631526117604 0.6845394606817448 -1.2342930256746212 13.184746163623405" Properties=species:S:1:pos:R:3:forces:R:3 unique_starting_index=40 config_type=initial n_minim_iter=1 energy=-3581.972225779577 stress="-0.0004366745425665375 0.00044090045103657363 0.0007434842083962021 0.00044090045103657363 0.00107702413026924 -0.000820974849681118 0.0007434842083962021 -0.000820974849681118 0.0008632387907384984" free_energy=-3581.972225779577 pbc="T T T"
Si       7.20622661       2.46642123      10.22120517       0.03472011      -0.03669399      -0.00819096
Si       1.37218256       2.09935886       3.77689035      -0.01305797      -0.01582439      -0.05557356
Si       4.80712081       1.34086962       5.63154622      -0.04975116       0.13976187       0.07162818
Si       3.68195748       2.26721185       9.36633123       0.07061924       0.13103568       0.17711049
Si       3.81340662       0.70569698      11.56486173       0.00752658      -0.08014064       0.08011939
Si       8.17111621       5.05135522       4.50139291      -0.02154076       0.02037472      -0.04293245
Si       6.87130542       2.95726198       1.12856302       0.10220180       0.01834264       0.09098016
Si       5.65001230       4.01013747       6.95549811      -0.12804525      -0.08872153      -0.03463496
Si       4.85298750       3.90459065       0.26461244      -0.00314404       0.03985644      -0.09156399
Si       6.04163555       4.04994427      11.60590295       0.00994254      -0.03021067       0.02540061
Si       5.89607916       1.92774337       8.29710702       0.05634406      -0.09370403      -0.00623398
Si       4.02135632       4.60924362       8.53206074      -0.09778611      -0.14349496      -0.04309217
Si       2.54390272       3.47249121       0.14800516       0.16028011       0.08961047      -0.03509687
Si       1.49279208      -0.16959863       6.49278885      -0.15359531      -0.01524134       0.12103063
Si       3.70067470      -0.79830929      13.52193106      -0.05965760      -0.05318232      -0.04589582
Si       7.86527446       4.76321676       6.87627410       0.07425986       0.04811457      -0.02140928
Si       4.53923953       2.91169393       3.74016986      -0.03972139       0.04873061      -0.09002786
Si       6.30604724       6.20078360       3.30100530       0.02344119       0.00755588       0.00477469
Si       4.52571465       4.94768791       2.30556974       0.04933982       0.02602579       0.01478224
Si       3.10759065       1.39086021       7.26612390      -0.06268202      -0.04111500      -0.09124142
Si       6.15812740       0.46974590      11.16375482       0.02144347       0.00361232      -0.05387331
Si       4.03621195       0.86497579       2.53253275       0.01886284       0.02530788       0.03394025
22
Lattice="5.563430970184742 1.0821606246866629 -0.28772796112227744 3.9339636345036353 6.225660563402437 -0.8226362809403212 0.6687277097233546 -1.213406098382753 13.16201531514959" Properties=species:S:1:pos:R:3:forces:R:3 unique_starting_index=40 config_type=initial n_minim_iter=2 energy=-3581.974706170392 stress="-0.0006974424515160986 -2.94627345314372e-05 -0.0001117782792547864 -2.94627345314372e-05 -0.0009883982016772113 0.00017872888471117944 -0.0001117782792547864 0.00017872888471117944 -0.000762274551371262" free_energy=-3581.974706170392 pbc="T T T"
Si       7.19661231       2.47075644      10.19974025       0.03563107       0.00300929       0.02195247
Si       1.36659361       2.09970106       3.77213836      -0.01920106      -0.00848493      -0.03912826
Si       4.80217658       1.34335090       5.61893480      -0.05058767       0.13628653       0.10114874
Si       3.67105678       2.27417698       9.35132521       0.08094314       0.11209660       0.18632778
Si       3.80065915       0.71776749      11.54364989       0.03520925      -0.06956635       0.05570910
Si       8.16748979       5.04201050       4.49094535      -0.00234883       0.01663356      -0.04986724
Si       6.87328115       2.94801433       1.12251244       0.08759972      -0.00140440       0.07462832
Si       5.64155652       4.00779938       6.94315763      -0.13537712      -0.08340857      -0.01238307
Si       4.85333357       3.89396133       0.26308581      -0.01413352       0.02290078      -0.05261885
Si       6.02796162       4.05421394      11.58630135       0.02760312      -0.03741765      -0.01765216
Si       5.88849385       1.93108405       8.27951554       0.04118039      -0.09770305      -0.01338730
Si       4.00924245       4.60907499       8.52028919      -0.06779759      -0.13333131      -0.06404242
Si       2.54368130       3.46453148       0.14931045       0.16976165       0.09226862      -0.05943400
Si       1.48487333      -0.16111066       6.48125026      -0.16160440      -0.00440588       0.08892227
Si       3.68614513      -0.78034619      13.49515698      -0.06407366      -0.04830163      -0.03398478
Si       7.85894551       4.75821610       6.86229517       0.04520431       0.05088518      -0.01301272
Si       4.53539310       2.90826152       3.73234098      -0.03724753       0.05899678      -0.07670853
Si       6.30186065       6.18891630       3.29670466       0.03027112       0.00192107       0.00927202
Si       4.52255036       4.93822633       2.30334999       0.03517639       0.03484799      -0.00842619
Si       3.09909437       1.39613220       7.25260626      -0.04160412      -0.06029768      -0.09771624
Si       6.14796279       0.48022848      11.13914079      -0.01191552       0.00229172      -0.04163594
Si       4.03541525       0.86396839       2.52478791       0.01731085       0.01218331       0.04203702
22
Lattice="5.573462605597044 1.0803189302563345 -0.2907085105662486 3.939035649612479 6.227910813210831 -0.8219081040938482 0.66233117007147 -1.2069726356404997 13.16768403735027" Properties=species:S:1:pos:R:3:forces:R:3 unique_starting_index=40 config_type=initial n_minim_iter=3 energy=-3581.9762851476803 stress="0.0017513527330027944 -0.00032251084112445267 -0.00048164220722975257 -0.00032251084112445267 0.00038822712623472135 0.0006062787615818717 -0.00048164220722975257 0.0006062787615818717 0.0007434506918882179" free_energy=-3581.9762851476803 pbc="T T T"
Si       7.20282723       2.47515343      10.20203741       0.02795201       0.01630681       0.02910573
Si       1.36573252       2.10269249       3.77409706      -0.02539515      -0.02045913      -0.03719217
Si       4.80661636       1.34650952       5.62032794      -0.04783886       0.13470897       0.11379217
Si       3.67166009       2.28051133       9.35659797       0.08333333       0.08957573       0.15392309
Si       3.80042695       0.72270214      11.54815257       0.05252592      -0.05432747       0.05532957
Si       8.17757230       5.04475389       4.49073159      -0.00062679       0.00983203      -0.05306280
Si       6.88476942       2.94779138       1.12114599       0.08358035       0.01107549       0.05689309
Si       5.64492174       4.01153164       6.94538847      -0.12342214      -0.06542558       0.00899771
Si       4.86038794       3.89498796       0.26193762      -0.01493643       0.02419071      -0.01924378
Si       6.03033861       4.06087923      11.59085467       0.03434716      -0.04016991      -0.03520605
Si       5.89380082       1.93390525       8.28115346       0.03396431      -0.09614618      -0.00852390
Si       4.00875456       4.61446474       8.52441456      -0.04061291      -0.13135837      -0.06710557
Si       2.54808071       3.46668202       0.14941513       0.16953807       0.08456182      -0.06108883
Si       1.48243845      -0.15819973       6.48435934      -0.16668056       0.00391330       0.08399342
Si       3.68446822      -0.77512756      13.49907542      -0.06681127      -0.05041593      -0.02483036
Si       7.86761443       4.76250779       6.86357337       0.01816040       0.03035291      -0.02069328
Si       4.53991882       2.91092725       3.73249652      -0.03777035       0.06578089      -0.06818083
Si       6.30900374       6.19250554       3.29812228       0.02984355       0.00604942       0.00945164
Si       4.52765545       4.94134418       2.30458047       0.02664415       0.03768336      -0.03286689
Si       3.09934860       1.39953848       7.25448645      -0.03196712      -0.05012906      -0.08472131
Si       6.15225260       0.48431421      11.14098272      -0.02525716      -0.01258310      -0.04618417
Si       4.04109775       0.86439914       2.52438373       0.02142951       0.00698328       0.04741353
22
Lattice="5.56872553288465 1.080246626113505 -0.2925346434830872 3.9341250816473994 6.235865603912293 -0.8256601745529718 0.6583958456937816 -1.2172935003192906 13.146839147401101" Properties=species:S:1:pos:R:3:forces:R:3 unique_starting_index=40 config_type=initial n_minim_iter=4 energy=-3581.9869857939916 stress="0.0005135022530875796 -0.0007184817403393536 -0.00034798955398490595 -0.0007184817403393536 0.0010019634900683097 4.379870575640397e-05 -0.00034798955398490595 4.379870575640397e-05 -0.0006661588148163952" free_energy=-3581.9869857939916 pbc="T T T"
Si       7.19506997       2.46958594      10.18261567       0.04746837       0.00115841       0.02847480
Si       1.36187434       2.10205164       3.76398307      -0.01229972      -0.02758596       0.03414677
Si       4.79806245       1.35046386       5.61403309      -0.03428418       0.15660109       0.03508269
Si       3.66940507       2.28237481       9.34803396       0.06245187       0.03102164       0.06068555
Si       3.79553792       0.71153689      11.53104310       0.03796862      -0.04353653       0.04582622
Si       8.16774677       5.04714015       4.47530403      -0.01238113       0.00617622      -0.05209429
Si       6.88272551       2.94937948       1.11932509       0.06136066       0.05537107      -0.06687789
Si       5.63026470       4.00670673       6.92927356      -0.02153313      -0.05775316      -0.02314428
Si       4.85457060       3.90015878       0.25482186       0.09436753       0.00978722       0.01281729
Si       6.02218022       4.05529880      11.56709318      -0.00938762      -0.03247176      -0.07785992
Si       5.88835911       1.92437681       8.26419772       0.01575135      -0.08390332       0.00095402
Si       3.99804092       4.60705539       8.50335008      -0.02478332      -0.06341051       0.01189400
Si       2.55369504       3.47527667       0.14342174       0.04673980       0.03293076      -0.02097293
Si       1.47094167      -0.16327189       6.47854010      -0.11607569      -0.03094837       0.07408190
Si       3.67453086      -0.78864483      13.47473350      -0.02633652      -0.03319929       0.00169059
Si       7.86019992       4.76458996       6.84620344      -0.09061698      -0.03889542      -0.04582564
Si       4.53227396       2.91420036       3.71920187      -0.02636628       0.06665230      -0.03741844
Si       6.30250733       6.19725938       3.28742579       0.02234587       0.02577845       0.02405207
Si       4.52370850       4.94705979       2.29591926       0.01330842       0.02896679      -0.03155481
Si       3.09200245       1.39310252       7.23606171      -0.05061424       0.01826556       0.04803376
Si       6.14360537       0.47583125      11.11836023      -0.00091601      -0.02885656      -0.04639870
Si       4.03783419       0.86345970       2.52072228       0.02383233       0.00785137       0.02440724
22
Lattice="5.569862109960196 1.0886441173466406 -0.2907197613503032 3.945614318246007 6.228434045804439 -0.8242508204456767 0.6608851858683744 -1.2093094546106538 13.175844816550248" Properties=species:S:1:pos:R:3:forces:R:3 unique_starting_index=40 config_type=initial n_minim_iter=5 energy=-3581.991293972933 stress="0.00024844846654305816 0.0006931509895604481 2.030706121374159e-05 0.0006931509895604481 -0.0006371752088456471 0.0005912235070998939 2.030706121374159e-05 0.0005912235070998939 0.000816303974013541" free_energy=-3581.991293972933 pbc="T T T"
Si       7.20430742       2.48065919      10.20936300       0.04974962      -0.03409119      -0.02089527
Si       1.36654506       2.10006744       3.77226792      -0.02036259       0.01429257       0.02540251
Si       4.80010319       1.36443950       5.63223292      -0.03625089       0.17145856      -0.00751364
Si       3.68015269       2.29094776       9.37729379       0.02360853      -0.04183506      -0.03250374
Si       3.80212855       0.71791519      11.56075576       0.02629370      -0.03841899       0.04718173
Si       8.17782971       5.05310993       4.48764567      -0.03753118       0.01156238      -0.02349574
Si       6.89157076       2.95704781       1.12720282       0.06807685       0.08323952      -0.07172296
Si       5.63537504       4.00695268       6.94717935       0.03963536      -0.04854565      -0.03861222
Si       4.86218536       3.90152849       0.25652612       0.13978164       0.01735256       0.04906300
Si       6.03443171       4.05929187      11.59511368      -0.02063356      -0.01079462      -0.06115628
Si       5.89604501       1.92979088       8.28494284       0.02981660      -0.07071572       0.05283770
Si       4.00720134       4.60116499       8.52311531      -0.01931968      -0.01154767       0.07946160
Si       2.56635327       3.47534715       0.14371020      -0.00160090      -0.00831039       0.02179119
Si       1.46633238      -0.15858599       6.49739271      -0.07118062      -0.02261378       0.04983327
Si       3.67512642      -0.77759606      13.50457191      -0.01586540      -0.02613987       0.02069173
Si       7.87182752       4.77187613       6.86470777      -0.15391241      -0.01850947      -0.07779354
Si       4.53724595       2.91979920       3.72699397      -0.01430917       0.03703142      -0.03270974
Si       6.31626623       6.19619681       3.29933626       0.02252541      -0.01829785       0.02168976
Si       4.53512246       4.94616652       2.30359928       0.05187204       0.03337159      -0.05989151
Si       3.09502309       1.39635872       7.25097074      -0.03987586       0.00540121       0.14283174
Si       6.14764417       0.48978975      11.14348658      -0.00986791      -0.03051987      -0.08929535
Si       4.04071133       0.87071616       2.52970257      -0.01064960       0.00663033       0.00480575
22
Lattice="5.5699992862268815 1.0813488508999571 -0.2936662957132405 3.93817602444458 6.224030706095394 -0.8369706691135572 0.6605976936009471 -1.2367578915255477 13.169691888864623" Properties=species:S:1:pos:R:3:forces:R:3 unique_starting_index=40 config_type=initial n_minim_iter=6 energy=-3581.9961638682435 stress="0.00011860062821361688 -0.0003126981908182832 -5.948892533745604e-06 -0.0003126981908182832 -0.0006622802550074842 -0.0008131940462459665 -5.948892533745604e-06 -0.0008131940462459665 -2.9427403552103045e-05" free_energy=-3581.9961638682435 pbc="T T T"
Si       7.20389726       2.44893277      10.19712162       0.07437030      -0.03860973      -0.02859515
Si       1.36224781       2.08970687       3.76453241      -0.02209085      -0.00478339       0.04799541
Si       4.79575711       1.35594653       5.62890763      -0.01755715       0.20255792      -0.05298683
Si       3.68056257       2.27079881       9.37307022       0.01030110      -0.08335366      -0.07062801
Si       3.80226848       0.68536223      11.55490388       0.02484582      -0.04348999       0.02536225
Si       8.17136250       5.03304300       4.47033318      -0.03808317       0.01962869      -0.00481833
Si       6.89452241       2.94706179       1.12031150       0.03759362       0.10206760      -0.13138924
Si       5.62559355       3.98010028       6.93215905       0.07868873      -0.05284738      -0.04574242
Si       4.86099898       3.89532044       0.24621750       0.20535901      -0.00073770       0.03007217
Si       6.02902099       4.02513529      11.57629105      -0.08016202      -0.00447267      -0.08281519
Si       5.89604563       1.89887830       8.27508426       0.01030898      -0.05176034       0.06711184
Si       3.99710788       4.57179382       8.50680782      -0.00039999       0.01958932       0.09208119
Si       2.56909592       3.47486098       0.13424277      -0.06648698      -0.02559315       0.05492875
Si       1.45727005      -0.17474503       6.49874675      -0.05012649      -0.06583503       0.03291253
Si       3.67210218      -0.81266079      13.49577459       0.03847418      -0.00868917       0.04307947
Si       7.86479235       4.74754751       6.84696479      -0.20539382      -0.05522864      -0.10446425
Si       4.53186258       2.90921119       3.71396175      -0.00103872       0.06138621      -0.00474298
Si       6.31055651       6.18040085       3.28455200       0.03002071       0.02255299       0.03830790
Si       4.53152685       4.93680207       2.28992979       0.00124141       0.03173521      -0.04583205
Si       3.08971641       1.37561904       7.24214548      -0.04233529       0.04733489       0.19959753
Si       6.14667403       0.45782906      11.13064571       0.01804513      -0.04702184      -0.04475469
Si       4.04110450       0.86067565       2.52753299      -0.00557450      -0.02443014      -0.01467990
22
Lattice="5.5563667407637345 1.0854445837805156 -0.2901164911331063 3.927665110182973 6.252674090448251 -0.8236270099610475 0.6615490196030903 -1.2203208599438982 13.137020714328193" Properties=species:S:1:pos:R:3:forces:R:3 unique_starting_index=40 config_type=initial n_minim_iter=7 energy=-3582.002065129139 stress="-0.0020171154246131895 -0.0005716724042419778 0.0005570862927842707 -0.0005716724042419778 0.0019406416382623535 0.0006279315465889232 0.0005570862927842707 0.0006279315465889232 -0.0015380340227651064" free_energy=-3582.002065129139 pbc="T T T"
Si       7.19409981       2.47546475      10.17937832       0.05559665      -0.04928047      -0.01133950
Si       1.35687971       2.10501276       3.75883160       0.03242076      -0.02973782       0.10628107
Si       4.77948727       1.39284143       5.62518063      -0.02209576       0.22540826      -0.12909383
Si       3.68064262       2.30365852       9.36736960      -0.00643659      -0.13293563      -0.17258040
Si       3.79909404       0.70041721      11.53689850      -0.01596751       0.02021818       0.04605759
Si       8.14927996       5.06634788       4.46487778      -0.06740002      -0.00520582      -0.02042629
Si       6.88785704       2.96828947       1.12360503       0.02718252       0.09710692      -0.17390472
Si       5.60560090       4.00161221       6.92043245       0.09355507      -0.06030290      -0.04363336
Si       4.85748888       3.91687524       0.25112232       0.21639096       0.01228818       0.08288750
Si       6.01541920       4.06042889      11.55205773      -0.05887786      -0.00930668      -0.14246343
Si       5.88748369       1.91032046       8.26197344      -0.00838989      -0.03068572       0.07903439
Si       3.98226340       4.59749709       8.49549928      -0.01211732       0.04897399       0.11758975
Si       2.57382183       3.49815153       0.13783908      -0.13273440      -0.06057325       0.03998675
Si       1.43845511      -0.16752926       6.49395119       0.07382697      -0.06801777       0.02287018
Si       3.66113634      -0.79902768      13.46245838       0.05257480      -0.01493616       0.07082937
Si       7.84017726       4.78249224       6.83454358      -0.19936199      -0.11215700      -0.07318349
Si       4.51758278       2.93682622       3.70390310      -0.01086906       0.02210928       0.00625087
Si       6.29864308       6.21645082       3.29097662      -0.02940868       0.04951906       0.04637587
Si       4.52461819       4.96874106       2.29048721       0.02037876       0.02066080      -0.04238287
Si       3.07718902       1.39219390       7.23006935      -0.08817514       0.09900536       0.28480453
Si       6.13365076       0.47609673      11.09932144       0.05742583      -0.06044987      -0.04554567
Si       4.03313989       0.86969600       2.52704444       0.02248191       0.03829908      -0.04841429
22
Lattice="5.575942842183521 1.0992411720622408 -0.3115312741587705 3.9562616359008764 6.261775187650617 -0.8660118365859631 0.6221672103707832 -1.2855901832189909 13.122692553415085" Properties=species:S:1:pos:R:3:forces:R:3 unique_starting_index=40 config_type=initial n_minim_iter=8 energy=-3582.019012834384 stress="0.0009121261963278087 0.001356720008585657 -0.0013957416064177021 0.001356720008585657 0.001026727597698419 -0.002274294321568007 -0.0013957416064177021 -0.002274294321568007 -0.0031064503127578554" free_energy=-3582.019012834384 pbc="T T T"
Si       7.20316488       2.43318817      10.13099205       0.10893197      -0.10724133       0.00083238
Si       1.35097738       2.08495949       3.74040690       0.01218110      -0.03975411       0.08392093
Si       4.77053955       1.41640247       5.60226457      -0.05473971       0.28565441      -0.09127761
Si       3.68140842       2.26704571       9.34413230      -0.01414166      -0.17258089      -0.15570886
Si       3.78471180       0.63710105      11.51855171       0.00229178      -0.01456871      -0.01603532
Si       8.16567370       5.06227174       4.40008064      -0.07769638      -0.00034769       0.03088502
Si       6.92935769       2.98980435       1.08008443       0.03318159       0.09984193      -0.14964887
Si       5.60328627       3.95962114       6.86686029       0.05008900      -0.07739301       0.00983208
Si       4.90225630       3.92886334       0.21614188       0.07766898      -0.00863384      -0.12362850
Si       6.00547692       4.00635655      11.48426973      -0.08948139      -0.04521517      -0.04110356
Si       5.89207274       1.86060102       8.22953677      -0.05661387       0.00322570       0.10804770
Si       3.97005824       4.54414586       8.45255676      -0.01127988      -0.00455887      -0.05946020
Si       2.60353195       3.50917666       0.10992440      -0.07951270      -0.06790447       0.14027704
Si       1.39763694      -0.20446234       6.49879498       0.18499619      -0.08447833      -0.01616723
Si       3.62462739      -0.86785392      13.43740527       0.09979495       0.00417632       0.01529809
Si       7.83592852       4.76064991       6.76423861      -0.19333117      -0.07720357      -0.03438516
Si       4.52085676       2.93969522       3.65884258       0.02209639       0.06449423       0.03097492
Si       6.32759315       6.21225881       3.24126958      -0.01034843       0.10428128       0.03459830
Si       4.55060826       4.97222012       2.24065686      -0.01297469       0.06048240       0.05350235
Si       3.05590855       1.36019064       7.21676285      -0.05236110       0.03964678       0.15605204
Si       6.12105237       0.42716174      11.04926284       0.06003763       0.04185304       0.07700094
Si       4.04196700       0.86750659       2.51098033       0.00121141      -0.00377610      -0.05380648
22
Lattice="5.563911367785324 1.071795748515622 -0.3053106961266889 3.9228181835987135 6.224909965463817 -0.8740855828155423 0.6494371242842135 -1.306021638980339 13.199540264547165" Properties=species:S:1:pos:R:3:forces:R:3 unique_starting_index=40 config_type=initial n_minim_iter=9 energy=-3582.0372621972365 stress="0.0006525984477495572 -0.0011809107086248887 -0.0006495061384244937 -0.0011809107086248887 -0.0008211268582314837 -0.0020970907392200704 -0.0006495061384244937 -0.0020970907392200704 0.00025768111756455846" free_energy=-3582.0372621972365 pbc="T T T"
Si       7.21249737       2.37122170      10.19613235       0.08442686      -0.06456951      -0.03704613
Si       1.34359459       2.06357841       3.76299212       0.02364286      -0.05522111      -0.07877087
Si       4.75939842       1.42025493       5.64347546       0.00622076       0.33733273      -0.05549326
Si       3.69285659       2.22887462       9.40728730      -0.04852698      -0.24413450      -0.18459229
Si       3.80277813       0.58884344      11.59963737      -0.01121044       0.00457011      -0.00082092
Si       8.13509313       5.00505889       4.42385924      -0.07667139       0.01703792       0.09879263
Si       6.92510990       2.96026551       1.08564802      -0.01844389       0.01505083       0.06836104
Si       5.58595074       3.89569334       6.90294326      -0.11368973      -0.11504353       0.06818096
Si       4.90018461       3.89769548       0.21928193       0.01257076       0.02958095      -0.12910124
Si       5.99678412       3.94226547      11.54076748      -0.11468702      -0.04897104      -0.04030556
Si       5.89655158       1.79828150       8.28996429      -0.05845133       0.03823324       0.18001914
Si       3.95195296       4.48481281       8.50383892      -0.01123674      -0.01232994      -0.15909291
Si       2.59577148       3.49143443       0.10907925      -0.00025935      -0.03085827       0.11081918
Si       1.38848387      -0.22740003       6.55247507       0.15675622      -0.11665916      -0.08642993
Si       3.64312374      -0.91048775      13.52179576       0.16930820       0.01067576       0.06843763
Si       7.79872718       4.69668933       6.79623637      -0.01632591      -0.01292278      -0.06189975
Si       4.50403361       2.91569307       3.67314338       0.00492273       0.07077424       0.02753559
Si       6.30303924       6.16094653       3.26541172       0.00139447       0.16596513       0.04318162
Si       4.53407106       4.93931438       2.24631807      -0.09308157       0.03340325       0.01597716
Si       3.04764279       1.33003112       7.27477507       0.00821655       0.04129416       0.09091278
Si       6.13194120       0.37560033      11.10959499       0.09372543      -0.01928568       0.15171260
Si       4.03953070       0.84446946       2.53324293       0.00139952      -0.04392279      -0.09037749
22
Lattice="5.566427132563858 1.0761015046913707 -0.28737450940671444 3.926710171399962 6.230521031022199 -0.8534763617702233 0.6874201141610449 -1.2882017094420537 13.19134181276262" Properties=species:S:1:pos:R:3:forces:R:3 unique_starting_index=40 config_type=initial n_minim_iter=10 energy=-3582.0504028152836 stress="0.0018076896808121201 -0.00021321842482172933 0.001419059697089624 -0.00021321842482172933 -0.0007866249233850402 -0.0002473729871942466 0.001419059697089624 -0.0002473729871942466 -0.0006573147927276193" free_energy=-3582.0504028152836 pbc="T T T"
Si       7.25643249       2.38713899      10.21312988       0.03529848      -0.07641967      -0.05057511
Si       1.35526150       2.06892370       3.76833915       0.03368969      -0.00382798      -0.07932344
Si       4.77307026       1.46486053       5.65697491       0.09075289       0.30274330       0.00506141
Si       3.72963785       2.24232933       9.41670354      -0.05909622      -0.25085868      -0.16690748
Si       3.84255844       0.60136904      11.61213530      -0.01020089       0.04286039      -0.01767181
Si       8.14966703       5.02225667       4.44828124      -0.09890666      -0.00443433       0.06895230
Si       6.94421002       2.97783454       1.10464222      -0.04307851      -0.05311643       0.16495408
Si       5.60687459       3.89981198       6.91715084      -0.14813314      -0.13199948       0.05098369
Si       4.92102975       3.90738140       0.23788237      -0.10475661       0.00138746      -0.11598706
Si       6.03231981       3.96076702      11.54699055      -0.01218430       0.01005945      -0.02126301
Si       5.92802015       1.80412534       8.31243125      -0.04740926       0.05431687       0.20500612
Si       3.97624645       4.49388931       8.51762037      -0.08760564      -0.03158032      -0.19116016
Si       2.60656948       3.49863331       0.12285296       0.11800935       0.02346755       0.06790992
Si       1.39771404      -0.22367823       6.56066045       0.14760785      -0.06218213      -0.12588487
Si       3.68348472      -0.89478041      13.52490477       0.11106905      -0.05483086       0.04843360
Si       7.81191035       4.71255499       6.81183047       0.07640675       0.02279436       0.03905339
Si       4.51563400       2.93462029       3.68187160       0.00199999       0.02983999      -0.01076122
Si       6.32292426       6.17792396       3.29438719      -0.05892817       0.12957079       0.02111272
Si       4.55032907       4.95449230       2.25993152      -0.05644033       0.08022273       0.05349574
Si       3.06361643       1.34384169       7.29367916      -0.01510664      -0.01184684      -0.00137528
Si       6.16984127       0.39159483      11.11445073       0.08978921      -0.02078753       0.16116918
Si       4.05076831       0.85250197       2.54477893       0.03722312       0.00462134      -0.10522270
22
Lattice="5.540879084495316 1.0829618108593433 -0.3022142219516636 3.9145797054596936 6.248841411121217 -0.8608081995412822 0.6477270602697273 -1.2779276158684512 13.23426856017599" Properties=species:S:1:pos:R:3:forces:R:3 unique_starting_index=40 config_type=initial n_minim_iter=11 energy=-3582.0615477082056 stress="-0.0013145118746071105 0.0005779105399946972 -0.0006914029828517176 0.0005779105399946972 0.0002451535831137964 0.0015973039256576996 -0.0006914029828517176 0.0015973039256576996 0.0016396667675862928" free_energy=-3582.0615477082056 pbc="T T T"
Si       7.20585199       2.40287067      10.23019373       0.00782532      -0.05380234       0.02049720
Si       1.33873855       2.07666227       3.78041443       0.09706565       0.03076922      -0.13570618
Si       4.72965108       1.51756884       5.66686020       0.05467039       0.31575478       0.10050537
Si       3.69406988       2.25420486       9.44209989      -0.05765614      -0.20133246      -0.15161675
Si       3.79709192       0.61034646      11.65178689      -0.04670501       0.06355402       0.06256942
Si       8.09426443       5.04821243       4.44346554      -0.09128756      -0.06282312       0.08931193