12
Lattice="5.206019561624553 2.0724697904684675 0.803240846730436 1.7063419593985727 6.649331767529462 1.3177705809077542 0.17126426536689676 -0.2511883887285824 7.983455075472351" Properties=species:S:1:pos:R:3:forces:R:3 unique_starting_index=414 config_type=initial n_minim_iter=1 energy=-1954.4614859430715 stress="-0.00017888201687600054 4.8590974450503856e-05 4.396018327745158e-05 4.8590974450503856e-05 2.5627620546660888e-05 9.184968008961636e-06 4.396018327745158e-05 9.184968008961636e-06 -0.00015940270714969858" free_energy=-1954.4614859430715 pbc="T T T"
Si       2.22684301       3.63114939       4.43891177      -0.01031195       0.00754184      -0.01023734
Si       1.14283259       2.44191678       1.10587465       0.00238747      -0.00890579       0.01605572
Si       3.42987940       5.52961031       3.78210769      -0.01137472      -0.00008797      -0.01235648
Si       0.41497207       2.67698543       3.35316644      -0.00857501      -0.00316097      -0.00570857
Si       5.99623029       6.65428707       6.87807942       0.00614028      -0.00688405       0.00412148
Si       5.30951823       8.41567675       5.35266792       0.00374711       0.00209076      -0.00070804
Si       4.84960312       3.34769819       0.42823917       0.01196810      -0.00935687       0.00502493
Si       4.78615544       6.35314410       2.00190861       0.00405136       0.01460368      -0.00076260
Si       2.33075481       7.08827722       5.11353271       0.00742001       0.01760940      -0.00397244
Si       2.18581205       6.11990022       7.26657155       0.00475741       0.00318055       0.00030080
Si       4.30304128       5.31328468       7.86133959      -0.00366449      -0.00634332      -0.00004814
Si       3.39740356       1.85227939       1.59335016      -0.00654558      -0.01028724       0.00829067
12
Lattice="5.207255307156931 2.0719827503671087 0.8030545716918204 1.706224197847345 6.648919401522826 1.3178855283736346 0.170785433060983 -0.25130523693582524 7.985424390409411" Properties=species:S:1:pos:R:3:forces:R:3 unique_starting_index=414 config_type=initial n_minim_iter=2 energy=-1954.461506142262 stress="0.00012856421755135156 -1.752308109057912e-05 6.711154947492021e-06 -1.752308109057912e-05 0.00010649057535691324 6.060727512595791e-06 6.711154947492021e-06 6.060727512595791e-06 7.864405040265708e-05" free_energy=-1954.461506142262 pbc="T T T"
Si       2.22682024       3.63082040       4.43974343      -0.01053314       0.00628933      -0.01003592
Si       1.14290523       2.44166193       1.10613583      -0.00004712      -0.00804300       0.01969739
Si       3.43008594       5.52907668       3.78265416      -0.00733080       0.00177681      -0.01137226
Si       0.41460272       2.67677996       3.35389483      -0.01003232      -0.00086113      -0.00968856
Si       5.99696305       6.65342833       6.87930418       0.00671914      -0.00810654       0.00211102
Si       5.31001640       8.41487748       5.35350649       0.00420994       0.00333035      -0.00097843
Si       4.85074381       3.34713426       0.42799751       0.01072896      -0.01033504       0.00475465
Si       4.78689466       6.35259233       2.00198208       0.00262202       0.00912842       0.00006361
Si       2.33056445       7.08785591       5.11451412       0.00687847       0.01269850      -0.00366335
Si       2.18549082       6.11940768       7.26813664       0.00834821       0.00381040      -0.00077951
Si       4.30327629       5.31259651       7.86291669      -0.00354521      -0.00423996       0.00080822
Si       3.39805838       1.85186223       1.59353802      -0.00801815      -0.00544813       0.00908314
12
Lattice="5.206845373033937 2.0707701705418504 0.8023794459370004 1.705648932664533 6.645854482973506 1.3175055659897545 0.16977821114984198 -0.2515477595106138 7.986159886439869" Properties=species:S:1:pos:R:3:forces:R:3 unique_starting_index=414 config_type=initial n_minim_iter=3 energy=-1954.4615352725714 stress="4.927717815709249e-06 -3.94408583191272e-05 -6.475305709824915e-05 -3.94408583191272e-05 -0.00033189196840272716 -4.413184210938806e-05 -6.475305709824915e-05 -4.413184210938806e-05 4.2960770812943464e-05" free_energy=-1954.4615352725714 pbc="T T T"
Si       2.22573619       3.62908061       4.43947943      -0.01033332       0.00402976      -0.00694983
Si       1.14261676       2.44028435       1.10642174      -0.00051009      -0.00664475       0.01894498
Si       3.42897693       5.52633332       3.78205516      -0.00518172       0.00574941      -0.01301821
Si       0.41379920       2.67539642       3.35384806      -0.01275229       0.00696314      -0.01277919
Si       5.99566959       6.64972043       6.87896821       0.00547498      -0.00958028       0.00042405
Si       5.30879414       8.41074481       5.35294953       0.00363592       0.00181412      -0.00178173
Si       4.85059575       3.34516043       0.42739286       0.00828278      -0.01192483       0.00567161
Si       4.78620422       6.34973731       2.00128154       0.00114641       0.00193343      -0.00074625
Si       2.32962873       7.08474946       5.11430101       0.00710367       0.00339385       0.00028006
Si       2.18433317       6.11637858       7.26826644       0.00862102       0.00374935      -0.00300188
Si       4.30175341       5.30958266       7.86288757      -0.00143483      -0.00149623       0.00139270
Si       3.39745314       1.85063079       1.59338386      -0.00405253       0.00201302       0.01156369
12
Lattice="5.2062844355802245 2.0713923206307463 0.8023021845025973 1.7055920931798751 6.6473371480349375 1.3178803568288284 0.16939356440732553 -0.25111473947949703 7.986453570362629" Properties=species:S:1:pos:R:3:forces:R:3 unique_starting_index=414 config_type=initial n_minim_iter=4 energy=-1954.4616283164899 stress="-3.1343977681281604e-05 -7.446454720233698e-06 -7.58086639040007e-05 -7.446454720233698e-06 -0.0001011093492336643 -2.8698000724083627e-05 -7.58086639040007e-05 -2.8698000724083627e-05 3.583192594239423e-05" free_energy=-1954.4616283164899 pbc="T T T"
Si       2.22472821       3.63054593       4.43917185      -0.00572004      -0.00062562      -0.00845483
Si       1.14254817       2.44037081       1.10773544      -0.00593791      -0.00340186       0.00899996
Si       3.42806570       5.52791736       3.78161581      -0.01066934       0.00957140      -0.01003089
Si       0.41303203       2.67616208       3.35354106      -0.01136229       0.01003661      -0.00564554
Si       5.99528118       6.65115017       6.87952224       0.00381371      -0.00365857       0.00063753
Si       5.30845422       8.41310151       5.35336046       0.00077581       0.00359688       0.00429766
Si       4.85080397       3.34534790       0.42771427       0.00277858      -0.00549978       0.00883152
Si       4.78593675       6.35188152       2.00150418       0.00258794      -0.00823771      -0.00422260
Si       2.32979663       7.08734587       5.11463884       0.00665308      -0.00566899       0.00097978
Si       2.18440562       6.11835406       7.26876460       0.00166667       0.00289438      -0.00839145
Si       4.30087264       5.31098789       7.86336787       0.00985082      -0.00467085       0.00602828
Si       3.39662562       1.85086265       1.59400388       0.00556297       0.00566411       0.00697059
12
Lattice="5.20687321223131 2.0713776713145995 0.8038405712613639 1.7058922415623115 6.647503349823825 1.3191595004645789 0.17139465940982 -0.25001365255830493 7.986063212484656" Properties=species:S:1:pos:R:3:forces:R:3 unique_starting_index=414 config_type=initial n_minim_iter=5 energy=-1954.4616772971833 stress="0.00012340036581413803 -3.1413423788349566e-05 0.00016226401595421784 -3.1413423788349566e-05 -5.9056908377358005e-05 4.310293063850917e-05 0.00016226401595421784 4.310293063850917e-05 -0.00011184890579241391" free_energy=-1954.4616772971833 pbc="T T T"
Si       2.22504962       3.63155842       4.43910410      -0.00444742      -0.01008786      -0.01253385
Si       1.14276020       2.43984445       1.10981139      -0.00472483      -0.00205184      -0.00760802
Si       3.42828028       5.52872298       3.78195837      -0.01006373       0.01032244      -0.00580560
Si       0.41285762       2.67681625       3.35310674      -0.01052339       0.01748296       0.00847799
Si       5.99786971       6.65133816       6.88179201       0.00344456       0.00577593       0.00240930
Si       5.31031453       8.41402438       5.35562013      -0.00075184       0.00530244       0.01145522
Si       4.85207225       3.34444841       0.42993014       0.00082176       0.00364793       0.01189968
Si       4.78695187       6.35257924       2.00334279       0.00437483      -0.01537313      -0.00937829
Si       2.33174519       7.08882817       5.11573181       0.00120280      -0.01212366      -0.00038922
Si       2.18677289       6.11965363       7.26953676       0.00058944      -0.00406629      -0.00935197
Si       4.30306604       5.31153828       7.86497214       0.01198791      -0.00627050       0.00955171
Si       3.39690705       1.85069487       1.59583216       0.00808991       0.00744158       0.00127305
12
Lattice="5.205130385027518 2.0722054597364052 0.8024997678111302 1.7054772558263387 6.648986287874746 1.3189734900912606 0.1689121351525808 -0.2501686102313507 7.988596146385255" Properties=species:S:1:pos:R:3:forces:R:3 unique_starting_index=414 config_type=initial n_minim_iter=6 energy=-1954.461724222127 stress="-8.398006536820971e-05 2.5310752543778395e-05 -6.193758658809532e-05 2.5310752543778395e-05 0.00021150818321684253 -1.0416309274132334e-05 -6.193758658809532e-05 -1.0416309274132334e-05 2.6507405337155762e-05" free_energy=-1954.461724222127 pbc="T T T"
Si       2.22244702       3.63267275       4.43883677       0.00257243      -0.00446476      -0.00918838
Si       1.14209853       2.43980287       1.11103767      -0.00907250       0.00149964      -0.00933200
Si       3.42556272       5.53053167       3.78101352      -0.01692967       0.01081753      -0.00670150
Si       0.41091341       2.67775978       3.35347705      -0.00924607       0.00949998       0.00889825
Si       5.99493823       6.65258832       6.88232314       0.00083120       0.00690378      -0.00096833
Si       5.30792582       8.41642386       5.35582158      -0.00475263       0.00270461       0.01232473
Si       4.85141243       3.34480614       0.42923105      -0.00612200       0.00352111       0.00856374
Si       4.78562809       6.35448415       2.00220854       0.00489630      -0.02000780      -0.00443546
Si       2.33063423       7.09094483       5.11638329       0.00144411      -0.01167946       0.00342752
Si       2.18485377       6.12121512       7.27077561      -0.00553563      -0.00040371      -0.01085745
Si       4.29992403       5.31236777       7.86644289       0.02230401      -0.00608641       0.00865869
Si       3.39528472       1.85115093       1.59603830       0.01961044       0.00769548      -0.00038981
12
Lattice="5.205846514262233 2.0721560439238558 0.8029064765321156 1.7064809935259662 6.646686495346023 1.3201812230670276 0.1687392888259886 -0.24904167639957603 7.9910192127314845" Properties=species:S:1:pos:R:3:forces:R:3 unique_starting_index=414 config_type=initial n_minim_iter=7 energy=-1954.461842874681 stress="6.0314280873796097e-05 5.507166583586068e-05 -2.7105758603406443e-05 5.507166583586068e-05 -8.301367771131507e-05 2.2651009373656328e-05 -2.7105758603406443e-05 2.2651009373656328e-05 3.731837893958797e-06" free_energy=-1954.461842874681 pbc="T T T"
Si       2.22210462       3.63194809       4.43887996      -0.00106128       0.00732400      -0.00374919
Si       1.14181518       2.43844404       1.11255495       0.00869297      -0.00377399      -0.00491763
Si       3.42454451       5.53048583       3.78113260      -0.00996369      -0.00262479      -0.01012040
Si       0.40938626       2.67847978       3.35470285      -0.00742616      -0.00232199       0.01004729
Si       5.99691647       6.65137530       6.88535814       0.00202405       0.00173049      -0.00345310
Si       5.30945312       8.41495788       5.35940805      -0.00272138      -0.00383406       0.00266881
Si       4.85283730       3.34351013       0.43107207      -0.00089164      -0.00540914      -0.00573315
Si       4.78748335       6.35176287       2.00289349       0.00416519       0.00152658       0.00993564
Si       2.33246334       7.08878368       5.11879850      -0.00827460       0.01083248       0.00183596
Si       2.18607751       6.12012187       7.27263436       0.00691993      -0.00465266       0.00912715
Si       4.30232770       5.31088128       7.87036496       0.00193489       0.00647194      -0.00775011
Si       3.39666778       1.85146361       1.59761037       0.00660173      -0.00526886       0.00210873
12
Lattice="5.204495306559295 2.0712644239749034 0.8032022263885927 1.7049657028632361 6.646758268051389 1.320050897620193 0.16926097286922548 -0.24953836162555568 7.991849753747143" Properties=species:S:1:pos:R:3:forces:R:3 unique_starting_index=414 config_type=initial n_minim_iter=8 energy=-1954.461862704903 stress="-4.8254321725938346e-05 -0.00013700007582541224 5.517468484504819e-06 -0.00013700007582541224 -1.4238545370233547e-05 1.2333723183768846e-05 5.517468484504819e-06 1.2333723183768846e-05 5.060998999683882e-06" free_energy=-1954.461862704903 pbc="T T T"
Si       2.22084472       3.63173531       4.43865377       0.00188224       0.00437611      -0.00121337
Si       1.14118089       2.43798415       1.11309053       0.00995703      -0.00099743      -0.00503754
Si       3.42233821       5.53028341       3.78069487      -0.00734621      -0.00029723      -0.00859155
Si       0.40832067       2.67864658       3.35485046      -0.01064147      -0.00591119       0.00895272
Si       5.99522614       6.65014541       6.88610961       0.00175158       0.00450927      -0.00665540
Si       5.30721278       8.41436684       5.36004211      -0.00810261      -0.00421874       0.00272207
Si       4.85160886       3.34238703       0.43155499      -0.00141139      -0.00120781      -0.00917956
Si       4.78572106       6.35118432       2.00303355       0.00574116       0.00010387       0.00941538
Si       2.33118272       7.08890163       5.11902444      -0.00625308       0.01234065       0.00385796
Si       2.18525281       6.11978081       7.27303449       0.00809268      -0.00413843       0.00962458
Si       4.30126371       5.30980063       7.87123944       0.00051762       0.00277420      -0.00647757
Si       3.39589892       1.85075461       1.59828644       0.00581245      -0.00733327       0.00258227
12
Lattice="5.204122415561394 2.0722274849915254 0.8035324754339292 1.7060020287511055 6.647372541088145 1.3194712831422872 0.16993959073222434 -0.25070473323211506 7.993362535154779" Properties=species:S:1:pos:R:3:forces:R:3 unique_starting_index=414 config_type=initial n_minim_iter=9 energy=-1954.4619040733737 stress="-6.0271766156569915e-05 8.038645471658234e-06 7.423757494004398e-05 8.038645471658234e-06 4.9371824796368965e-05 -8.259801367940216e-05 7.423757494004398e-05 -8.259801367940216e-05 4.849985308063521e-05" free_energy=-1954.4619040733737 pbc="T T T"
Si       2.22072171       3.63222648       4.43787229       0.00240498       0.00463131      -0.00377086
Si       1.14163466       2.43747180       1.11400736       0.00846096      -0.00185540      -0.00803515
Si       3.42156124       5.53130491       3.77929006      -0.00545343      -0.00272649      -0.00766361
Si       0.40749331       2.67882415       3.35506032      -0.00719758      -0.00480111       0.01027156
Si       5.99675934       6.65039959       6.88695916      -0.00207617       0.00985571      -0.00346297
Si       5.30837490       8.41536433       5.36076716      -0.00713922      -0.00572929       0.00390069
Si       4.85213649       3.34258324       0.43212099      -0.00444658       0.00473577      -0.00492545
Si       4.78687343       6.35224342       2.00301096       0.00529124      -0.00251508       0.00689681
Si       2.33290139       7.08999986       5.11909380      -0.01168926       0.00765631       0.01063639
Si       2.18741684       6.11962098       7.27352865       0.00572706      -0.00627139       0.00159261
Si       4.30283391       5.30942682       7.87242920       0.00647551       0.00279361      -0.00499947
Si       3.39618077       1.85093663       1.59949292       0.00964248      -0.00577395      -0.00044054
12
Lattice="5.203818620410405 2.072976506273786 0.803132088065627 1.70632332015467 6.648226320593046 1.3200843151326447 0.16894835495384997 -0.24959737374643345 7.992651384195316" Properties=species:S:1:pos:R:3:forces:R:3 unique_starting_index=414 config_type=initial n_minim_iter=10 energy=-1954.4619670813138 stress="-6.033686679988999e-05 1.1865365616626432e-05 1.8517030541156178e-05 1.1865365616626432e-05 9.3767412639245e-05 2.589009480262147e-05 1.8517030541156178e-05 2.589009480262147e-05 5.859046342706218e-06" free_energy=-1954.4619670813138 pbc="T T T"
Si       2.21955183       3.63394650       4.43622979       0.00082227      -0.00051390       0.00046907
Si       1.14197893       2.43708793       1.11474698       0.00821223      -0.00237569      -0.00511929
Si       3.41932177       5.53316593       3.77731306      -0.00633804       0.00299479       0.00040331
Si       0.40532639       2.67994334       3.35553783      -0.00383415       0.00010421       0.00733712
Si       5.99675786       6.65241440       6.88645808      -0.00149663       0.00810368      -0.00276739
Si       5.30784805       8.41730727       5.36161736      -0.00954152       0.00042865       0.00154563
Si       4.85252555       3.34251600       0.43238799      -0.00301932       0.00896787      -0.00596728
Si       4.78767841       6.35321483       2.00351429       0.00752389      -0.00212099       0.00211864
Si       2.33275070       7.09257975       5.11962055      -0.00885050      -0.00331493       0.00587235
Si       2.18790182       6.12113924       7.27347513       0.00070285      -0.00648176       0.00267244
Si       4.30299213       5.31104807       7.87200011       0.00993118       0.00189635      -0.00428141
Si       3.39673274       1.85117605       1.60013283       0.00588774      -0.00768826      -0.00228320
12
Lattice="5.20412027934225 2.073255695240509 0.8024377113139044 1.7067834632312178 6.648423620382908 1.3184057555643622 0.16879547132918504 -0.25122588110324007 7.99091959503315" Properties=species:S:1:pos:R:3:forces:R:3 unique_starting_index=414 config_type=initial n_minim_iter=11 energy=-1954.4620191495585 stress="3.887799779612843e-05 1.6084147285836424e-05 -7.945456996444057e-06 1.6084147285836424e-05 4.9890154561748205e-05 -6.17320215250356e-05 -7.945456996444057e-06 -6.17320215250356e-05 -5.896894134774277e-05" free_energy=-1954.4620191495585 pbc="T T T"
Si       2.21954902       3.63379511       4.43353224      -0.00178463      -0.00209177       0.00325253
Si       1.14283235       2.43657400       1.11352150       0.00780978      -0.00452178       0.00571861
Si       3.41801441       5.53334116       3.77385223       0.00014349       0.00376973       0.00430947
Si       0.40391667       2.67969227       3.35536394      -0.00299154       0.00183035      -0.00335899
Si       5.99759195       6.65230500       6.88306287      -0.00357118       0.00445974      -0.00036299
Si       5.30778888       8.41685557       5.35937597      -0.00790958       0.00497528      -0.00200795
Si       4.85279908       3.34272443       0.43135058      -0.00065607       0.01002323      -0.00276082
Si       4.78906854       6.35285495       2.00230545       0.00821547       0.00072402      -0.00200461
Si       2.33250259       7.09269607       5.11750068      -0.00735808      -0.00852839       0.00561528
Si       2.18895620       6.11958495       7.27088020       0.00238461      -0.00552624       0.00003290
Si       4.30448927       5.31014723       7.86876358       0.00794244       0.00038789      -0.00534704
Si       3.39818814       1.85071482       1.59973589      -0.00222472      -0.00550208      -0.00308640
12
Lattice="5.203588740709017 2.0734163768737295 0.8032175599955826 1.706872807135351 6.648278883311034 1.3196805133983374 0.16931584712746764 -0.25006049202904623 7.9921274167593985" Properties=species:S:1:pos:R:3:forces:R:3 unique_starting_index=414 config_type=initial n_minim_iter=12 energy=-1954.4620298087837 stress="-5.716219425435941e-05 2.645584322567801e-05 3.650260071306508e-05 2.645584322567801e-05 -3.777886633718821e-05 8.118561485983911e-05 3.650260071306508e-05 8.118561485983911e-05 0.00012251811519056044" free_energy=-1954.4620298087837 pbc="T T T"
Si       2.21973316       3.63434459       4.43479692      -0.00858671      -0.00261150       0.00326544
Si       1.14324627       2.43649660       1.11381448       0.00298048      -0.00572137       0.01102779
Si       3.41758831       5.53380649       3.77521748       0.00013471       0.00692538       0.00622308
Si       0.40376432       2.68009055       3.35674473       0.00101624       0.00393147      -0.00843399
Si       5.99748932       6.65345086       6.88529822       0.00062919       0.00227666       0.00000202
Si       5.30733795       8.41727147       5.36197987      -0.00665464       0.00495154      -0.00671803
Si       4.85214299       3.34296623       0.43199538       0.00574121       0.00819949      -0.00257515
Si       4.78918934       6.35267014       2.00408775       0.00654561       0.00132162      -0.00731144
Si       2.33231421       7.09306786       5.11976762      -0.00307225      -0.00997952       0.00242230
Si       2.18959079       6.12000991       7.27322022      -0.00133284      -0.00343451      -0.00005394
Si       4.30515265       5.31125244       7.87077571       0.00551516       0.00065674       0.00011320
Si       3.39837026       1.85073340       1.60044125      -0.00291616      -0.00651599       0.00203872
12
Lattice="5.204154981737979 2.072938136514224 0.8020117441755749 1.7063925000940192 6.648159361685482 1.3183676147889076 0.16823682700893156 -0.25082107878602933 7.989368869012716" Properties=species:S:1:pos:R:3:forces:R:3 unique_starting_index=414 config_type=initial n_minim_iter=13 energy=-1954.4620556740465 stress="5.311452543553068e-05 -3.624085874864408e-05 -5.580453866484429e-05 -3.624085874864408e-05 -2.5776893669717396e-05 -2.5071403234108218e-05 -5.580453866484429e-05 -2.5071403234108218e-05 -9.903562391174507e-05" free_energy=-1954.4620556740465 pbc="T T T"
Si       2.21896911       3.63378553       4.43266686      -0.00399162      -0.00008087       0.00537497
Si       1.14346620       2.43608851       1.11320893       0.00215551      -0.00390833       0.00899870
Si       3.41689969       5.53355616       3.77294566       0.00182453       0.00266920       0.00415531
Si       0.40284937       2.67992944       3.35529356      -0.00227557      -0.00145879      -0.00660570
Si       5.99688348       6.65274100       6.88134050      -0.00091301      -0.00016309      -0.00201978
Si       5.30624632       8.41665411       5.35854085      -0.00522304       0.00530717      -0.00327522
Si       4.85261779       3.34299411       0.43062548       0.00389998       0.00111027      -0.00189340
Si       4.78961093       6.35212802       2.00208591       0.00720975       0.00005992      -0.00273771
Si       2.33094477       7.09225578       5.11731102      -0.00303006      -0.00171742      -0.00206368
Si       2.18853904       6.11896244       7.26994308       0.00279684      -0.00230657       0.00635741
Si       4.30477098       5.31036380       7.86674070       0.00054050       0.00048677      -0.00448482
Si       3.39868699       1.84999177       1.59923265      -0.00299380       0.00000174      -0.00180608
12
Lattice="5.2034687555870764 2.072978283537141 0.8026988213660333 1.706273732286264 6.648222039128639 1.3189774380234824 0.1689059068998466 -0.25063160461127626 7.991213542253883" Properties=species:S:1:pos:R:3:forces:R:3 unique_starting_index=414 config_type=initial n_minim_iter=14 energy=-1954.4620823808737 stress="-5.563609663838573e-06 1.1025490451179388e-05 1.6724667491882623e-05 1.1025490451179388e-05 1.1469813202695662e-05 -3.214033696870669e-05 1.6724667491882623e-05 -3.214033696870669e-05 5.548018869546746e-06" free_energy=-1954.4620823808737 pbc="T T T"
Si       2.21806790       3.63411450       4.43350062      -0.00282383       0.00320621       0.00088256
Si       1.14388828       2.43520911       1.11496423      -0.00542265      -0.00187833       0.00030637
Si       3.41576354       5.53440667       3.77362593       0.00252841      -0.00224741       0.00082993
Si       0.40193726       2.68034410       3.35564907       0.00021733      -0.00497512       0.00016738
Si       5.99690797       6.65303865       6.88350447      -0.00070037       0.00438532      -0.00231110
Si       5.30529700       8.41737568       5.36040097      -0.00227562      -0.00059819       0.00030271
Si       4.85263481       3.34309648       0.43130540       0.00362433      -0.00320184       0.00159188
Si       4.79018994       6.35226046       2.00284293       0.00375025      -0.00599190      -0.00208194
Si       2.33078414       7.09245185       5.11907732      -0.00429835       0.00514043      -0.00131035
Si       2.18947963       6.11881432       7.27208891       0.00041260      -0.00090684       0.00415295
Si       4.30566230       5.31040946       7.86881118      -0.00072363       0.00042826       0.00013700
Si       3.39839190       1.84944058       1.60040002       0.00571154       0.00663940      -0.00266740
