14
Lattice="3.8612901850153367 -2.695829723495912e-14 -7.350216304502646e-14 4.521459817208634e-14 6.732672267761402 -0.09407472858115684 1.962595475746436e-13 -1.1206554789217034 10.721127047397829" Properties=species:S:1:pos:R:3:forces:R:3 unique_starting_index=228 config_type=initial n_minim_iter=1 energy=-2279.9122176040737 stress="-6.921280762204662e-05 3.1172110945317376e-12 -1.166744657223326e-12 3.1172110945317376e-12 -0.00022618303566735614 -5.907330897061677e-05 -1.166744657223326e-12 -5.907330897061677e-05 -0.00018208274490564994" free_energy=-2279.9122176040737 pbc="T T T"
Si       0.96164666       5.07676891       8.35188479      -0.02090595       0.00269913      -0.00059749
Si       2.89229175       0.53524788       2.27516753      -0.02090595      -0.00269913       0.00059749
Si       2.20357210       0.23729840       5.89867313       0.03274449       0.03337087       0.01387861
Si       0.27292701       5.37471839       4.72837919       0.03274449      -0.03337087      -0.01387861
Si       2.87376251       1.72328069       9.37312406      -0.00079283      -0.01426891       0.03051897
Si       0.94311741       3.88873610       1.25392826      -0.00079283       0.01426891      -0.03051897
Si       0.41909115       1.72679835       6.43894282       0.01640394       0.00664908      -0.00104863
Si       2.34973624       3.88521843       4.18810950       0.01640394      -0.00664908       0.00104863
Si       0.94790883       3.07292811       9.58728646      -0.01845819       0.00798040       0.00693477
Si       2.87855392       2.53908868       1.03976586      -0.01845819      -0.00798040      -0.00693477
Si       3.24729224       1.72012602       4.28625866      -0.00458861      -0.01824590      -0.00320137
Si       1.31664715       3.89189077       6.34079367      -0.00458861       0.01824590       0.00320137
Si       2.88530186      -0.31146195       8.17168059      -0.00440285      -0.03960126      -0.02995374
Si       0.95465677       5.92347873       2.45537173      -0.00440285       0.03960126       0.02995374
14
Lattice="3.861847913790691 -2.6962191119485306e-14 -7.35127797739996e-14 4.5251833615786206e-14 6.7358392213523715 -0.09328017812660006 1.963400145280064e-13 -1.119862373711188 10.725063332797449" Properties=species:S:1:pos:R:3:forces:R:3 unique_starting_index=228 config_type=initial n_minim_iter=2 energy=-2279.912302183905 stress="0.00027071628339936637 -1.3184057387094095e-12 3.875982394554096e-12 -1.3184057387094095e-12 0.00047354665734485567 4.4743629192451275e-05 3.875982394554096e-12 4.4743629192451275e-05 0.00027487693030695107" free_energy=-2279.912302183905 pbc="T T T"
Si       0.96162879       5.08021594       8.35568048      -0.01759483      -0.00176416      -0.00468561
Si       2.89255274       0.53576091       2.27610268      -0.01759483       0.00176416       0.00468561
Si       2.20413594       0.23838822       5.90104828       0.03100764       0.03461123       0.01417597
Si       0.27321199       5.37758862       4.73073488       0.03100764      -0.03461123      -0.01417597
Si       2.87417165       1.72514319       9.37712768      -0.00228303      -0.01866237       0.02874409
Si       0.94324769       3.89083366       1.25465548      -0.00228303       0.01866237      -0.02874409
Si       0.41927470       1.72845755       6.44159499       0.01879769       0.00972697      -0.00561756
Si       2.35019866       3.88751930       4.19018817       0.01879769      -0.00972697       0.00561756
Si       0.94790732       3.07562108       9.59136103      -0.01703058       0.00608261       0.00572742
Si       2.87883128       2.54035577       1.04042212      -0.01703058      -0.00608261      -0.00572742
Si       3.24772687       1.72132983       4.28807572      -0.00635088      -0.01630895      -0.00317515
Si       1.31680291       3.89464702       6.34370744      -0.00635088       0.01630895       0.00317515
Si       2.88568560      -0.31089832       8.17452305      -0.00654601      -0.03149593      -0.02505785
Si       0.95476164       5.92687517       2.45726010      -0.00654601       0.03149593       0.02505785
14
Lattice="3.8596944849874633 -2.6947156566014795e-14 -7.347178786004944e-14 4.5276471541952265e-14 6.734560707563192 -0.0915169546803396 1.9641153455880928e-13 -1.1168049727629148 10.727699136444786" Properties=species:S:1:pos:R:3:forces:R:3 unique_starting_index=228 config_type=initial n_minim_iter=3 energy=-2279.912721616052 stress="-0.0004368756429902085 1.1351791604758334e-12 -1.0368504057479422e-11 1.1351791604758334e-12 0.00027077451977848755 0.0004148219116347439 -1.0368504057479422e-11 0.0004148219116347439 0.00015736890005521316" free_energy=-2279.912721616052 pbc="T T T"
Si       0.96027726       5.08153753       8.35923160      -0.01049633      -0.01495787      -0.00551432
Si       2.89012450       0.53621821       2.27695059      -0.01049633       0.01495787       0.00551432
Si       2.20423315       0.24130741       5.90330362       0.02771414       0.02702740       0.01399494
Si       0.27438591       5.37644832       4.73287857       0.02771414      -0.02702740      -0.01399494
Si       2.87251496       1.72666147       9.38138537      -0.00937071      -0.03489471       0.01241566
Si       0.94266772       3.89109427       1.25479682      -0.00937071       0.03489471      -0.01241566
Si       0.41975195       1.73016548       6.44370717       0.01448866       0.00952710      -0.00761782
Si       2.34959919       3.88759025       4.19247501       0.01448866      -0.00952710       0.00761782
Si       0.94663754       3.07789895       9.59507024      -0.01093611       0.00446301       0.00371358
Si       2.87648478       2.53985678       1.04111195      -0.01093611      -0.00446301      -0.00371358
Si       3.24570138       1.72142268       4.28957339      -0.00032529      -0.01026732      -0.00737238
Si       1.31585414       3.89633305       6.34660879      -0.00032529       0.01026732       0.00737238
Si       2.88386421      -0.31018893       8.17550817      -0.01107437      -0.00054991      -0.01054313
Si       0.95401697       5.92794466       2.46067402      -0.01107437       0.00054991       0.01054313
14
Lattice="3.8648986322789294 -2.6983490263513695e-14 -7.357085217907215e-14 4.50171437112989e-14 6.7259938598766205 -0.10199817521843454 1.9647547638305512e-13 -1.1319448199853714 10.736611016214718" Properties=species:S:1:pos:R:3:forces:R:3 unique_starting_index=228 config_type=initial n_minim_iter=4 energy=-2279.9136034689627 stress="0.0005438314801910909 8.376934143553165e-12 -1.1218158251683708e-11 8.376934143553165e-12 -0.00024014473114736842 0.00012521223515025287 -1.1218158251683708e-11 0.00012521223515025287 -0.00016667079215399176" free_energy=-2279.9136034689627 pbc="T T T"
Si       0.95844023       5.06189483       8.35657072       0.01454985      -0.01279945       0.01806021
Si       2.89088954       0.53215421       2.27804213       0.01454985       0.01279945      -0.01806021
Si       2.21252293       0.23738352       5.90923055       0.02498100       0.00989762       0.01660609
Si       0.28007361       5.35666552       4.72538230       0.02498100      -0.00989762      -0.01660609
Si       2.87599158       1.70685594       9.38964397      -0.03132375      -0.02334865      -0.01116319
Si       0.94354227       3.88719310       1.24496887      -0.03132375       0.02334865       0.01116319
Si       0.42314188       1.71928779       6.44481208       0.00160118      -0.00128414      -0.03208185
Si       2.35559120       3.87476124       4.18980076       0.00160118       0.00128414       0.03208185
Si       0.94504364       3.06026026       9.59777201       0.01009119      -0.00738478      -0.01362847
Si       2.87749296       2.53378878       1.03684084       0.01009119       0.00738478       0.01362847
Si       3.24932413       1.70976987       4.28915204       0.01797433       0.00611678       0.02551791
Si       1.31687482       3.88427916       6.34546080       0.01797433      -0.00611678      -0.02551791
Si       2.88676300      -0.32781935       8.17708928      -0.03787380       0.03373210       0.01072299
Si       0.95431369       5.92186839       2.45752356      -0.03787381      -0.03373210      -0.01072299
14
Lattice="3.8597061951345584 -2.694723832252904e-14 -7.347201077029437e-14 4.492083700862043e-14 6.729840355013518 -0.10846823086462716 1.9654753350208055e-13 -1.1427795872083346 10.744370248026332" Properties=species:S:1:pos:R:3:forces:R:3 unique_starting_index=228 config_type=initial n_minim_iter=5 energy=-2279.9137622292783 stress="-0.000579537715887712 -8.186241395911519e-12 5.301768318862863e-13 -8.186241395911519e-12 0.0001414335667525913 -0.00036826343186534304 5.301768318862863e-13 -0.00036826343186534304 0.00022593096082994203" free_energy=-2279.9137622292783 pbc="T T T"
Si       0.95687445       5.05655448       8.35711025       0.01266033      -0.02827251       0.02897226
Si       2.88672755       0.53050629       2.27879177       0.01266033       0.02827251      -0.02897226
Si       2.21067314       0.23285656       5.91325166       0.03618880       0.00463582       0.01769298
Si       0.28082004       5.35420421       4.72265036       0.03618880      -0.00463582      -0.01769298
Si       2.87165410       1.69807433       9.39439750      -0.02622095      -0.02934260      -0.00799423
Si       0.94180100       3.88898643       1.24150452      -0.02622095       0.02934260       0.00799423
Si       0.42302044       1.71431309       6.44668764      -0.00364955       0.01592480      -0.03216160
Si       2.35287354       3.87274768       4.18921438      -0.00364955      -0.01592480       0.03216160
Si       0.94347549       3.05292750       9.60081149       0.00682809       0.01758337      -0.01566463
Si       2.87332859       2.53413326       1.03509053       0.00682809      -0.01758337       0.01566463
Si       3.24508128       1.70630821       4.29040780       0.01327913       0.01364488       0.02675735
Si       1.31522818       3.88075256       6.34549422       0.01327913      -0.01364488      -0.02675735
Si       2.88224261      -0.33609884       8.18199006      -0.03908585       0.03311956       0.00852078
Si       0.95238951       5.92315961       2.45391196      -0.03908585      -0.03311956      -0.00852079
14
Lattice="3.86051252900403 -2.6952867888576214e-14 -7.348735985847546e-14 4.505937241475106e-14 6.7313937903967815 -0.10176029995829511 1.9650517340069037e-13 -1.132440507897673 10.738352892909091" Properties=species:S:1:pos:R:3:forces:R:3 unique_starting_index=228 config_type=initial n_minim_iter=6 energy=-2279.91434158719 stress="-0.00013993981753899427 4.0979606590467644e-13 -1.3867193702030478e-11 4.0979606590467644e-13 0.0001796270037255901 0.00036497524682957807 -1.3867193702030478e-11 0.00036497524682957807 -0.00038303744979768426" free_energy=-2279.91434158719 pbc="T T T"
Si       0.95743555       5.06509409       8.35932727      -0.00736126      -0.00633490      -0.00411426
Si       2.88769182       0.53385919       2.27726532      -0.00736126       0.00633490       0.00411426
Si       2.21297566       0.23957322       5.91178137       0.01360609       0.00103798       0.00923344
Si       0.28271939       5.35938006       4.72481123       0.01360609      -0.00103798      -0.00923344
Si       2.87089095       1.70627514       9.39174848      -0.01430817      -0.00922133      -0.00553870
Si       0.94063468       3.89267814       1.24484411      -0.01430818       0.00922133       0.00553871
Si       0.42331711       1.72155357       6.44392668       0.01536979       0.00863001      -0.01825761
Si       2.35357337       3.87739971       4.19266591       0.01536980      -0.00863001       0.01825761
Si       0.94381854       3.06347799       9.59888635      -0.00661348      -0.01882990      -0.00393399
Si       2.87407481       2.53547529       1.03770624      -0.00661348       0.01882990       0.00393399
Si       3.24641285       1.71117412       4.29126643       0.00894955       0.01157705      -0.01115278
Si       1.31615658       3.88777916       6.34532616       0.00894955      -0.01157705       0.01115278
Si       2.88099805      -0.32698136       8.17802134      -0.00964251       0.01143093       0.02300831
Si       0.95074179       5.92593464       2.45857125      -0.00964251      -0.01143093      -0.02300831
14
Lattice="3.86096688478855 -2.695604005583188e-14 -7.349600881552197e-14 4.4956079605190084e-14 6.725879189652456 -0.10516399932411612 1.9678588214339306e-13 -1.136714706660608 10.754667011896357" Properties=species:S:1:pos:R:3:forces:R:3 unique_starting_index=228 config_type=initial n_minim_iter=7 energy=-2279.914603916939 stress="7.233772250320002e-05 -1.9344377891481767e-12 1.0947022466017706e-11 -1.9344377891481767e-12 -0.00041230519287114767 0.000267983074316476 1.0947022466017706e-11 0.000267983074316476 0.0004590208780988355" free_energy=-2279.914603916939 pbc="T T T"
Si       0.95677586       5.05614890       8.36969279      -0.01194865      -0.00175732      -0.02190580
Si       2.88725930       0.53301558       2.27981022      -0.01194865       0.00175732       0.02190580
Si       2.21617405       0.23863678       5.92179974       0.01364666      -0.00386175       0.01232201
Si       0.28569061       5.35052770       4.72770327       0.01364666       0.00386175      -0.01232201
Si       2.87003443       1.69841455       9.40598414      -0.01108851       0.00559451       0.01674161
Si       0.93955099       3.89074993       1.24351888      -0.01108851      -0.00559451      -0.01674161
Si       0.42452583       1.71779183       6.45112821       0.00765984      -0.00135333      -0.02437176
Si       2.35500928       3.87137265       4.19837480       0.00765984       0.00135334       0.02437176
Si       0.94310345       3.05657024       9.61134922      -0.01196078      -0.02687014       0.01273077
Si       2.87358689       2.53259424       1.03815379      -0.01196078       0.02687014      -0.01273077
Si       3.24712685       1.70717086       4.29719725       0.01556630      -0.00320431      -0.01806549
Si       1.31664341       3.88199362       6.35230577       0.01556630       0.00320431       0.01806549
Si       2.87970131      -0.33145351       8.18926709      -0.00187487       0.00310634       0.01734401
Si       0.94921787       5.92061799       2.46023592      -0.00187487      -0.00310634      -0.01734401
14
Lattice="3.860414665060229 -2.6952184633716022e-14 -7.348549695483218e-14 4.480360192113467e-14 6.728741740607272 -0.11422400595221104 1.9672457164872236e-13 -1.1515871460163607 10.756900932949138" Properties=species:S:1:pos:R:3:forces:R:3 unique_starting_index=228 config_type=initial n_minim_iter=8 energy=-2279.914915115809 stress="0.00014786183328576943 -4.452361895736413e-12 3.9564487841135895e-12 -4.452361895736413e-12 4.187486900465308e-05 -0.00015643330314040626 3.9564487841135895e-12 -0.00015643330314040626 -8.378475080135807e-05" free_energy=-2279.914915115809 pbc="T T T"
Si       0.95498379       5.04596436       8.36387946      -0.01536382       0.00453194      -0.00977177
Si       2.88519112       0.53119024       2.27879746      -0.01536382      -0.00453194       0.00977177
Si       2.22089065       0.23448756       5.92438303       0.00849982      -0.01504058       0.00589231
Si       0.29068332       5.34266703       4.71829390       0.00849982       0.01504058      -0.00589231
Si       2.86776827       1.68352651       9.40700097      -0.00648149       0.02437067       0.00649025
Si       0.93756093       3.89362808       1.23567596      -0.00648149      -0.02437067      -0.00649025
Si       0.42653896       1.71110242       6.44684631       0.01497154       0.00395402      -0.02386876
Si       2.35674629       3.86605218       4.19583062       0.01497154      -0.00395402       0.02386876
Si       0.94126863       3.04518007       9.60797274      -0.01542246      -0.02358692      -0.00030645
Si       2.87147596       2.53197452       1.03470419      -0.01542246       0.02358692       0.00030645
Si       3.24722180       1.70094049       4.29554976       0.01227120       0.01196075      -0.01932037
Si       1.31701447       3.87621410       6.34712717       0.01227120      -0.01196075       0.01932037
Si       2.87683348      -0.34439263       8.18852935       0.00152521      -0.01188039       0.03139565
Si       0.94662614       5.92154723       2.45414758       0.00152521       0.01188039      -0.03139565
14
Lattice="3.8558084515555846 -2.6920025519317483e-14 -7.339781469325225e-14 4.4937462921145203e-14 6.731192552564275 -0.10809076538326505 1.9703098464768777e-13 -1.1420524393633174 10.769500698875733" Properties=species:S:1:pos:R:3:forces:R:3 unique_starting_index=228 config_type=initial n_minim_iter=9 energy=-2279.915843348618 stress="-0.0011537243946182448 3.7585516871115795e-12 6.0324829044210286e-12 3.7585516871115795e-12 5.456593019237286e-05 0.0002586748882846991 6.0324829044210286e-12 0.0002586748882846991 0.00047896859790056627" free_energy=-2279.915843348618 pbc="T T T"
Si       0.95066362       5.05408681       8.37846328      -0.00724561      -0.03247693      -0.00863045
Si       2.87856784       0.53505330       2.28294666      -0.00724560       0.03247693       0.00863045
Si       2.22518971       0.24058692       5.93620167       0.00609524      -0.00255824      -0.00552881
Si       0.29728548       5.34855319       4.72520827       0.00609524       0.00255824       0.00552881
Si       2.85996216       1.69270244       9.42299956      -0.00288772      -0.01477362      -0.00583360
Si       0.93205793       3.89643767       1.23841037      -0.00288772       0.01477362       0.00583360
Si       0.43016381       1.71985309       6.44867896       0.01653001      -0.02783726      -0.00629850
Si       2.35806803       3.86928703       4.21273097       0.01653001       0.02783726       0.00629850
Si       0.93666986       3.05104075       9.62261513      -0.02679182       0.02489981      -0.00611972
Si       2.86457409       2.53809936       1.03879481      -0.02679182      -0.02489981       0.00611972
Si       3.24700241       1.70732114       4.30034533       0.00925459      -0.01943906      -0.03809324
Si       1.31909819       3.88181897       6.36106460       0.00925459       0.01943906       0.03809324
Si       2.86970356      -0.33747774       8.20383401       0.00504530      -0.00351671       0.02475864
Si       0.94179933       5.92661785       2.45757593       0.00504530       0.00351671      -0.02475864
14
Lattice="3.862908684079326 -2.6969597079506127e-14 -7.353297222444295e-14 4.4791646995356655e-14 6.727881506930274 -0.11453652740003904 1.9714024199034619e-13 -1.1516362509394218 10.778755359116738" Properties=species:S:1:pos:R:3:forces:R:3 unique_starting_index=228 config_type=initial n_minim_iter=10 energy=-2279.916945274952 stress="0.00040408170660631375 -4.792058311447582e-12 -7.004555977683697e-12 -4.792058311447582e-12 -2.9620774341095294e-05 -7.144753556000401e-05 -7.004555977683697e-12 -7.144753556000401e-05 -0.00013656041815553836" free_energy=-2279.916945274952 pbc="T T T"
Si       0.94555543       5.04017257       8.37913469       0.01135524      -0.01819223       0.02148960
Si       2.87700977       0.53607268       2.28508415       0.01135524       0.01819223      -0.02148960
Si       2.24419330       0.24041058       5.94824893      -0.00344150       0.00236300      -0.02039258
Si       0.31273896       5.33583467       4.71596990      -0.00344150      -0.00236300       0.02039258
Si       2.85796599       1.67935508       9.43540602      -0.01281589      -0.00199682      -0.02824474
Si       0.92651165       3.89689017       1.22881282      -0.01281589       0.00199682       0.02824474
Si       0.43969916       1.71592448       6.43946548       0.02594688      -0.07647849      -0.00041632
Si       2.37115350       3.86032078       4.22475336       0.02594688       0.07647849       0.00041632
Si       0.93055046       3.03632341       9.62659281      -0.02594001       0.04038741      -0.02881273
Si       2.86200480       2.53992184       1.03762603      -0.02594001      -0.04038741       0.02881273
Si       3.25810261       1.70203231       4.29799585       0.01021337      -0.02740890      -0.01793391
Si       1.32664827       3.87421294       6.36622299       0.01021337       0.02740890       0.01793392
Si       2.86818323      -0.34999864       8.21491323      -0.00531810      -0.02378100       0.01997711
Si       0.93672889       5.92624390       2.44930560      -0.00531810       0.02378100      -0.01997711
14
Lattice="3.8611505932540306 -2.6957322649778387e-14 -7.349950582531286e-14 4.479486442318162e-14 6.729188632847021 -0.11484691917030024 1.9738952029340268e-13 -1.15216241530051 10.792043680435555" Properties=species:S:1:pos:R:3:forces:R:3 unique_starting_index=228 config_type=initial n_minim_iter=11 energy=-2279.9185804814238 stress="-0.00014954898073801906 4.221615820583037e-12 3.3352211803638057e-12 4.221615820583037e-12 8.984079606171178e-05 1.489187368896999e-06 3.3352211803638057e-12 1.489187368896999e-06 -2.9968469421290344e-05" free_energy=-2279.9185804814238 pbc="T T T"
Si       0.93954049       5.03578322       8.38983527       0.01084140       0.01369719       0.02775249
Si       2.87011579       0.54124300       2.28736149       0.01084140      -0.01369719      -0.02775249
Si       2.25699784       0.24468231       5.96151493       0.01800099      -0.01402272      -0.01881773
Si       0.32642254       5.33234390       4.71568183       0.01800099       0.01402272       0.01881773
Si       2.84842058       1.67614528       9.45085308      -0.02668634      -0.00007354      -0.01725509
Si       0.91784528       3.90088094       1.22634369      -0.02668634       0.00007354       0.01725509
Si       0.44966041       1.71348503       6.43460258       0.02307763      -0.04682326       0.01060374
Si       2.38023571       3.86354118       4.24259418       0.02307763       0.04682326      -0.01060374
Si       0.92075644       3.03516434       9.63565372      -0.01803214       0.00267051       0.00929374
Si       2.85133173       2.54186188       1.04154305      -0.01803214      -0.00267051      -0.00929374
Si       3.26284440       1.70059149       4.29760687      -0.00525683       0.02629424      -0.00279496
Si       1.33226910       3.87643473       6.37958990      -0.00525683      -0.02629424       0.00279496
Si       2.85986575      -0.35558783       8.23244330      -0.00194472      -0.01546994      -0.00552906
Si       0.92929045       5.93261405       2.44475346      -0.00194472       0.01546994       0.00552906
14
Lattice="3.86223930722649 -2.696492370369226e-14 -7.352023020190172e-14 4.477477340495572e-14 6.728263279923111 -0.11556297037386033 1.975968815136968e-13 -1.1529921689487415 10.803241318111214" Properties=species:S:1:pos:R:3:forces:R:3 unique_starting_index=228 config_type=initial n_minim_iter=12 energy=-2279.9193644593147 stress="-0.00013778886875480102 2.0366192281702067e-12 -2.639517939942159e-12 2.0366192281702067e-12 4.7654971343311145e-05 3.87424617058923e-05 -2.639517939942159e-12 3.87424617058923e-05 5.866322737569096e-05" free_energy=-2279.9193644593147 pbc="T T T"
Si       0.93440216       5.03006918       8.39874226       0.01007182       0.03562175       0.03357685
Si       2.86552181       0.54520193       2.28893609       0.01007182      -0.03562175      -0.03357685
Si       2.27147671       0.24784786       5.97328486       0.03487227      -0.02416410      -0.01695109
Si       0.34035706       5.32742325       4.71439349       0.03487228       0.02416411       0.01695109
Si       2.84076107       1.67219279       9.46425101      -0.03595667       0.00410308      -0.01324395
Si       0.90964142       3.90307832       1.22342734      -0.03595667      -0.00410308       0.01324395
Si       0.45985429       1.71017051       6.42880061       0.02100679      -0.03342752       0.01783482
Si       2.39097394       3.86510060       4.25887774       0.02100679       0.03342752      -0.01783482
Si       0.91184327       3.03160251       9.64335121      -0.01394379      -0.02260089       0.03383871
Si       2.84296293       2.54366860       1.04432714      -0.01394379       0.02260089      -0.03383871
Si       3.26962057       1.69947111       4.29651636      -0.01653885       0.05936358       0.01029392
Si       1.33850092       3.87580000       6.39116199      -0.01653885      -0.05936358      -0.01029392
Si       2.85394512      -0.36150432       8.24792119       0.00048843      -0.01068430      -0.02891253
Si       0.92282547       5.93677543       2.43975716       0.00048843       0.01068430       0.02891253
14
Lattice="3.867210975868883 -2.6999634309368952e-14 -7.361486913905726e-14 4.464595625056228e-14 6.724656700873751 -0.12100734326478972 1.9811530660665874e-13 -1.1606417423411304 10.833281375503807" Properties=species:S:1:pos:R:3:forces:R:3 unique_starting_index=228 config_type=initial n_minim_iter=13 energy=-2279.920832717806 stress="1.0089712059275856e-05 4.774916024176111e-12 3.073366828187929e-12 4.774916024176111e-12 -1.3276278003240918e-05 8.963400798172822e-05 3.073366828187929e-12 8.963400798172822e-05 0.00030518186674136717" free_energy=-2279.920832717806 pbc="T T T"
Si       0.91874795       5.00938711       8.42199323      -0.00739888       0.06603974       0.04485104
Si       2.85235344       0.55462785       2.29028081      -0.00739888      -0.06603974      -0.04485104
Si       2.32129916       0.25399093       6.00668550       0.07609235      -0.05645201      -0.00010351
Si       0.38769367       5.31002403       4.70558853       0.07609235       0.05645201       0.00010351
Si       2.81503331       1.65494609       9.50024882      -0.04415724       0.01411490      -0.03188233
Si       0.88142782       3.90906887       1.21202521      -0.04415724      -0.01411490       0.03188233
Si       0.49399343       1.69471150       6.40635258       0.02333160      -0.00700684       0.03197125
Si       2.42759892       3.86930346       4.30592145       0.02333160       0.00700684      -0.03197125
Si       0.88279463       3.01385427       9.66294482      -0.01457270      -0.06684115       0.08020990
Si       2.81640012       2.55016069       1.04932922      -0.01457270       0.06684115      -0.08020990
Si       3.29162273       1.69718896       4.29047450      -0.05121123       0.12906879       0.02748108
Si       1.35801724       3.86682600       6.42179953      -0.05121123      -0.12906879      -0.02748108
Si       2.83584381      -0.38495562       8.29082358       0.01791610       0.01085606      -0.09089687
Si       0.90223832       5.94897057       2.42145046       0.01791610      -0.01085606       0.09089687
14
Lattice="3.8859457614315596 -2.7130434610209284e-14 -7.397149793333577e-14 4.419830787084349e-14 6.714285639850066 -0.1407198808174634 1.9825100680622092e-13 -1.1900554299152917 10.851198137766538" Properties=species:S:1:pos:R:3:forces:R:3 unique_starting_index=228 config_type=initial n_minim_iter=14 energy=-2279.936417922007 stress="0.0005317991599122301 2.4856447362929745e-12 1.4612490223772316e-11 2.4856447362929745e-12 -7.736555566651599e-05 -5.210219550199844e-07 1.4612490223772316e-11 -5.210219550199844e-07 0.0005811929012131661" free_energy=-2279.936417922007 pbc="T T T"
Si       0.88372244       4.95802660       8.44274926      -0.11482628      -0.02219789       0.01001514
Si       2.82669532       0.56620360       2.26772900      -0.11482628       0.02219789      -0.01001514
Si       2.46158274       0.24935030       6.05073636       0.13232234      -0.17519444       0.04542646
Si       0.51860985       5.27487991       4.65974190       0.13232234       0.17519444      -0.04542646
Si       2.74181620       1.60704269       9.52528909      -0.01243206       0.02955410      -0.16864046
Si       0.79884332       3.91718752       1.18518917      -0.01243206      -0.02955410       0.16864046
Si       0.59077197       1.63104273       6.31884257       0.02587774       0.04410939       0.03026109
Si       2.53374485       3.89318748       4.39163569       0.02587773      -0.04410939      -0.03026109
Si       0.80296605       2.95281587       9.66638885      -0.01007561      -0.03309923       0.03332865
Si       2.74593893       2.57141434       1.04408941      -0.01007561       0.03309923      -0.03332864
Si       3.34712775       1.70856650       4.24960276      -0.12312625       0.15783543      -0.03697107
Si       1.40415487       3.81566371       6.46087550      -0.12312625      -0.15783544       0.03697107
Si       2.79703634      -0.45378089       8.34819489       0.10226012       0.08872577      -0.20394451
Si       0.85406345       5.97801110       2.36228337       0.10226013      -0.08872576       0.20394451
14
Lattice="3.894119872345085 -2.7187503647002602e-14 -7.412709743617699e-14 4.413706166812634e-14 6.711908114765744 -0.14306532653460452 1.9749892455115175e-13 -1.1939268007209853 10.813108887750571" Properties=species:S:1:pos:R:3:forces:R:3 unique_starting_index=228 config_type=initial n_minim_iter=15 energy=-2279.9462158695683 stress="0.0010921019058062833 1.519621173331404e-13 3.206485274100356e-12 1.519621173331404e-13 -0.0005884217728288185 0.0001136325031452514 3.206485274100356e-12 0.0001136325031452514 -0.0002683794683556742" free_energy=-2279.9462158695683 pbc="T T T"
Si       0.87920061       4.95350154       8.42345215      -0.14668343      -0.11956471      -0.03538328
Si       2.82626054       0.56447977       2.24659142      -0.14668343       0.11956471       0.03538328
Si       2.49941453       0.23794118       6.03107340       0.13928884      -0.17715391       0.04190091
Si       0.55235459       5.28004013       4.63897016       0.13928884       0.17715391      -0.04190091
Si       2.72064924       1.60392536       9.48385702       0.02650552       0.02265506      -0.17644021