14
Lattice="4.394957206001699 -0.8183716372437341 3.147138158779538e-14 -0.798143662366121 4.337045908761709 -1.489757856697088e-14 -1.253903183306626e-13 4.0709171123387023e-14 18.56926148929874" Properties=species:S:1:pos:R:3:forces:R:3 unique_starting_index=0 config_type=initial n_minim_iter=1 energy=-2274.775165453639 stress="0.0013745214793670865 -0.0010587203785658225 7.120863482435281e-13 -0.0010587203785658225 -0.011394265072353525 -7.74623051626964e-12 7.120863482435281e-13 -7.74623051626964e-12 0.0013517488302528535" free_energy=-2274.775165453639 pbc="T T T"
Si       0.67603955       1.27941000      13.70550906      -0.04322044       0.09018956       0.09106390
Si       1.12236722       0.47992713       4.42087831       0.04322044      -0.09018956       0.09106390
Si       2.92077399       2.23926427       4.86375243       0.04322044      -0.09018956      -0.09106390
Si       2.47444632       3.03874714      14.14838318      -0.04322044       0.09018956      -0.09106390
Si       3.70320234      -0.03173283       6.15957969       0.01867948       0.14346597       0.25342605
Si       2.49016164       0.97269833      15.44421044      -0.01867948      -0.14346597       0.25342605
Si      -0.10638880       3.55040710      12.40968180      -0.01867948      -0.14346597      -0.25342605
Si       1.10665191       2.54597595       3.12505105       0.01867948       0.14346597      -0.25342605
Si       1.68332115       1.38191364       6.86535096       0.06390225       0.02919481       0.07700420
Si       0.11508562       0.37742350      16.14998170      -0.06390225      -0.02919481       0.07700420
Si       1.91349239       2.13676063      11.70391053      -0.06390225      -0.02919481      -0.07700420
Si       3.48172792       3.14125077       2.41927979       0.06390225       0.02919481      -0.07700420
Si       2.19747860      -0.40918582       0.00000000       0.00000000       0.00000000      -0.00000000
Si      -0.39907183       2.16852295       9.28463074      -0.00000000      -0.00000000      -0.00000000
14
Lattice="4.392109383903764 -0.8203031362668096 3.145638585975771e-14 -0.7957942235121587 4.357122010193278 -1.4925726404900374e-14 -1.2532044737132242e-13 4.068648684538057e-14 18.55891418233142" Properties=species:S:1:pos:R:3:forces:R:3 unique_starting_index=0 config_type=initial n_minim_iter=2 energy=-2274.7856194375263 stress="0.003130855126156032 -0.0014486810823843264 2.3923761233415204e-12 -0.0014486810823843264 0.0008011488026668476 1.4427337246410826e-11 2.3923761233415204e-12 1.4427337246410826e-11 0.0048338990677210735" free_energy=-2274.7856194375263 pbc="T T T"
Si       0.67616419       1.28584039      13.69798176      -0.03074619       0.07701147       0.06243986
Si       1.12199339       0.48256905       4.41852467       0.03074619      -0.07701147       0.06243986
Si       2.92015097       2.25097848       4.86093243       0.03074619      -0.07701147      -0.06243986
Si       2.47432177       3.05424983      14.14038952      -0.03074619       0.07701147      -0.06243986
Si       3.70111313      -0.03008839       6.15645294       0.02197177       0.07240124       0.24032918
Si       2.48915384       0.97819469      15.43591003      -0.02197177      -0.07240124       0.24032918
Si      -0.10479797       3.56690726      12.40246124      -0.02197177      -0.07240124      -0.24032918
Si       1.10716132       2.55862419       3.12300415       0.02197177       0.07240124      -0.24032918
Si       1.68304911       1.38919354       6.86161823       0.06109237      -0.04001848       0.06114884
Si       0.11510847       0.37921590      16.14107532      -0.06109237       0.04001849       0.06114884
Si       1.91326605       2.14762533      11.69729595      -0.06109237       0.04001848      -0.06114884
Si       3.48120669       3.15760298       2.41783886       0.06109237      -0.04001848      -0.06114884
Si       2.19605469      -0.41015157       0.00000000      -0.00000000      -0.00000000       0.00000000
Si      -0.39789711       2.17856101       9.27945709      -0.00000000      -0.00000000      -0.00000000
14
Lattice="4.378524909224925 -0.8155555587111514 3.135424762703563e-14 -0.7874525429816251 4.363510922680064 -1.488340492400178e-14 -1.2479274546483223e-13 4.051516335326858e-14 18.480765926385647" Properties=species:S:1:pos:R:3:forces:R:3 unique_starting_index=0 config_type=initial n_minim_iter=3 energy=-2274.791707448576 stress="-0.0009855577887991176 -0.000959229380803213 4.245722128576267e-12 -0.000959229380803213 -0.0004668070663270189 3.781498521652381e-12 4.245722128576267e-12 3.781498521652381e-12 -0.0006181916394636279" free_energy=-2274.791707448576 pbc="T T T"
Si       0.67594751       1.28924368      13.64050473      -0.06230721       0.06502960       0.05011874
Si       1.11958867       0.48473400       4.40012176       0.06230721      -0.06502960       0.05011874
Si       2.91512485       2.25871168       4.84026120       0.06230721      -0.06502960      -0.05011874
Si       2.47148370       3.06322137      14.08064416      -0.06230721       0.06502960      -0.05011874
Si       3.69065353      -0.02468691       6.13125060       0.02318749       0.04293183       0.20953638
Si       2.48340756       0.98310904      15.37163357      -0.02318749      -0.04293183       0.20953638
Si      -0.09958117       3.57264228      12.34951532      -0.02318749      -0.04293183      -0.20953638
Si       1.10766481       2.56484633       3.10913236       0.02318749       0.04293183      -0.20953638
Si       1.68040696       1.39386933       6.83291633       0.01814302      -0.02085637       0.09242032
Si       0.11512922       0.38010835      16.07329929      -0.01814302       0.02085637       0.09242032
Si       1.91066541       2.15408603      11.64784960      -0.01814302       0.02085637      -0.09242032
Si       3.47594314       3.16784701       2.40746663       0.01814302      -0.02085637      -0.09242032
Si       2.18926245      -0.40777778       0.00000000       0.00000000      -0.00000000      -0.00000000
Si      -0.39372627       2.18175546       9.24038296       0.00000000       0.00000000       0.00000000
14
Lattice="4.384626992418436 -0.7901389530841874 3.133973187508263e-14 -0.7639987760928865 4.360719593507108 -1.4718912222180733e-14 -1.2469591007075682e-13 4.0483724812552847e-14 18.46642541128094" Properties=species:S:1:pos:R:3:forces:R:3 unique_starting_index=0 config_type=initial n_minim_iter=4 energy=-2274.7957279868992 stress="0.0010427365036344402 0.0007517201459776746 6.201632581614262e-12 0.0007517201459776746 0.00016284596235121933 -7.95904975227202e-13 6.201632581614262e-12 -7.95904975227202e-13 -0.0004920020989383781" free_energy=-2274.7957279868992 pbc="T T T"
Si       0.68417619       1.29487312      13.63076241      -0.04947533       0.04693216       0.04234528
Si       1.12613792       0.49041720       4.39754971       0.04947533      -0.04693216       0.04234528
Si       2.93645203       2.27570752       4.83566300       0.04947533      -0.04693216      -0.04234528
Si       2.49449030       3.08016344      14.06887570      -0.04947533       0.04693216      -0.04234528
Si       3.70004551      -0.00221678       6.13000550       0.06364286       0.02521709       0.13767865
Si       2.49489559       0.99736815      15.36321820      -0.06364286      -0.02521709       0.13767865
Si      -0.07941729       3.57279743      12.33641991      -0.06364286      -0.02521709      -0.13767865
Si       1.12573263       2.57321249       3.10320721       0.06364286       0.02521709      -0.13767865
Si       1.69307210       1.40393319       6.82906720      -0.00789946      -0.01964789       0.07483238
Si       0.11724201       0.38135713      16.06227991       0.00789946       0.01964789       0.07483238
Si       1.92755612       2.16664745      11.63735821       0.00789946       0.01964789      -0.07483238
Si       3.50338621       3.18922351       2.40414551      -0.00789946      -0.01964789      -0.07483238
Si       2.19231350      -0.39506948       0.00000000       0.00000000      -0.00000000      -0.00000000
Si      -0.38199939       2.18035980       9.23321271       0.00000000       0.00000000       0.00000000
14
Lattice="4.372127560393074 -0.7908343621772806 3.125685306841992e-14 -0.7625941330960986 4.359757957746909 -1.4707319083306988e-14 -1.2498097378266506e-13 4.057627348444101e-14 18.508640972083438" Properties=species:S:1:pos:R:3:forces:R:3 unique_starting_index=0 config_type=initial n_minim_iter=5 energy=-2274.799177573877 stress="-0.000607853211149557 0.00079756221137513 -2.035508893136441e-12 0.00079756221137513 0.00043379373021553157 2.787722600044779e-12 -2.035508893136441e-12 2.787722600044779e-12 0.0007756665813084112" free_energy=-2274.799177573877 pbc="T T T"
Si       0.68081204       1.29560757      13.66292387      -0.05946565       0.04422675       0.01044720
Si       1.12395468       0.48885423       4.40860338       0.05946565      -0.04422675       0.01044721
Si       2.92872139       2.27331603       4.84571710       0.05946565      -0.04422675      -0.01044721
Si       2.48557875       3.08006937      14.10003759      -0.05946565       0.04422675      -0.01044720
Si       3.69041269      -0.00221886       6.14769452       0.05243897      -0.00526737       0.12325487
Si       2.48648158       0.99584629      15.40201501      -0.05243897       0.00526737       0.12325487
Si      -0.08087927       3.57114245      12.36094645      -0.05243897       0.00526737      -0.12325487
Si       1.12305185       2.57307730       3.10662596       0.05243897      -0.00526737      -0.12325487
Si       1.68802522       1.40275054       6.84644056      -0.00453954       0.01116198       0.05170183
Si       0.11674149       0.38171126      16.10076104       0.00453954      -0.01116198       0.05170183
Si       1.92150820       2.16617306      11.66220042       0.00453954      -0.01116198      -0.05170183
Si       3.49279194       3.18721234       2.40787993      -0.00453954       0.01116198      -0.05170183
Si       2.18606378      -0.39541718       0.00000000       0.00000000       0.00000000      -0.00000000
Si      -0.38129707       2.17987898       9.25432049       0.00000000      -0.00000000      -0.00000000
14
Lattice="4.37421105666366 -0.8114303998877554 3.1316074480368e-14 -0.7830288739643048 4.361198719801268 -1.4848464755308997e-14 -1.2495606542005008e-13 4.0568186745292417e-14 18.504952251097436" Properties=species:S:1:pos:R:3:forces:R:3 unique_starting_index=0 config_type=initial n_minim_iter=6 energy=-2274.805960213975 stress="-0.0006359386851535951 -0.0002643851408497031 -8.452979241621544e-12 -0.0002643851408497031 0.0007277295633370349 7.636617558323325e-12 -8.452979241621544e-12 7.636617558323325e-12 8.445997739950069e-05" free_energy=-2274.805960213975 pbc="T T T"
Si       0.67024744       1.29566327      13.66290034      -0.03751075       0.01856750      -0.00082694
Si       1.12534365       0.47922089       4.41042422       0.03751075      -0.01856750      -0.00082694
Si       2.92093474       2.25410505       4.84205191       0.03751075      -0.01856750       0.00082694
Si       2.46583854       3.07054743      14.09452803      -0.03751075       0.01856750       0.00082694
Si       3.69253838      -0.01812092       6.15832674      -0.01109679      -0.06625159       0.03468793
Si       2.47726376       0.98157468      15.41080286       0.01109679       0.06625159       0.03468793
Si      -0.10135620       3.56788924      12.34662551       0.01109679       0.06625159      -0.03468793
Si       1.11391842       2.56819364       3.09414939      -0.01109679      -0.06625159      -0.03468793
Si       1.68094004       1.39306563       6.85053232       0.07449186       0.04714840       0.02102553
Si       0.11465105       0.38181853      16.10300844      -0.07449186      -0.04714840       0.02102553
Si       1.91024214       2.15670269      11.65441994      -0.07449186      -0.04714840      -0.02102553
Si       3.47653114       3.16794979       2.40194381       0.07449186       0.04714840      -0.02102553
Si       2.18710553      -0.40571520       0.00000000       0.00000000       0.00000000      -0.00000000
Si      -0.39151444       2.18059936       9.25247613       0.00000000      -0.00000000      -0.00000000
14
Lattice="4.378232377278994 -0.8092109170533488 3.133836300087774e-14 -0.7825162572266348 4.356111203850614 -1.4833849971974567e-14 -1.250168567757023e-13 4.058792324275918e-14 18.513954944402826" Properties=species:S:1:pos:R:3:forces:R:3 unique_starting_index=0 config_type=initial n_minim_iter=7 energy=-2274.8079844829185 stress="0.00042846222376678386 0.00022215398109340855 3.87685417405214e-12 0.00022215398109340855 -0.0007439544381301568 -4.661009134703219e-12 3.87685417405214e-12 -4.661009134703219e-12 3.2562952001794316e-05" free_energy=-2274.8079844829185 pbc="T T T"
Si       0.66751913       1.29761921      13.67152337      -0.02053168       0.00257178       0.00488748
Si       1.13033893       0.47583093       4.41454590       0.02053168      -0.00257178       0.00488748
Si       2.92819699       2.24928107       4.84243157       0.02053168      -0.00257178      -0.00488748
Si       2.46537719       3.07106936      14.09940904      -0.02053168       0.00257178      -0.00488748
Si       3.69801381      -0.01777442       6.17009378      -0.01437172      -0.08302466      -0.03551865
Si       2.47807663       0.98201364      15.42707125       0.01437172       0.08302466      -0.03551864
Si      -0.10229769       3.56467471      12.34386117       0.01437172       0.08302466       0.03551865
Si       1.11763949       2.56488664       3.08688370      -0.01437171      -0.08302466       0.03551864
Si       1.68580175       1.39303173       6.85812854       0.08808882       0.07220153      -0.00572698
Si       0.11205631       0.38041841      16.11510601      -0.08808882      -0.07220153      -0.00572698
Si       1.90991437       2.15386855      11.65582640      -0.08808882      -0.07220154       0.00572698
Si       3.48365981       3.16648188       2.39884893       0.08808882       0.07220154       0.00572698
Si       2.18911619      -0.40460546       0.00000000      -0.00000000      -0.00000000      -0.00000000
Si      -0.39125813       2.17805560       9.25697747       0.00000000       0.00000000       0.00000000
14
Lattice="4.374891920922381 -0.913089292403453 3.154353764793714e-14 -0.8818674572451541 4.3698150589102855 -1.553476913265473e-14 -1.2489759390274617e-13 4.054920340562595e-14 18.49629310652432" Properties=species:S:1:pos:R:3:forces:R:3 unique_starting_index=0 config_type=initial n_minim_iter=8 energy=-2274.866379299552 stress="0.011408930509857794 0.006434468978364149 1.7679732853418814e-12 0.006434468978364149 0.007008836264229649 7.461925213918384e-12 1.7679732853418814e-12 7.461925213918384e-12 0.0004230009115677004" free_energy=-2274.866379299552 pbc="T T T"
Si       0.57377328       1.31659577      13.67766166      -0.00312578       0.06321862       0.46352666
Si       1.17273896       0.41176711       4.42951511       0.00312578      -0.06321862       0.46352666
Si       2.91925119       2.14012999       4.81863144       0.00312578      -0.06321862      -0.46352665
Si       2.32028551       3.04495866      14.06677800      -0.00312578       0.06321862      -0.46352666
Si       3.68482893      -0.19314104       6.22743679      -0.08808978       0.07981615       0.13286340
Si       2.43657522       1.00841463      15.47558335       0.08808978      -0.07981615       0.13286340
Si      -0.19180447       3.64986680      12.26885631       0.08808978      -0.07981615      -0.13286340
Si       1.05644924       2.44831114       3.02070976      -0.08808978       0.07981615      -0.13286340
Si       1.74812340       1.42086966       6.89212468      -0.32103257      -0.03765431      -0.07453125
Si      -0.00161117       0.30749322      16.14027123       0.32103257       0.03765431      -0.07453125
Si       1.74490106       2.03585611      11.60416843       0.32103257       0.03765431       0.07453125
Si       3.49463563       3.14923254       2.35602187      -0.32103257      -0.03765431       0.07453125
Si       2.18744596      -0.45654465       0.00000000      -0.00000000      -0.00000000       0.00000000
Si      -0.44093373       2.18490753       9.24814655      -0.00000000       0.00000000       0.00000000
14
Lattice="4.371324618292208 -0.9522982182798068 3.160540643369082e-14 -0.9191232084721009 4.374050615342824 -1.5795626921770416e-14 -1.2494391294066601e-13 4.056424132614539e-14 18.503152570145744" Properties=species:S:1:pos:R:3:forces:R:3 unique_starting_index=0 config_type=initial n_minim_iter=9 energy=-2274.8855649424804 stress="0.010769638242209865 0.005489748991132062 -4.4246227841764227e-13 0.005489748991132062 0.008016516904541715 1.5875273211726887e-12 -4.4246227841764227e-13 1.5875273211726887e-12 -0.0008587451428775847" free_energy=-2274.8855649424804 pbc="T T T"
Si       0.54173849       1.32200874      13.68939701      -0.01590164       0.08281033       0.55500309
Si       1.18436222       0.38886746       4.43782072       0.01590164      -0.08281033       0.55500309
Si       2.91046292       2.09974366       4.81375556       0.01590164      -0.08281033      -0.55500309
Si       2.26783919       3.03288493      14.06533185      -0.01590164       0.08281033      -0.55500309
Si       3.67882751      -0.25202543       6.25091932      -0.09467746       0.14898849       0.13650177
Si       2.41859781       1.01060341      15.50249561       0.09467746      -0.14898849       0.13650177
Si      -0.22662610       3.67377783      12.25223325       0.09467746      -0.14898849      -0.13650177
Si       1.03360360       2.41114898       3.00065696      -0.09467746       0.14898849      -0.13650177
Si       1.76085981       1.42395126       6.90763317      -0.41589207       0.02660107      -0.06984499
Si      -0.03475911       0.28692494      16.15920946       0.41589207      -0.02660107      -0.06984499
Si       1.69134160       1.99780114      11.59551940       0.41589207      -0.02660107       0.06984499
Si       3.48696052       3.13482746       2.34394311      -0.41589207       0.02660107       0.06984499
Si       2.18566231      -0.47614911       0.00000000       0.00000000      -0.00000000      -0.00000000
Si      -0.45956160       2.18702531       9.25157629      -0.00000000      -0.00000000      -0.00000000
14
Lattice="4.353877863846268 -0.9978851104760815 3.158753552920691e-14 -0.9618785684687157 4.369015556058687 -1.607329736726845e-14 -1.2555511716853776e-13 4.0762674648869346e-14 18.593666824211066" Properties=species:S:1:pos:R:3:forces:R:3 unique_starting_index=0 config_type=initial n_minim_iter=10 energy=-2274.913215459309 stress="0.0047346530368589795 0.0002916456400054194 -5.171844275949676e-13 0.0002916456400054194 -0.0005695900004333397 -7.0166796418865195e-12 -5.171844275949676e-13 -7.0166796418865195e-12 -0.002114575446239053" free_energy=-2274.913215459309 pbc="T T T"
Si       0.50191149       1.32663151      13.76831335      -0.01933585       0.07729064       0.52673560
Si       1.19408815       0.35893371       4.47147994       0.01933585      -0.07729064       0.52673560
Si       2.89008780       2.04449894       4.82535347       0.01933585      -0.07729064      -0.52673560
Si       2.19791114       3.01219673      14.12218688      -0.01933585       0.07729064      -0.52673560
Si       3.66169055      -0.31488026       6.31074821      -0.08913280       0.23436190       0.06314741
Si       2.38818696       1.00256038      15.60758162       0.08913280      -0.23436190       0.06314741
Si      -0.26969125       3.68601071      12.28291862       0.08913280      -0.23436190      -0.06314741
Si       1.00381233       2.36857007       2.98608521      -0.08913280       0.23436190      -0.06314741
Si       1.76105509       1.42085146       6.95741447      -0.46103206       0.09937859      -0.11986497
Si      -0.06505545       0.26471376      16.25424789       0.46103206      -0.09937859      -0.11986497
Si       1.63094420       1.95027898      11.63625235       0.46103206      -0.09937859       0.11986497
Si       3.45705474       3.10641668       2.33941894      -0.46103206       0.09937859       0.11986497
Si       2.17693893      -0.49894256       0.00000000      -0.00000000       0.00000000       0.00000000
Si      -0.48093928       2.18450778       9.29683341       0.00000000       0.00000000       0.00000000
14
Lattice="4.3281522769539675 -0.9846024294127518 3.1384702127985e-14 -0.9449645969335582 4.364367141515079 -1.59488938534578e-14 -1.2607110038799054e-13 4.0930193556685716e-14 18.67007964023757" Properties=species:S:1:pos:R:3:forces:R:3 unique_starting_index=0 config_type=initial n_minim_iter=11 energy=-2274.9762665656926 stress="0.0013414601338396076 0.0010453505306129921 -4.111583747360442e-12 0.0010453505306129921 -0.0010849663587461048 -8.61147583918006e-12 -4.111583747360442e-12 -8.61147583918006e-12 0.0012955000329900102" free_energy=-2274.9762665656926 pbc="T T T"
Si       0.51674527       1.32008790      13.82612858      -0.03183220       0.05456546       0.34291007
Si       1.17484857       0.36979446       4.49108876       0.03183220      -0.05456546       0.34291007
Si       2.86644241       2.05967681       4.84395106       0.03183220      -0.05456546      -0.34291007
Si       2.20833911       3.00997025      14.17899088      -0.03183220       0.05456546      -0.34291007
Si       3.63971532      -0.27717543       6.32552076      -0.18061239       0.09890933       0.06069373
Si       2.38003080       0.98245536      15.66056058       0.18061239      -0.09890933       0.06069373
Si      -0.25652764       3.65694015      12.34455888       0.18061239      -0.09890933      -0.06069373
Si       1.00315688       2.39730935       3.00951906      -0.18061239       0.09890933      -0.06069373
Si       1.72308232       1.40820850       6.97587106      -0.27543669       0.17550806      -0.13185508
Si      -0.03148848       0.28167385      16.31091088       0.27543669      -0.17550806      -0.13185508
Si       1.66010536       1.97155621      11.69420858       0.27543669      -0.17550806       0.13185508
Si       3.41467616       3.09809086       2.35916876      -0.27543669       0.17550806       0.13185508
Si       2.16407614      -0.49230121       0.00000000       0.00000000       0.00000000      -0.00000000
Si      -0.47248230       2.18218357       9.33503982       0.00000000       0.00000000       0.00000000
14
Lattice="4.316054482555787 -0.9943049225013314 3.132428153237504e-14 -0.9514034296041629 4.3694088435923915 -1.6003425413124137e-14 -1.2600376211692518e-13 4.0908331540252145e-14 18.660107403303357" Properties=species:S:1:pos:R:3:forces:R:3 unique_starting_index=0 config_type=initial n_minim_iter=12 energy=-2275.0068379235645 stress="-0.0027359300552125512 -0.0012330827302273557 8.737451877990857e-13 -0.0012330827302273557 -0.0015750383913199556 -5.087030104988605e-12 8.737451877990857e-13 -5.087030104988605e-12 0.0001858038328893424" free_energy=-2275.0068379235645 pbc="T T T"
Si       0.51942137       1.31669269      13.82602292      -0.04462201       0.02161539       0.20461374
Si       1.16290415       0.37085927       4.49596922       0.04462201      -0.02161539       0.20461374
Si       2.84522968       2.05841123       4.83408448       0.04462201      -0.02161539      -0.20461374
Si       2.20174690       3.00424465      14.16413818      -0.04462201       0.02161539      -0.20461374
Si       3.62349450      -0.26712098       6.31706055      -0.27171261      -0.02193374       0.03999548
Si       2.37488551       0.96036802      15.64711426       0.27171261       0.02193374       0.03999548
Si      -0.25884345       3.64222490      12.34304685       0.27171261       0.02193374      -0.03999548
Si       0.98976555       2.41473590       3.01299315      -0.27171261      -0.02193374      -0.03999548
Si       1.69007526       1.39959095       6.96395300      -0.11980215       0.21494123      -0.10641164
Si      -0.00774974       0.28796101      16.29400670       0.11980215      -0.21494123      -0.10641164
Si       1.67457579       1.97551297      11.69615440       0.11980215      -0.21494123       0.10641164
Si       3.37240079       3.08714291       2.36610070      -0.11980215       0.21494123       0.10641164
Si       2.15802724      -0.49715246       0.00000000      -0.00000000      -0.00000000       0.00000000
Si      -0.47570171       2.18470442       9.33005370       0.00000000       0.00000000       0.00000000
14
Lattice="4.306673640084263 -0.9992058442659835 3.127168092887244e-14 -0.9527356256868262 4.379078433285966 -1.6033619692672376e-14 -1.2538263799454546e-13 4.070667762850335e-14 18.56812409550631" Properties=species:S:1:pos:R:3:forces:R:3 unique_starting_index=0 config_type=initial n_minim_iter=13 energy=-2275.060240429926 stress="-0.0051996734828452735 -0.0031232582047687183 -1.8154543785937066e-12 -0.0031232582047687183 0.004309526189142349 3.500118677327495e-12 -1.8154543785937066e-12 3.500118677327495e-12 -0.0016791525841515938" free_energy=-2275.060240429926 pbc="T T T"
Si       0.51895204       1.32049877      13.79723450      -0.04093039      -0.04949967      -0.03320636
Si       1.15801697       0.36943753       4.51317245       0.04093039       0.04949967      -0.03320636
Si       2.83498597       2.05937382       4.77088960       0.04093039       0.04949967       0.03320636
Si       2.19592105       3.01043506      14.05495165      -0.04093039      -0.04949967       0.03320636
Si       3.58490734      -0.25067073       6.28668702      -0.40053806      -0.24557669      -0.03217644
Si       2.39873531       0.94140118      15.57074906       0.40053806       0.24557669      -0.03217644
Si      -0.23096933       3.63054332      12.28143708       0.40053806       0.24557669       0.03217644
Si       0.95520271       2.43847141       2.99737503      -0.40053806      -0.24557669       0.03217644
Si       1.64145689       1.41937038       6.90940412       0.13480363       0.19254346       0.03832274
Si       0.03551212       0.27056591      16.19346616      -0.13480363      -0.19254346       0.03832274
Si       1.71248113       1.96050221      11.65871998      -0.13480363      -0.19254346      -0.03832274
Si       3.31842589       3.10930668       2.37465793       0.13480363       0.19254346      -0.03832274
Si       2.15333682      -0.49960292       0.00000000      -0.00000000      -0.00000000       0.00000000
Si      -0.47636781       2.18953922       9.28406205      -0.00000000      -0.00000000      -0.00000000
14
Lattice="4.304192564718066 -0.9917608367987132 3.123860568173219e-14 -0.9487608547676771 4.358549073641164 -1.5961773485624993e-14 -1.2542744928543007e-13 4.0721226044466855e-14 18.574760274353164" Properties=species:S:1:pos:R:3:forces:R:3 unique_starting_index=0 config_type=initial n_minim_iter=14 energy=-2275.1646377103493 stress="-0.004826335597271737 -0.0029614235077543437 -6.073563585714993e-14 -0.0029614235077543437 -0.001357490481881346 -1.2238491608098725e-11 -6.073563585714993e-14 -1.2238491608098725e-11 0.0005353718055351251" free_energy=-2275.1646377103493 pbc="T T T"
Si       0.48874973       1.33493729      13.85879968      -0.00627497      -0.07673548      -0.04354315
Si       1.18896613       0.34845683       4.57141954       0.00627497       0.07673548      -0.04354315
Si       2.86668198       2.03185095       4.71596060       0.00627497       0.07673548       0.04354315
Si       2.16646558       3.01833141      14.00334073      -0.00627497      -0.07673548       0.04354315
Si       3.54086120      -0.28362679       6.31775119      -0.26947722      -0.04901532      -0.12775451
Si       2.44104722       0.97526007      15.60513133       0.26947722       0.04901532      -0.12775451
Si      -0.18542949       3.65041502      12.25700908       0.26947722       0.04901532       0.12775451
Si       0.91438449       2.39152817       2.96962894      -0.26947722      -0.04901532       0.12775451
Si       1.65462698       1.48143786       6.90957092       0.03789233       0.06220296       0.15185596
Si       0.02308887       0.20195626      16.19695106      -0.03789233      -0.06220296       0.15185596
Si       1.70080473       1.88535038      11.66518935      -0.03789233      -0.06220296      -0.15185596
Si       3.33234284       3.16483197       2.37780922       0.03789233       0.06220296      -0.15185596
Si       2.15209628      -0.49588042       0.00000000       0.00000000      -0.00000000       0.00000000
Si      -0.47438043       2.17927454       9.28738014      -0.00000000      -0.00000000      -0.00000000
14
Lattice="4.327877039933082 -0.9646520939702973 3.1339106686418884e-14 -0.9280682553059515 4.349109402323256 -1.5801350690656e-14 -1.2468030110659164e-13 4.0478657212424664e-14 18.464113853729877" Properties=species:S:1:pos:R:3:forces:R:3 unique_starting_index=0 config_type=initial n_minim_iter=15 energy=-2275.198847774056 stress="0.0009539562662404574 0.0013650428986323355 2.831418132191761e-13 0.0013650428986323355 0.0035399494560857695 -7.865710869356965e-12 2.831418132191761e-13 -7.865710869356965e-12 0.0014317010865392591" free_energy=-2275.198847774056 pbc="T T T"
Si       0.49736561       1.33596772      13.80234733       0.00983051      -0.04804470      -0.05580567
Si       1.20253878       0.35626093       4.57029041      -0.00983051       0.04804470      -0.05580567
Si       2.90244317       2.04848959       4.66176652      -0.00983051       0.04804470       0.05580567
Si       2.19727001       3.02819638      13.89382345       0.00983051      -0.04804470       0.05580567
Si       3.52915312      -0.27152069       6.27070890      -0.20035960      -0.00581877      -0.07706925
Si       2.49862831       0.99909725      15.50276582       0.20035960       0.00581877      -0.07706925