22
Lattice="3.8505963334487228 0.12495147681452912 -0.051339289695818476 -0.45297203057573543 9.63452518012741 1.9740627251799208 -1.5123892269317039 -2.2311928664079135 10.993252680126059" Properties=species:S:1:pos:R:3:forces:R:3 unique_starting_index=340 config_type=initial n_minim_iter=1 energy=-3582.1020632363275 stress="0.00584713789027791 0.0004265794753121967 0.002173400818683547 0.0004265794753121967 0.004445295134778212 0.002640972729822572 0.002173400818683547 0.002640972729822572 0.005251171805273996" free_energy=-3582.1020632363275 pbc="T T T"
Si       0.41297154       0.27047913      10.81778250       0.00030094      -0.15929299       0.00407464
Si       1.43581243       7.24730628       7.76683701       0.25432255       0.13725415       0.07746572
Si       0.35557093       5.09810038       3.38439099      -0.25994636      -0.08692414       0.05392070
Si       2.40931835       7.35183089       9.94557029      -0.01616300       0.09900304      -0.14258211
Si      -0.11840023       4.18623289       5.59604530       0.14135953       0.37821488      -0.04277689
Si       2.44280592      -0.84139229       9.86526816       0.07340695       0.06400894       0.23268216
Si       1.85946459       2.88366077       5.88232820       0.10262617      -0.01266620      -0.16091958
Si       2.54284323       7.98725911       1.64342153      -0.01931207       0.35972335      -0.04116998
Si       1.32812938      -0.36411439       2.60221850      -0.08123756      -0.05830898       0.08642240
Si      -0.41217111       6.23884251       6.81388783      -0.34133660      -0.18289280       0.00402974
Si       0.46032545       5.84237453      10.30521396       0.22659487       0.33468575       0.02457121
Si       2.23092420       6.57185963       3.48222051       0.03263895      -0.41142399      -0.08288628
Si       0.52698985      -0.53294978       6.61839492       0.09793148       0.11601250       0.15757069
Si      -1.01176148       7.96461342       5.28529814      -0.04595008      -0.08677630      -0.12661174
Si       0.10377981       3.54295079      10.49674741       0.30020645      -0.23705298      -0.09211519
Si      -0.00071355       1.74931340       8.97149800      -0.32327429       0.02622186       0.26141565
Si      -0.24305040       5.49521555       0.88454582      -0.16902491      -0.44549668       0.03943699
Si       0.56711879       9.21672720       2.24711219      -0.16531715      -0.14415870       0.27720444
Si       3.03431707       0.85601549       4.99706383       0.02529604      -0.01075561      -0.19022406
Si       1.86841590       1.28833401       7.67180488      -0.01946433       0.26859463      -0.20631514
Si       0.94370253       1.66067707       3.75668555       0.06163370       0.00828930      -0.06036236
Si       0.45867366       3.15390984       1.83665086       0.12470870       0.04374099      -0.07283100
22
Lattice="3.8332184938180407 0.12336362872482136 -0.05784958938974119 -0.45739559538726837 9.597494099075982 1.947139414316517 -1.5232682502200852 -2.245457427676491 10.955687135089297" Properties=species:S:1:pos:R:3:forces:R:3 unique_starting_index=340 config_type=initial n_minim_iter=2 energy=-3582.1220617509584 stress="-0.0011827445466292723 0.00032959817770716974 0.0011888722027893748 0.00032959817770716974 -0.001673557940657529 0.0012467878908970676 0.0011888722027893748 0.0012467878908970676 -0.0009212597688313284" free_energy=-3582.1220617509584 pbc="T T T"
Si       0.39285554       0.24704325      10.77259977       0.08164453      -0.12962379       0.04409658
Si       1.41436398       7.20629623       7.71822309       0.30600192       0.17329833       0.06239188
Si       0.34613569       5.07337611       3.35973952      -0.25747455      -0.11464482       0.05471988
Si       2.37928168       7.30562635       9.88585830      -0.01985708       0.11148312      -0.12528971
Si      -0.12837384       4.16113536       5.56488705       0.12552139       0.37861199      -0.05399092
Si       2.41560121      -0.85931788       9.82323216      -0.01824964       0.05358949       0.19116170
Si       1.84041825       2.86110033       5.84913181       0.09086709      -0.01053561      -0.12820114
Si       2.52592426       7.95624415       1.61609831      -0.02685731       0.31466387      -0.02626754
Si       1.31772295      -0.36871483       2.59031899      -0.08496251      -0.07467458       0.10581909
Si      -0.42441147       6.20327054       6.77417482      -0.37472582      -0.21917341       0.00679958
Si       0.43944007       5.80169757      10.25069633       0.23926145       0.32333366      -0.02793994
Si       2.21288920       6.54065873       3.45076669       0.00228742      -0.42148327      -0.11824406
Si       0.51384783      -0.54458640       6.59199818       0.09600618       0.11033726       0.16805884
Si      -1.01875068       7.92659542       5.24903971      -0.02732786      -0.07906784      -0.06137533
Si       0.08507494       3.50887008      10.44653281       0.25037545      -0.20593493      -0.09598561
Si      -0.01693336       1.72503047       8.93196059      -0.31234749       0.01603369       0.22888303
Si      -0.24554507       5.47376996       0.87021859      -0.11678861      -0.43557598       0.06446905
Si       0.55745648       9.17997820       2.21872595      -0.13196425      -0.11049777       0.26657925
Si       3.01196508       0.84185700       4.96957685       0.03154213      -0.05821403      -0.20497367
Si       1.84662599       1.26812029       7.63449677      -0.02624624       0.27703717      -0.22720195
Si       0.93269412       1.64700132       3.73634083       0.05979727       0.07171576      -0.05433357
Si       0.45270815       3.13923870       1.82184938       0.11349655       0.02932170      -0.06917542
22
Lattice="3.835656271134231 0.11973515758915665 -0.07489618572060519 -0.4766037309015892 9.614005563473397 1.9045647611597922 -1.5687418280762089 -2.3008442099611854 10.974533084064365" Properties=species:S:1:pos:R:3:forces:R:3 unique_starting_index=340 config_type=initial n_minim_iter=3 energy=-3582.1355914229184 stress="0.0007440142328417154 -0.0005297227278473637 -0.0009420679362523888 -0.0005297227278473637 0.0005641857395945093 -0.0021911194461689118 -0.0009420679362523888 -0.0021911194461689118 0.0004074870425846704" free_energy=-3582.1355914229184 pbc="T T T"
Si       0.34711968       0.19589222      10.77183532       0.13698958      -0.04863630       0.03121365
Si       1.37643097       7.18880778       7.68020567       0.32518260       0.23198075       0.02659224
Si       0.32436526       5.06971840       3.33553323      -0.28145050      -0.10610261       0.06446889
Si       2.33010335       7.27677479       9.84214406       0.00262323       0.02246127      -0.08443758
Si      -0.15594734       4.14906441       5.54647519       0.12946745       0.30550231      -0.07321682
Si       2.37579824      -0.90971553       9.82000022      -0.06146486      -0.03770097       0.22369728
Si       1.81399177       2.83915191       5.82780205       0.08662952      -0.00871823      -0.09758198
Si       2.51155537       7.96918742       1.56809363      -0.10691133       0.25227551       0.07067801
Si       1.30716073      -0.38379438       2.58760884      -0.09326819      -0.12386411       0.16354279
Si      -0.46340212       6.18667539       6.74820475      -0.43056105      -0.12365270      -0.04207048
Si       0.39112849       5.77098369      10.22319249       0.19125440       0.24769886      -0.02554102
Si       2.19227692       6.53599359       3.41042344       0.01860316      -0.36858781      -0.26172463
Si       0.48719020      -0.57653785       6.59468585       0.09123490       0.10854414       0.13432720
Si      -1.05085461       7.92331628       5.21669852       0.03225596      -0.05807844      -0.00528537
Si       0.03839708       3.46753369      10.43076133       0.12361523      -0.08922199       0.00241441
Si      -0.05959193       1.68794987       8.92724577      -0.16884831      -0.09460290       0.18043827
Si      -0.25640550       5.48093964       0.84633227       0.01833648      -0.40784581       0.02796683
Si       0.53710077       9.19211155       2.17585320      -0.09545031      -0.07501902       0.21473838
Si       2.99178111       0.81713944       4.95198008       0.12097551      -0.05664508      -0.23217056
Si       1.81339693       1.23586183       7.62017041      -0.13076155       0.34588699      -0.24143360
Si       0.91586958       1.63330859       3.72482509      -0.03147117       0.07129183      -0.02212910
Si       0.44258721       3.13868282       1.80499189       0.12301925       0.01303433      -0.05448682
22
Lattice="3.826861268715609 0.12300817056026526 -0.08769398036954787 -0.4746384994784367 9.647912605990243 1.9347537518906486 -1.60487277058213 -2.2726279813981094 10.95682016467139" Properties=species:S:1:pos:R:3:forces:R:3 unique_starting_index=340 config_type=initial n_minim_iter=4 energy=-3582.1756684099205 stress="-0.0009366713756036135 0.0007223325988712564 -0.00267094414418483 0.0007223325988712564 0.001966229550964481 0.0005485110064149668 -0.00267094414418483 0.0005485110064149668 -0.0012454511477713829" free_energy=-3582.1756684099205 pbc="T T T"
Si       0.31215787       0.22937950      10.75694963       0.15506545      -0.06336027       0.06839075
Si       1.36155038       7.24233730       7.68910171       0.07796019       0.18948924      -0.10181406
Si       0.30769968       5.09240331       3.34807356      -0.16992804      -0.09790791      -0.00031061
Si       2.29577323       7.33455427       9.84037071       0.05405259       0.07226761       0.06879819
Si      -0.16767815       4.18999000       5.55055514       0.05304494       0.19441519       0.00067950
Si       2.33427811      -0.87767171       9.80120210      -0.06218625      -0.07933522       0.13258472
Si       1.79442287       2.86787566       5.81883260       0.13503777       0.06518279      -0.15793009
Si       2.50432790       8.00857891       1.58356212      -0.17846235       0.21640518       0.10841311
Si       1.29200695      -0.37829893       2.58221388      -0.12708191      -0.04554409       0.23368466
Si      -0.49309898       6.22128560       6.75999653      -0.20763507      -0.07071205       0.05474684
Si       0.36578615       5.83078934      10.22514045       0.15117830       0.07533874      -0.01693790
Si       2.18072616       6.55591064       3.41370837      -0.03569832      -0.22829090      -0.21956523
Si       0.46550080      -0.55269430       6.58629043       0.11509749       0.08304555       0.13309683
Si      -1.06033836       7.96060021       5.23744727       0.00954399      -0.12180453      -0.08609097
Si       0.01077057       3.50733838      10.42543000      -0.00724931       0.03243213       0.00422723
Si      -0.09675083       1.72117642       8.92668708      -0.03684604      -0.05363019       0.08429322
Si      -0.25625538       5.48640312       0.86535146       0.18122586      -0.38385859       0.01256729
Si       0.53170212       9.22349756       2.20828476      -0.04437233      -0.08611074       0.17640869
Si       2.97039793       0.83670600       4.93054685       0.10885993       0.00005723      -0.24554920
Si       1.78139036       1.27569703       7.59986733      -0.25373544       0.29555649      -0.14224401
Si       0.90257253       1.65320442       3.72040306      -0.02311205      -0.01784530      -0.02344987
Si       0.44134754       3.15486301       1.80911570       0.10524062       0.02420964      -0.08399907
22
Lattice="3.8263210156630545 0.10346076539192084 -0.058544237233581445 -0.5062923891644213 9.572357064173946 1.9194574418859918 -1.509594225522531 -2.2716138453217223 10.998198577897522" Properties=species:S:1:pos:R:3:forces:R:3 unique_starting_index=340 config_type=initial n_minim_iter=5 energy=-3582.2185921677333 stress="-0.0024927742408541887 -0.0016059847549957072 0.0028645250811658155 -0.0016059847549957072 -0.0025164180811105196 -0.002135477391447314 0.0028645250811658155 -0.002135477391447314 -1.2662140902514096e-05" free_energy=-3582.2185921677333 pbc="T T T"
Si       0.40447752       0.19352508      10.81105548       0.07360140      -0.01542687       0.01138052
Si       1.41127067       7.18158114       7.72055491      -0.54736619       0.00530921      -0.20901660
Si       0.28558540       5.03463071       3.35952066       0.03060678      -0.13926250      -0.05860053
Si       2.33702944       7.25257057       9.87965774       0.28445819       0.13537395       0.15990339
Si      -0.13441291       4.17678514       5.56029877       0.08159794      -0.27109707      -0.00021081
Si       2.41126352      -0.90441545       9.88359383       0.04326811      -0.16691613       0.09944279
Si       1.83526815       2.82478096       5.84084751       0.00163130       0.23476804      -0.27000081
Si       2.47049318       7.95803679       1.59608830      -0.38031596      -0.07165305       0.04468512
Si       1.30495586      -0.39555995       2.61884956       0.14392809      -0.04856916       0.08118553
Si      -0.50483447       6.14670769       6.77364047       0.40966919       0.37893721       0.23855901
Si       0.43600449       5.78564172      10.25919582      -0.05797274      -0.11666112       0.12813358
Si       2.17649719       6.45309579       3.41513297      -0.11739531       0.10030880      -0.22081732
Si       0.52824937      -0.55555973       6.63462572      -0.02324663       0.13196718      -0.06419835
Si      -1.05853492       7.88589093       5.23109236      -0.24921562      -0.28608727      -0.04256687
Si       0.08980546       3.44572763      10.46075401       0.05730554       0.37005152       0.26684571
Si      -0.05626915       1.68555765       8.98025303      -0.01857818      -0.28756925      -0.20337648
Si      -0.27758463       5.40433510       0.85990998       0.14470462      -0.31203158      -0.14199981
Si       0.49437873       9.13637279       2.22518218       0.05461426       0.19780026       0.15744847
Si       3.01233586       0.80087456       4.95303165       0.04197587      -0.19620955       0.00299146
Si       1.82439755       1.26940285       7.62456233      -0.21185249       0.27402000       0.13416804
Si       0.92477635       1.63271654       3.73697320       0.15769739       0.14136669      -0.10050262
Si       0.45116830       3.12687608       1.80755398       0.08088444      -0.05841932      -0.01345343
22
Lattice="3.8527129801747964 0.11669288774856346 -0.08174971201869632 -0.48741228482313076 9.558598809877513 1.9439847558399561 -1.5951001424338036 -2.242939680036998 10.976306900687309" Properties=species:S:1:pos:R:3:forces:R:3 unique_starting_index=340 config_type=initial n_minim_iter=6 energy=-3582.2436979072004 stress="0.004364287062523123 0.0018666458637446482 -0.001037524012722505 0.0018666458637446482 -0.003312258928430116 0.0004511638055905786 -0.001037524012722505 0.0004511638055905786 -0.00206315010890299" free_energy=-3582.2436979072004 pbc="T T T"
Si       0.34355125       0.22297195      10.78503804       0.07293185      -0.09200995       0.06763988
Si       1.39436061       7.19647885       7.71080378      -0.46133933      -0.01120229      -0.22388972
Si       0.28339862       5.03343723       3.36315286       0.08387746      -0.06281640      -0.07519930
Si       2.32129738       7.27692316       9.86409626       0.22419550       0.11426367       0.14474918
Si      -0.15297839       4.18345593       5.55967562      -0.00614787      -0.25354185       0.03827020
Si       2.36395916      -0.86946193       9.84622857       0.00195040      -0.07303687       0.04301271
Si       1.82322428       2.84505794       5.81935234       0.10367612       0.27650241      -0.30279192
Si       2.50027806       7.95863726       1.59983519      -0.30295138       0.06177613       0.10404161
Si       1.29654968      -0.38397817       2.60655805       0.01922553      -0.11683348       0.15176218
Si      -0.52579905       6.15519809       6.78078271       0.34763710       0.28297652       0.31718745
Si       0.39774718       5.80477481      10.24995945      -0.01068464      -0.06000796       0.07516659
Si       2.19175817       6.45703412       3.40734512      -0.17261897       0.02226923      -0.18026406
Si       0.49006552      -0.53241001       6.61540975       0.00395399       0.11455737       0.01307574
Si      -1.07222013       7.87816300       5.24546969      -0.12455267      -0.16938564      -0.13565267
Si       0.03979774       3.47179817      10.44808216      -0.09521939       0.24116190       0.29011082
Si      -0.10676182       1.70363950       8.96380532       0.05354811      -0.17501132      -0.27839018
Si      -0.26297578       5.38891957       0.87294190       0.27397506      -0.28664792      -0.21337831
Si       0.51633910       9.12873475       2.24522035       0.02702439       0.03719101       0.13029954
Si       3.00637172       0.82168912       4.92306411       0.13391860      -0.09606401      -0.10676361
Si       1.79030563       1.29990642       7.59928737      -0.29173001       0.23295714       0.21384277
Si       0.91555093       1.64443622       3.72574857       0.01539503       0.06637716       0.01798849
Si       0.45615669       3.12749897       1.80807903       0.10393512      -0.05347489      -0.09081740
22
Lattice="3.829207811798395 0.11363543241398667 -0.09835386934324222 -0.5030677079220974 9.641343728927286 1.9760066181885665 -1.6314896199362827 -2.230958853434856 11.006279936681212" Properties=species:S:1:pos:R:3:forces:R:3 unique_starting_index=340 config_type=initial n_minim_iter=7 energy=-3582.2737945662816 stress="-4.699459101864046e-06 0.0011258987124046801 -0.0027214096141419983 0.0011258987124046801 0.0030433881273750508 0.002841861678386939 -0.0027214096141419983 0.002841861678386939 0.0015740269786640483" free_energy=-3582.2737945662816 pbc="T T T"
Si       0.29561145       0.25092963      10.81348260       0.12169728      -0.05495340       0.07719110
Si       1.33535471       7.27462442       7.73930766      -0.24359404       0.10180138      -0.09535038
Si       0.26114263       5.07989956       3.38266044       0.03271652      -0.05976138      -0.09260449
Si       2.26066835       7.36196356       9.90196297       0.14261928       0.12019179       0.12440912
Si      -0.17971248       4.22873457       5.58615532       0.00537137      -0.03226565       0.10234105
Si       2.30707671      -0.85601970       9.86216209      -0.01775961      -0.12621463       0.00665330
Si       1.78513412       2.88639154       5.82761948       0.10390385       0.12703838      -0.23488059
Si       2.46188571       8.02623629       1.61583604      -0.32241444       0.08984687       0.12622224
Si       1.27812656      -0.38316393       2.61041031      -0.08886285       0.00992615       0.17470074
Si      -0.55368586       6.22853967       6.82208408       0.14469482       0.08742850       0.13880794
Si       0.34429710       5.87694811      10.29223611       0.02123820      -0.10697979       0.11513317
Si       2.15377919       6.51536217       3.41855149      -0.09624802       0.08107532      -0.16024146
Si       0.45896984      -0.51707804       6.62971469       0.06946277       0.07485911       0.03704320
Si      -1.10071691       7.95118078       5.28205768      -0.07960137      -0.24469134      -0.17228033
Si      -0.01018264       3.53265735      10.48922598      -0.15131224       0.10278694       0.06034198
Si      -0.14786381       1.73623256       8.98895845       0.11574426       0.00739591      -0.06546972
Si      -0.26629827       5.42646249       0.88733251       0.34893560      -0.30365633      -0.09948704
Si       0.49380886       9.20939151       2.27668863       0.02446371       0.00308114       0.14111541
Si       2.96732031       0.83548227       4.92258128       0.09448980       0.00650423      -0.13964462
Si       1.73809469       1.33522988       7.61693225      -0.33661788       0.22253572       0.07244070
Si       0.89350812       1.66817102       3.73456932       0.02822958      -0.07649649      -0.00278472
Si       0.44452412       3.15625311       1.81747207       0.08284341      -0.02945240      -0.11365661
22
Lattice="3.8409774237722547 0.10291975513686963 -0.08294634191486017 -0.5270654884631529 9.727830010598968 1.9089461823359062 -1.5858048723942373 -2.2925679914956936 10.864634386256114" Properties=species:S:1:pos:R:3:forces:R:3 unique_starting_index=340 config_type=initial n_minim_iter=8 energy=-3582.337996525429 stress="0.0017914759594998616 0.0003861994313389971 0.000784543693730576 0.0003861994313389971 0.008259175741924515 0.0006152571430815506 0.000784543693730576 0.0006152571430815506 -0.0053367748547620735" free_energy=-3582.337996525429 pbc="T T T"
Si       0.35410619       0.19758312      10.67791161       0.00909061      -0.02074116      -0.09515613
Si       1.33615085       7.32684233       7.60256523      -0.14256781       0.18041185      -0.04474671
Si       0.24429738       5.09886040       3.31677213       0.10039664       0.18512390      -0.21167704
Si       2.30136980       7.39988387       9.75508095       0.19991667       0.01499163       0.03596455
Si      -0.15967143       4.25729168       5.49450552      -0.01910192      -0.09899847       0.31072773
Si       2.35504647      -0.92311585       9.76363145       0.11507247      -0.13309099       0.13791300
Si       1.81705673       2.90045624       5.71668768      -0.04892875       0.10112608      -0.15741395
Si       2.41807066       8.11131813       1.58063473      -0.14403789       0.18335519       0.27208829
Si       1.28930272      -0.41153813       2.60316674       0.00548398      -0.00685214       0.47131484
Si      -0.55237073       6.27012016       6.72096814       0.11855058      -0.03512960       0.04129934
Si       0.38158564       5.90129632      10.14172402      -0.14393679      -0.16178659      -0.09664692
Si       2.14574348       6.53633244       3.32730889      -0.07953577       0.03497591      -0.14967347
Si       0.49672947      -0.53455187       6.55607878       0.09328758       0.08655702      -0.06987453
Si      -1.12029093       7.98428599       5.16463379      -0.11693104      -0.18963901      -0.02226205
Si       0.02858576       3.53288519      10.34870309       0.04103833       0.14015622      -0.07889773
Si      -0.12995536       1.70177082       8.86488957      -0.07373561       0.07670488       0.13667176
Si      -0.26254177       5.42069409       0.84481675       0.12514264      -0.24261097      -0.10258251
Si       0.47028152       9.28751873       2.23963043      -0.23373171       0.03552936      -0.24759237
Si       3.00642662       0.80253650       4.84433056       0.05503740      -0.03210053       0.02630446
Si       1.74105567       1.35397454       7.51199912      -0.04298832       0.10343143      -0.07020130
Si       0.91339929       1.67350716       3.67613382       0.12361280      -0.07887191      -0.01969698
Si       0.45882707       3.17568393       1.77236138       0.05886592      -0.14254210      -0.06586229
22
Lattice="3.8406640670419794 0.08715839988651272 -0.09728949271725221 -0.5702541409466758 9.61816038871563 1.9093369832846738 -1.6160545408632463 -2.2865502433037994 10.987542286293285" Properties=species:S:1:pos:R:3:forces:R:3 unique_starting_index=340 config_type=initial n_minim_iter=9 energy=-3582.43125286563 stress="-0.0003792144333951137 0.0006055538087770356 0.0012427222455531407 0.0006055538087770356 0.00196703114445692 -0.0012402692758692539 0.0012427222455531407 -0.0012402692758692539 0.00019479470546738032" free_energy=-3582.43125286563 pbc="T T T"
Si       0.33535978       0.15478209      10.79416631      -0.00159070       0.06704149      -0.11070926
Si       1.27020761       7.25003549       7.64758856       0.09178159       0.18957873       0.25915917
Si       0.19140413       5.01545573       3.33601744       0.12965513       0.17429250      -0.14906381
Si       2.26116136       7.30589459       9.83593458       0.08330487       0.05773247      -0.12998848
Si      -0.17925260       4.21455973       5.54378100      -0.00588018      -0.01790811       0.21388491
Si       2.32177569      -0.95924939       9.88647853       0.06283761      -0.10168373      -0.03473861
Si       1.80103723       2.86851048       5.72317538      -0.14026231      -0.09188718      -0.00314228
Si       2.33852296       8.04206966       1.58528117      -0.06340186       0.02251834       0.14453580
Si       1.27459654      -0.43192518       2.65860410      -0.02314715      -0.07536316       0.18356921
Si      -0.61042331       6.19417706       6.79895186       0.01115222      -0.05810313      -0.07748812
Si       0.34155688       5.82760825      10.23996933      -0.15543465      -0.11489433       0.10627807
Si       2.09870701       6.41694075       3.30103965      -0.04137958       0.23086427      -0.11192892
Si       0.48723618      -0.52354599       6.63671074       0.00320999       0.05473660      -0.14261564
Si      -1.18467065       7.85484143       5.18981985      -0.06885149      -0.23497230      -0.00100859
Si      -0.00824539       3.48003960      10.46107964       0.02238619      -0.08304415      -0.03123483
Si      -0.18786548       1.64482748       8.95981110      -0.04613124       0.22880395       0.13541471
Si      -0.26318006       5.28359120       0.83280945       0.07917956      -0.07325600      -0.27502985
Si       0.41673149       9.17746580       2.27784239      -0.28338283       0.14340772      -0.10818233
Si       3.00288801       0.75549533       4.85262647       0.07723969      -0.06923800       0.13814555
Si       1.67186268       1.37292064       7.56894420       0.08548824       0.09666298       0.01289600
Si       0.90451493       1.65275778       3.69891479       0.10108934      -0.03167170       0.02719753
Si       0.46214510       3.13099507       1.76807485       0.08213757      -0.31361728      -0.04595023
22
Lattice="3.8479144091157886 0.06668835174363433 -0.10684304612649337 -0.6262445551377119 9.596278648028315 1.929439924334922 -1.635472072663819 -2.2507530781197613 10.987954687265873" Properties=species:S:1:pos:R:3:forces:R:3 unique_starting_index=340 config_type=initial n_minim_iter=10 energy=-3582.442087660911 stress="0.0007838257990354672 -0.0024130963469420107 0.00021345118744851155 -0.0024130963469420107 2.3081352814155686e-05 0.00020225777347343424 0.00021345118744851155 0.00020225777347343424 -0.0005751411544426422" free_energy=-3582.442087660911 pbc="T T T"
Si       0.31195811       0.17028446      10.79519508       0.07947949       0.06612380      -0.05312017
Si       1.21318523       7.24334352       7.65813682       0.19661862       0.21929480       0.27713914
Si       0.15383911       5.00323294       3.34350087       0.01374443       0.18446468      -0.17860868
Si       2.20783886       7.29571822       9.84487002       0.14863244       0.06068187      -0.12557014
Si      -0.21255682       4.21649826       5.55460159       0.06489908       0.02239663       0.23919026
Si       2.30596192      -0.95382476       9.88461494      -0.04708225      -0.07389391      -0.12947942
Si       1.77726752       2.86504657       5.71587855      -0.22724536      -0.11332879      -0.03340931
Si       2.28715154       8.01609931       1.59911227      -0.16799766       0.07441661       0.10801695
Si       1.27069132      -0.43590846       2.66270578       0.05468674      -0.06323683       0.18022194
Si      -0.66290871       6.19304896       6.81687396      -0.10181102      -0.13077338      -0.07332635
Si       0.28833386       5.83020903      10.25387150      -0.22351626      -0.04625981       0.09627010
Si       2.05821296       6.38892250       3.29914906       0.07797921       0.19685561      -0.04657416
Si       0.47636301      -0.50693943       6.63659770       0.00992206      -0.01086037      -0.15020365
Si      -1.24496269       7.83833475       5.20490627      -0.13385306      -0.20924710      -0.00252834
Si      -0.05056544       3.49092860      10.47138957       0.02970689      -0.14018430      -0.03684593
Si      -0.22400182       1.65594117       8.96596781       0.01529364       0.25266453       0.07476924
Si      -0.28715584       5.25421295       0.83893480       0.06143725      -0.05027205      -0.28483221
Si       0.35956928       9.15360629       2.30201102      -0.14370194       0.12898123      -0.09603301
Si       2.99674536       0.74286684       4.84152037       0.03834037      -0.08264453       0.17170225
Si       1.64090800       1.38750329       7.56602463       0.05033988       0.09338677       0.09130810
Si       0.89115046       1.65185426       3.69859423       0.12259769      -0.03685681       0.03305291
Si       0.44765684       3.11911903       1.76955547       0.08152976      -0.34170864      -0.06113952
22
Lattice="3.8462639128629403 0.07097874473989359 -0.11987536191184071 -0.6208956235289008 9.565255393930267 1.9365155159184326 -1.6741466534347995 -2.2461374190645857 11.026922433872702" Properties=species:S:1:pos:R:3:forces:R:3 unique_starting_index=340 config_type=initial n_minim_iter=11 energy=-3582.4684445485545 stress="3.441821625321347e-05 0.0004635292939030825 -0.0007657696275394435 0.0004635292939030825 -0.0025436568334080974 0.00037003671297771264 -0.0007657696275394435 0.00037003671297771264 0.0008899667206764809" free_energy=-3582.4684445485545 pbc="T T T"
Si       0.28605487       0.16512359      10.82819413       0.05074402       0.07243192      -0.06386401
Si       1.19264811       7.23856979       7.67849790       0.22263766       0.15871330       0.28885858
Si       0.14212903       4.98430794       3.34630647       0.03530901       0.13511258      -0.13012526
Si       2.19576080       7.28559820       9.86529880       0.02391241       0.06217311      -0.11268111
Si      -0.21892380       4.20888120       5.57876912      -0.00767206       0.05274182       0.10160737