1
Lattice="2.5441934227330814 1.192612229729711e-16 -1.2762408852499204e-49 1.2720967113665405 2.2033361362281303 1.8476489938641558e-49 4.6781825273344e-49 -2.375068987999212e-48 2.378580921878889" Properties=species:S:1:pos:R:3 cutoff=-1.0 nneightol=1.2 n_minim_iter=1 energy=-162.74715682946655 free_energy=-162.74715682946655 pbc="T T T"
Si       0.00000000       0.00000000       0.00000000
