1
Lattice="2.8281997996026638 1.1803306276754785e-16 -5.695276489103722e-50 1.4140998998013319 2.4492928734339654 4.276226962326976e-49 1.7695082004666758e-49 -3.908376559447205e-48 2.5848052167494844" Properties=species:S:1:pos:R:3 cutoff=-1.0 nneightol=1.2 n_minim_iter=1 stress="0.07316041254283746 -6.820626804220399e-17 -1.0570354273339616e-16 -6.820626804220399e-17 0.07316041254283669 1.2236971260563611e-17 -1.0570354273339616e-16 1.2236971260563611e-17 0.08279654292396676" pbc="T T T"
Si       0.00000000       0.00000000       0.00000000
