1
Lattice="2.8281997996026638 1.1803306276754785e-16 -5.695276489103721e-50 1.4140998998013319 2.4492928734339654 4.276226962326977e-49 7.284798840136311e-50 -2.945709096760961e-48 2.5848052167494844" Properties=species:S:1:pos:R:3 cutoff=-1.0 nneightol=1.2 n_minim_iter=1 stress="0.0695675298785856 -1.1690901787348333e-16 -8.109697200797787e-17 -1.1690901787348333e-16 0.06956752987858504 7.527734577410424e-18 -8.109697200797787e-17 7.527734577410424e-18 0.07631886469961768" pbc="T T T"
Si       0.00000000       0.00000000       0.00000000
