2
Lattice="2.8051349669763024 -4.786735321952056e-33 -6.081131873236639e-35 4.786735321952058e-33 2.8051349669763024 2.442846824913826e-18 6.081131873236639e-35 -2.4428468249138077e-18 2.8051349669763024" Properties=species:S:1:pos:R:3:forces:R:3 n_minim_iter=1 energy=-324.3188120733683 stress="-0.2711546331741363 2.6562253260210884e-17 3.30839804386306e-17 2.6562253260210884e-17 -0.2711546331741363 2.4261585654995773e-17 3.30839804386306e-17 2.4261585654995773e-17 -0.27115463317413646" free_energy=-324.3188120733683 pbc="T T T"
Si       0.00000000       0.00000000       0.00000000       0.00000000      -0.00000000       0.00000000
Si       1.40256748       1.40256748       1.40256748      -0.00000000       0.00000000      -0.00000000
