2
Lattice="3.0351107468319576 -5.1791703390147625e-33 -6.579686510149583e-35 5.1791703390147625e-33 3.0351107468319576 2.6431208260728628e-18 6.579686510149583e-35 -2.6431208260728628e-18 3.0351107468319576" Properties=species:S:1:pos:R:3:forces:R:3 n_minim_iter=1 energy=-325.2093177724414 stress="-0.009918741125910168 -8.229311049423298e-18 -4.836326052920947e-18 -8.229311049423298e-18 -0.009918741125910149 3.1557027495309175e-17 -4.836326052920947e-18 3.1557027495309175e-17 -0.009918741125909843" free_energy=-325.2093177724414 pbc="T T T"
Si       0.00000000       0.00000000       0.00000000      -0.00000000      -0.00000000      -0.00000000
Si       1.51755537       1.51755537       1.51755537       0.00000000       0.00000000       0.00000000
