2
Lattice="3.1129678053360847 -5.3120270950683613e-33 -6.748469490505154e-35 5.3120270950683613e-33 3.1129678053360847 2.7109225077755248e-18 6.748469490505156e-35 -2.7109225077754754e-18 3.1129678053360847" Properties=species:S:1:pos:R:3:forces:R:3 n_minim_iter=1 energy=-325.2023500573997 stress="0.017568632440359586 -1.0465927537692953e-17 -1.575639640290037e-17 -1.0465927537692953e-17 0.017568632440359614 -4.715417901597923e-18 -1.575639640290037e-17 -4.715417901597923e-18 0.017568632440359506" free_energy=-325.2023500573997 pbc="T T T"
Si       0.00000000       0.00000000       0.00000000      -0.00000000      -0.00000000      -0.00000000
Si       1.55648390       1.55648390       1.55648390       0.00000000       0.00000000       0.00000000
