2
Lattice="3.211077948982144 -5.4794440983716325e-33 -6.961158266138999e-35 5.4794440983716305e-33 3.211077948982143 2.7963615528550403e-18 6.961158266139e-35 -2.7963615528550395e-18 3.211077948982144" Properties=species:S:1:pos:R:3:forces:R:3 n_minim_iter=1 energy=-325.126164583836 stress="0.050642221444734424 -4.501080724252561e-18 -7.844740690840176e-17 -4.501080724252561e-18 0.05064222144473436 2.4648775394716402e-17 -7.844740690840176e-17 2.4648775394716402e-17 0.05064222144473448" free_energy=-325.126164583836 pbc="T T T"
Si       0.00000000       0.00000000       0.00000000       0.00000000       0.00000000       0.00000000
Si       1.60553897       1.60553897       1.60553897      -0.00000000      -0.00000000      -0.00000000
