2
Lattice="3.0615043389837866 -5.224208863475687e-33 -6.636904047406516e-35 5.2242088634756856e-33 3.0615043389837866 2.666105639119369e-18 6.636904047406519e-35 -2.666105639119369e-18 3.0615043389837866" Properties=species:S:1:pos:R:3:forces:R:3 n_minim_iter=1 energy=-325.2108245480023 stress="0.005183484878192575 -1.1965372925304729e-17 -1.9097442501471592e-17 -1.1965372925304729e-17 0.005183484878192525 5.835329653227429e-18 -1.9097442501471592e-17 5.835329653227429e-18 0.005183484878192555" free_energy=-325.2108245480023 pbc="T T T"
Si       0.00000000       0.00000000       0.00000000      -0.00000000       0.00000000       0.00000000
Si       1.53075217       1.53075217       1.53075217       0.00000000      -0.00000000      -0.00000000
