16
Lattice="5.490864884536904 2.247669347699179e-07 0.4227426014343956 -7.371903362741463e-07 11.015004894022667 3.7185834570840095e-06 -0.49415527651755176 -5.507504644609828 6.411652389995693" Properties=species:S:1:pos:R:3 unique_starting_index=69 config_type=initial n_minim_iter=7 energy=-2606.3500536999545 free_energy=-2606.3500536999545 pbc="T T T"
Si       2.40641369       1.19295495       4.59421420
Si       2.59029512       6.70045820       2.24018404
Si       2.59029528       4.31454663       2.24018323
Si       2.40641385      -1.19295662       4.59421339
Si       4.21077313       8.25894723       1.51119120
Si       0.78593547       2.75144326       5.32320808
Si       0.78593584      -2.75144565       5.32320623
Si       4.21077350       2.75605831       1.51118934
Si       2.40708091       4.31396010       4.59948936
Si       2.58962822      -1.19354154       2.23490726
Si       2.58962806       1.19354148       2.23490807
Si       2.40708075       6.70104311       4.59949017
Si       1.09957797       8.25928582       1.27195435
Si       3.89713063       2.75178211       5.56244494
Si       3.89713100      -2.75178425       5.56244308
Si       1.09957834       2.75571946       1.27195249
