22
Lattice="5.581598750070497 -1.451141642519062 0.06098625253730814 -3.2824008621846565 7.8302279242465875 -3.0221604833174007 0.22506379051958572 -5.7107852514030775 15.726320915404258" Properties=species:S:1:pos:R:3 unique_starting_index=51 config_type=initial n_minim_iter=1 energy=-3573.2162736935793 free_energy=-3573.2162736935793 pbc="T T T"
Si       1.88005212       4.74623441       1.47833353
Si       0.08021860      -0.25331326       8.83555529
Si      -0.40095524       5.94376800      -2.21066039
Si      -1.57256558       3.30443269       2.43075355
Si       0.61755086      -0.36848616       6.40831233
Si       3.88028622      -1.49893343       6.18047109
Si      -0.48666412       0.91546309       1.52080445
Si      -0.08265831       1.41464422      -0.88186759
Si       1.89153529      -2.33309352       7.49672601
Si       3.43577397      -1.90626104      12.44319326
Si      -0.96375102       0.84093330      10.73603637
Si       3.60365258      -0.10436784       4.07497852
Si       0.26068558       2.03686226       3.72187558
Si       3.81745767      -4.42204686      14.34732493
Si       1.93857930      -3.16102735      13.73179736
Si       2.16655447       3.24243690       3.26161134
Si       1.41476761      -0.27272343       2.38193155
Si       2.54444117       1.04932949       9.75714615
Si       3.04279975      -1.14288904       9.15853111
Si       1.88767450      -1.66186751       4.63474315
Si       2.94169472       0.53252770       0.71159735
Si       3.53998043      -2.21578437       3.02788622
22
Lattice="5.5704069779504675 -1.4730854654182526 0.09402398349767944 -3.3301870819548807 7.798191107946143 -3.263215318076273 0.26573232978076367 -5.977605694811613 16.188225546871408" Properties=species:S:1:pos:R:3 unique_starting_index=51 config_type=initial n_minim_iter=2 stress="0.0056586778131212795 0.000413269883157764 -0.0013262892117673168 0.000413269883157764 0.005339202315014333 -0.0035468345554572726 -0.0013262892117673168 -0.0035468345554572726 0.00714770918490486" pbc="T T T"
Si       1.81119885       4.59681677       1.40472159
Si       0.13589527      -0.44272539       9.04541895
Si      -0.43916872       5.87194426      -2.37176056
Si      -1.59243305       3.18889890       2.41389329
Si       0.63280244      -0.45623603       6.59771972
Si       3.86402023      -1.61975319       6.37041460
Si      -0.48579666       0.86828963       1.47705926
Si      -0.09296930       1.42518938      -0.92219947
Si       1.92895784      -2.47487835       7.70458225
Si       3.46183551      -2.13767529      12.75738431
Si      -0.97417779       0.67256530      10.94542579
Si       3.58495083      -0.17335816       4.23863323
Si       0.20596936       1.83922506       3.72449877
Si       3.80952744      -4.76892040      14.74104371
Si       1.93698493      -3.48066531      14.08253772
Si       2.13623098       3.09999081       3.24403151
Si       1.39237272      -0.30569837       2.44747432
Si       2.50396724       0.80414900       9.92863587
Si       3.04225012      -1.37898846       9.33181598
Si       1.88306923      -1.78670410       4.72118726
Si       2.93656916       0.51903604       0.73125990
Si       3.54735931      -2.33069534       3.12229101
22
Lattice="5.5166014863294475 -1.472703816384834 0.11035274802081896 -3.3310637009426967 7.704039192481273 -3.28753859788163 0.3175424050904862 -5.946578774523281 16.161065523511862" Properties=species:S:1:pos:R:3 unique_starting_index=51 config_type=initial n_minim_iter=3 stress="-0.005624505495789259 0.00045850766225023363 -0.0015987969007088408 0.00045850766225023363 -0.0037767001888266817 -0.0035408285971525633 -0.0015987969007088408 -0.0035408285971525633 -0.003326195126299087" pbc="T T T"
Si       1.76657472       4.50359473       1.39083990
Si       0.17821918      -0.46599685       9.02795004
Si      -0.45756085       5.78061573      -2.37613127
Si      -1.58249565       3.12963806       2.39521742
Si       0.64713483      -0.45262700       6.60087800
Si       3.83664317      -1.62221023       6.37562769
Si      -0.47843990       0.85073237       1.44311481
Si      -0.09935391       1.41246137      -0.91964438
Si       1.94393840      -2.47084725       7.69110771
Si       3.46899292      -2.14475228      12.73716952
Si      -0.94790687       0.66025557      10.90842398
Si       3.55229739      -0.17982550       4.26723338
Si       0.19049243       1.76403188       3.69390430
Si       3.80472348      -4.79223614      14.71843897
Si       1.95109561      -3.50445625      14.05083853
Si       2.10867463       3.03353615       3.22217883
Si       1.37586746      -0.30316424       2.44785089
Si       2.48460005       0.75193633       9.89679349
Si       3.03688958      -1.41240357       9.29712108
Si       1.87535970      -1.79758062       4.69607419
Si       2.90870793       0.51073748       0.74040087
Si       3.52612464      -2.34280946       3.12023559
22
Lattice="5.549989268401876 -1.5040292911408026 0.15688447008565973 -3.4420226723507046 7.618377945916255 -3.2954447960997473 0.5254754132545505 -5.775067347658549 16.267138431967425" Properties=species:S:1:pos:R:3 unique_starting_index=51 config_type=initial n_minim_iter=4 stress="-0.0005863132068431713 -0.002897892378408655 0.0021035535783719903 -0.002897892378408655 -0.0009828100578254536 0.0013521926437817019 0.0021035535783719903 0.0013521926437817019 -0.001188467252281539" pbc="T T T"
Si       1.72548430       4.41866147       1.46096533
Si       0.31885169      -0.39865043       9.12484390
Si      -0.51924942       5.67547597      -2.33808389
Si      -1.58955669       3.10581222       2.42983156
Si       0.72831943      -0.36827982       6.70422192
Si       3.91705049      -1.57449012       6.48048527
Si      -0.46884295       0.85082544       1.40191348
Si      -0.12137247       1.39972194      -0.90656113
Si       2.06329078      -2.40979931       7.75124962
Si       3.64045706      -2.03047041      12.87795498
Si      -0.85989442       0.79322007      11.00237721
Si       3.59591425      -0.14559048       4.40950122
Si       0.19280999       1.70236487       3.71298720
Si       3.97722998      -4.73018203      14.85091796
Si       2.11329352      -3.42305239      14.15680387
Si       2.11889919       2.99974123       3.28395106
Si       1.39224941      -0.27191148       2.48916129
Si       2.56328876       0.79582223      10.00766940
Si       3.16160133      -1.37828211       9.37345072
Si       1.93599490      -1.79009504       4.70260956
Si       2.92715608       0.50739614       0.79340729
Si       3.59143196      -2.36948362       3.15156424
22
Lattice="5.525224056161385 -1.44196444303229 0.13961011860319816 -3.3561432722507956 7.51910574301307 -3.359807770698783 0.40241914374404464 -5.804785620863473 16.464732627845432" Properties=species:S:1:pos:R:3 unique_starting_index=51 config_type=initial n_minim_iter=5 stress="8.128779523414334e-05 0.0005905271171025622 -0.0012045628709284062 0.0005905271171025622 -0.001966401078601787 -0.0002933355161436461 -0.0012045628709284062 -0.0002933355161436461 -0.0013980824784426502" pbc="T T T"
Si       1.73081989       4.35016997       1.44736579
Si       0.32350673      -0.44070765       9.23680443
Si      -0.44292174       5.59631436      -2.37095144
Si      -1.56659697       3.02623464       2.44892921
Si       0.70228029      -0.36207199       6.81032945
Si       3.86315670      -1.54247258       6.55181547
Si      -0.46188613       0.82407946       1.35513069
Si      -0.10816829       1.39595135      -0.91216961
Si       2.01345914      -2.41631596       7.81622099
Si       3.57485741      -2.01853372      13.00781027
Si      -0.90963171       0.76528163      11.10795164
Si       3.55091651      -0.10953248       4.50658559
Si       0.18096218       1.60022259       3.70527599
Si       3.83544321      -4.78953412      15.00599449
Si       2.01095616      -3.48274178      14.28839294
Si       2.11998756       2.96155641       3.27907620
Si       1.36090239      -0.24850914       2.51564029
Si       2.50209705       0.75741672      10.08158471
Si       3.12213161      -1.40376793       9.44240984
Si       1.88758984      -1.80918182       4.70968397
Si       2.92557412       0.54174205       0.79681556
Si       3.55146279      -2.37216987       3.16765310
22
Lattice="5.447207671722364 -1.4456640198448205 0.19432196283981856 -3.3390673638135673 7.536994366061108 -3.4842194008811482 0.5279156959971222 -5.9055951160536555 16.747166610744458" Properties=species:S:1:pos:R:3 unique_starting_index=51 config_type=initial n_minim_iter=6 stress="-0.002734637425138844 0.0006759458366176225 0.0012448676087543434 0.0006759458366176225 -0.0002812169447679416 -0.0008538146800004824 0.0012448676087543434 -0.0008538146800004824 0.0016434010085822194" pbc="T T T"
Si       1.69154915       4.31957578       1.46692535
Si       0.44085046      -0.48736765       9.40117311
Si      -0.43324320       5.59022242      -2.41851308
Si      -1.51680175       2.99746214       2.46076697
Si       0.74926238      -0.37504146       6.96155637
Si       3.86330998      -1.56217504       6.69811481
Si      -0.44250294       0.80742775       1.30187204
Si      -0.11661758       1.41050990      -0.92724543
Si       2.04267475      -2.47356873       7.92993551
Si       3.63847036      -2.06001139      13.24548530
Si      -0.82663484       0.73946594      11.24983679
Si       3.51194783      -0.11401718       4.67379605
Si       0.20918599       1.52201974       3.71261400
Si       3.86949367      -4.93692666      15.28953238
Si       2.09177088      -3.59108459      14.50051625
Si       2.09690024       2.93659793       3.32406318
Si       1.35028956      -0.24232589       2.56628672
Si       2.52852686       0.70957036      10.23861885
Si       3.18708223      -1.46464491       9.61701243
Si       1.88723349      -1.86631226       4.76361882
Si       2.88414604       0.55086420       0.84092973
Si       3.52684636      -2.43030353       3.25465533
22
Lattice="5.499907263750137 -1.4601157984342563 0.13398553139033437 -3.350132259538466 7.5692879043896255 -3.405074045070235 0.37869228128921106 -5.89777518789452 16.57950158682024" Properties=species:S:1:pos:R:3 unique_starting_index=51 config_type=initial n_minim_iter=7 stress="0.005823295299882343 -0.0001340955097722125 -0.0018538026723245158 -0.0001340955097722125 0.001492169404872994 0.0015648419919817732 -0.0018538026723245158 0.0015648419919817732 -0.0036702237178427217" pbc="T T T"
Si       1.65864017       4.32864660       1.46730650
Si       0.40168640      -0.45325335       9.33493536
Si      -0.38208870       5.60371750      -2.35089557
Si      -1.53910942       3.01015634       2.46662125
Si       0.68449697      -0.35230826       6.93767512
Si       3.85694645      -1.53594587       6.58643102
Si      -0.45823759       0.79798132       1.22965549
Si      -0.11169541       1.42785937      -0.91758148
Si       1.96148103      -2.48643207       7.78079057
Si       3.55274745      -2.00218127      13.08923255
Si      -0.97791037       0.77715267      11.14286509
Si       3.46202820      -0.09878537       4.66631553
Si       0.19759495       1.50020527       3.63566731
Si       3.73106895      -4.97562017      15.11879107
Si       1.98256240      -3.57869617      14.27772618
Si       2.04477195       2.95464260       3.28771629
Si       1.33667529      -0.22672212       2.51708020
Si       2.44690609       0.75814213      10.12314907
Si       3.18623312      -1.44004711       9.53041706
Si       1.84767866      -1.89251275       4.66524655
Si       2.88175226       0.55749285       0.81391764
Si       3.53479198      -2.46991911       3.19516168
22
Lattice="5.424135650702231 -1.4453477777516885 0.14334637349951176 -3.284531990410326 7.587912118890962 -3.4553837132514396 0.3770375148622364 -5.926491218367235 16.79899991523679" Properties=species:S:1:pos:R:3 unique_starting_index=51 config_type=initial n_minim_iter=8 stress="0.0009667926532275359 0.0010058935461610221 -0.001332035580127438 0.0010058935461610221 0.0029261881952304743 0.0014923669470204494 -0.001332035580127438 0.0014923669470204494 0.0022498979526713167" pbc="T T T"
Si       1.65216569       4.35601096       1.49936763
Si       0.40988495      -0.45166182       9.46421335
Si      -0.34281600       5.63503652      -2.38101067
Si      -1.49367600       3.02013275       2.49871347
Si       0.67756295      -0.37289909       7.03620722
Si       3.82666347      -1.52918767       6.66405039
Si      -0.44939756       0.78778955       1.24168805
Si      -0.10378305       1.44106144      -0.94716845
Si       1.91857366      -2.49807439       7.86514204
Si       3.51309601      -1.99778584      13.26750760
Si      -0.96130485       0.73773255      11.28378465
Si       3.41168811      -0.10242500       4.73261232
Si       0.22260120       1.51948923       3.67885376
Si       3.68012949      -4.98041486      15.33669566
Si       1.97468816      -3.57395485      14.43905264
Si       2.01530076       2.97044575       3.34396886
Si       1.33171572      -0.23384789       2.53756251
Si       2.44352449       0.77594279      10.26555287
Si       3.17718732      -1.42313200       9.68881259
Si       1.81817505      -1.89438296       4.73383396
Si       2.83164405       0.55873856       0.82793442
Si       3.48483995      -2.46246023       3.26103590
22
Lattice="5.43985096007339 -1.4560295484803707 0.21510455883538865 -3.3488772215187894 7.577023111213798 -3.598721385933227 0.5471775735590586 -6.088981262304141 16.923304790606306" Properties=species:S:1:pos:R:3 unique_starting_index=51 config_type=initial n_minim_iter=9 stress="-8.149200772242896e-05 -0.001531011033593232 0.0015145652782445804 -0.001531011033593232 7.238840986085362e-05 -0.0012094666852968897 0.0015145652782445804 -0.0012094666852968897 0.0009202770384983359" pbc="T T T"
Si       1.64297401       4.29204761       1.47586094
Si       0.50759459      -0.56155953       9.50496703
Si      -0.36367777       5.62137248      -2.45949557
Si      -1.47444899       2.97042734       2.45008056
Si       0.73958349      -0.47704966       7.08478788
Si       3.90976856      -1.61172756       6.72446545
Si      -0.44072394       0.75329735       1.21382234
Si      -0.11121922       1.45465264      -0.99254446
Si       1.98684735      -2.58514190       7.91408387
Si       3.64102969      -2.14838197      13.36409017
Si      -0.88306313       0.56413139      11.29584861
Si       3.44766912      -0.18465791       4.78890191
Si       0.25449942       1.45928674       3.66066917
Si       3.82060490      -5.14935283      15.49191075
Si       2.12612600      -3.72057984      14.50132196
Si       2.01701182       2.89233132       3.33748975
Si       1.36459334      -0.27907182       2.54234763
Si       2.54563713       0.64451810      10.30810888
Si       3.29398594      -1.53635160       9.77491058
Si       1.85958788      -1.94980389       4.78554632
Si       2.82418616       0.52622023       0.85339727
Si       3.52878540      -2.49814996       3.35411756
22
Lattice="5.414994063097562 -1.3871598989617184 0.23834183474987497 -3.2686213249610043 7.503770247014683 -3.658208853764018 0.5335284649926161 -6.113534296286446 17.03966887256821" Properties=species:S:1:pos:R:3 unique_starting_index=51 config_type=initial n_minim_iter=10 stress="-0.003875928950268564 0.0003178546596455195 0.0020825944241572485 0.0003178546596455195 -0.0023762608235369602 -0.0008561010547495434 0.0020825944241572485 -0.0008561010547495434 -0.0022221531381072463" pbc="T T T"
Si       1.67798143       4.27365115       1.50768579
Si       0.55879291      -0.57686052       9.57506402
Si      -0.26969153       5.59505875      -2.48458218
Si      -1.40796332       2.93368400       2.44819774
Si       0.75334542      -0.53126690       7.17172760
Si       3.93103688      -1.58044048       6.75354229
Si      -0.41623191       0.71086812       1.18598473
Si      -0.08059937       1.48641548      -1.05712265
Si       1.96493639      -2.57602097       7.93385128
Si       3.65807929      -2.12071081      13.47286405
Si      -0.86444335       0.43969936      11.38354553
Si       3.44465271      -0.18423225       4.84013598
Si       0.26930103       1.43790695       3.66992163
Si       3.76341202      -5.13887164      15.64137110
Si       2.14814726      -3.70868226      14.52085831
Si       2.02352635       2.88663616       3.35635686
Si       1.38187293      -0.30245921       2.52049044
Si       2.61300169       0.66205807      10.37781147
Si       3.33146326      -1.51586783       9.84505711
Si       1.81588727      -1.94570736       4.82883118
Si       2.79413831       0.54326833       0.87238572
Si       3.51204642      -2.46116149       3.42506862
22
Lattice="5.396004856474448 -1.3644575577882319 0.22351180464410278 -3.238782680048237 7.418479673530799 -3.746796377585002 0.4596084517310793 -6.130858830629079 17.372657193102288" Properties=species:S:1:pos:R:3 unique_starting_index=51 config_type=initial n_minim_iter=11 stress="-0.004193583135943423 -0.0014251412337937526 0.0009592051828315989 -0.0014251412337937526 -0.0038256022839362708 -0.0007621164066970977 0.0009592051828315989 -0.0007621164066970977 0.0008634584573550771" pbc="T T T"
Si       1.64216093       4.19585857       1.53981800
Si       0.56912027      -0.60787945       9.77145627
Si      -0.21877606       5.52135740      -2.53677734
Si      -1.39231307       2.88197198       2.48347869
Si       0.72357485      -0.58213611       7.36413288
Si       3.90822126      -1.58331230       6.85148951
Si      -0.40044830       0.66725991       1.14762030
Si      -0.05640096       1.52062750      -1.13029159
Si       1.92854085      -2.57798386       8.04084276
Si       3.60644511      -2.12258704      13.73563527
Si      -0.93197170       0.33116186      11.63183930
Si       3.40509665      -0.20967661       4.95016527
Si       0.21929175       1.36782836       3.71353877
Si       3.62535127      -5.18204437      15.96201209
Si       2.09714741      -3.73458856      14.70413684
Si       1.97354276       2.83530764       3.39169383
Si       1.37017620      -0.33550607       2.52231195
Si       2.58817795       0.63604906      10.54640763
Si       3.30215990      -1.54556877       9.98070163
Si       1.74752258      -1.96577198       4.90639313
Si       2.75532559       0.54398941       0.88733122
Si       3.49558259      -2.46742633       3.50350733
22
Lattice="5.396962802544603 -1.2934537765711658 0.23753033791586783 -3.147108662704869 7.417565104101405 -3.788602197376928 0.40093292168925715 -6.228342846848277 17.392798701636472" Properties=species:S:1:pos:R:3 unique_starting_index=51 config_type=initial n_minim_iter=12 stress="0.0015303999928720842 0.001901778924098999 0.0014824961780051178 0.001901778924098999 0.001552217207478016 -6.088360421030995e-05 0.0014824961780051178 -6.088360421030995e-05 0.0005124793774284723" pbc="T T T"
Si       1.68007692       4.21593909       1.54419468
Si       0.63356294      -0.62885439       9.79453962
Si      -0.12035676       5.52460489      -2.54616428
Si      -1.33849968       2.87244167       2.45651224
Si       0.73321732      -0.61988934       7.43228164
Si       3.92441464      -1.55927506       6.85934688
Si      -0.35588068       0.63771921       1.07983096
Si      -0.01326066       1.59362081      -1.17993873
Si       1.94119149      -2.58161764       8.02566963
Si       3.63444496      -2.09646638      13.78773453
Si      -0.93026614       0.22976810      11.67746584
Si       3.42779263      -0.18280297       4.97872708
Si       0.18269749       1.32180993       3.70085042
Si       3.52213994      -5.24386972      16.01667977
Si       2.09772143      -3.78370599      14.64092536
Si       2.00526278       2.86451287       3.37249456
Si       1.36841961      -0.36183116       2.48588829
Si       2.65992717       0.66929229      10.52753165
Si       3.31257993      -1.55142077       9.91866639
Si       1.69146203      -1.99211303       4.90902106
Si       2.75829568       0.60820413       0.90186271
Si       3.48743709      -2.46816013       3.53175151
22
Lattice="5.383046597266014 -1.320477022269818 0.1906610981041832 -3.153533817014982 7.410465583519372 -3.7674994270366686 0.3017871281185948 -6.203923061592578 17.441003294705787" Properties=species:S:1:pos:R:3 unique_starting_index=51 config_type=initial n_minim_iter=13 stress="0.0008714507312208722 -0.00022998679930190621 -0.0017348666937327664 -0.00022998679930190621 0.0015588128634809017 5.932989925135723e-06 -0.0017348666937327664 5.932989925135723e-06 0.0021591208555001916" pbc="T T T"
Si       1.61636105       4.18648473       1.53241405
Si       0.58147598      -0.62230528       9.83673988
Si      -0.13794633       5.48481770      -2.54018457
Si      -1.37524839       2.87612544       2.47128778
Si       0.67562858      -0.60589962       7.47085781
Si       3.86244350      -1.57387674       6.86353059
Si      -0.35039464       0.63751484       1.05387790
Si      -0.01166557       1.61237827      -1.17463712
Si       1.91567145      -2.57533469       8.03307440
Si       3.53310279      -2.09177866      13.83076980
Si      -1.02222667       0.25001364      11.73159028
Si       3.37905902      -0.19064169       4.97668045
Si       0.11421866       1.29444006       3.70951654
Si       3.39292128      -5.25284155      16.03620728
Si       2.00702352      -3.78769345      14.66004803
Si       1.94924540       2.84003570       3.36933214
Si       1.33133264      -0.37610509       2.47790023
Si       2.56981318       0.66207563      10.52280494
Si       3.22411899      -1.56735201       9.88305827
Si       1.65329084      -2.00211825       4.90260916
Si       2.74392617       0.61366536       0.89106567
Si       3.46372979      -2.49442858       3.50121675
22
Lattice="5.388965176048435 -1.2910620928425864 0.22104129898633473 -3.154665545870763 7.323450721941435 -3.781755454249662 0.3718292343303071 -6.1500301371716795 17.414404440482677" Properties=species:S:1:pos:R:3 unique_starting_index=51 config_type=initial n_minim_iter=14 stress="0.00041049846541348816 -0.0008759031565766932 -0.001802437038257566 -0.0008759031565766932 -0.0003554663315392351 -0.0001359307071682228 -0.001802437038257566 -0.0001359307071682228 -0.0005657558131428696" pbc="T T T"
Si       1.60032036       4.13416379       1.52521562
Si       0.67799276      -0.61143530       9.86477693
Si      -0.12903008       5.38548065      -2.51890176
Si      -1.35801250       2.85663881       2.44176416
Si       0.70751398      -0.58700910       7.50558805
Si       3.90264760      -1.55314535       6.90123789
Si      -0.30917878       0.62383035       0.97429711
Si      -0.01152310       1.65471082      -1.16043667
Si       2.00297672      -2.54141312       8.01548871
Si       3.61110572      -2.04438284      13.90057453
Si      -0.97733764       0.23195443      11.70640687
Si       3.40305358      -0.17588630       5.00456838
Si       0.09139501       1.24001325       3.68817906
Si       3.41853936      -5.21202124      16.03937355
Si       2.10640146      -3.75880716      14.62183224
Si       1.96097456       2.79182405       3.38786732
Si       1.31473901      -0.39647112       2.46437705
Si       2.65738129       0.66467794      10.48367625
Si       3.27418764      -1.54932037       9.82905028
Si       1.66735765      -1.99454952       4.89701004
Si       2.76400380       0.65663483       0.92647216
Si       3.47686102      -2.48698318       3.50034946
22
Lattice="5.381220124647242 -1.2422103979311558 0.26857514196607113 -3.1294810890855453 7.236543549129072 -3.8210558334346514 0.46637819653465856 -6.105946258148011 17.464340005265157" Properties=species:S:1:pos:R:3 unique_starting_index=51 config_type=initial n_minim_iter=15 stress="0.0006205718258949205 -0.0008951374218916771 -0.0006427954605465183 -0.0008951374218916771 4.631839785134482e-06 -9.294866368504031e-05 -0.0006427954605465183 -9.294866368504031e-05 -0.0006628299028531943" pbc="T T T"
Si       1.58993417       4.09273337       1.53912823
Si       0.82321955      -0.58922681       9.96705100
Si      -0.07780641       5.29115261      -2.49992753
Si      -1.30574808       2.85295967       2.41429911
Si       0.74624121      -0.57965633       7.60204016
Si       3.97143968      -1.51665454       6.97517130
Si      -0.25489278       0.59375162       0.86073150
Si      -0.00787787       1.73677996      -1.16848393
Si       2.09454701      -2.51065773       8.00602679
Si       3.71214267      -1.96744878      14.07543092
Si      -0.91983122       0.17246039      11.71945147
Si       3.41187748      -0.16275246       5.07434015
Si       0.08919836       1.18910136       3.66460332
Si       3.44182503      -5.16537294      16.13970804
Si       2.25506394      -3.71326209      14.61650274
Si       1.96375994       2.74405648       3.44701710
Si       1.29433724      -0.43377992       2.43960579
Si       2.80041845       0.69471786      10.49462670
Si       3.37087470      -1.50572748       9.84349396
Si       1.67254212      -1.98828404       4.92323843
Si       2.77303318       0.71702097       0.98571688
Si       3.48021511      -2.47774710       3.53407874
22
Lattice="5.385004686975538 -1.2051343093033002 0.2960317421952762 -3.1115952941786715 7.170558048668333 -3.832076618646274 0.5193930118520306 -6.053903316834292 17.472927952302822" Properties=species:S:1:pos:R:3 unique_starting_index=51 config_type=initial n_minim_iter=16 stress="0.001427710367795649 -0.0003839944752497088 9.386525611838569e-05 -0.0003839944752497088 2.4622949805079383e-05 -0.0001428172626498952 9.386525611838569e-05 -0.0001428172626498952 2.5892449222343415e-05" pbc="T T T"
Si       1.59906934       4.06770218       1.55417877
Si       0.90973499      -0.56175878      10.02715125
Si      -0.03408414       5.23302971      -2.48917870
Si      -1.26854052       2.86111233       2.39814065
Si       0.76452373      -0.57359004       7.65395955
Si       4.02879260      -1.48112889       7.00850551
Si      -0.22640960       0.56779452       0.79524540
Si      -0.00931794       1.79657239      -1.18009140
Si       2.14330111      -2.48466109       7.98645203
Si       3.77512357      -1.89534481      14.17387274
Si      -0.88994852       0.13263637      11.70853103
Si       3.41281983      -0.15583816       5.10266736
Si       0.09917382       1.17480708       3.64546312
Si       3.46411806      -5.10032917      16.17988352
Si       2.35319444      -3.66123170      14.60643853
Si       1.96649586       2.71307513       3.49202574
Si       1.28106284      -0.46159637       2.41383964
Si       2.90539679       0.72839546      10.49774723
Si       3.44316231      -1.45788231       9.85810696
Si       1.67725931      -1.97050716       4.94396221
Si       2.78220221       0.75400589       1.02443680
Si       3.48101144      -2.46088026       3.54967444
22
Lattice="5.3769517609578985 -1.1847554841253884 0.3152758978781136 -3.0950035605316994 7.147146981327116 -3.8113559499288976 0.5661815927056003 -6.004211009030554 17.397562515690353" Properties=species:S:1:pos:R:3 unique_starting_index=51 config_type=initial n_minim_iter=17 stress="-0.0001658169219779702 0.00036437983708927817 -8.655253360782817e-05 0.00036437983708927817 -0.0002369101965870385 -0.0003289482874145543 -8.655253360782817e-05 -0.0003289482874145543 -0.0006849406329063596" pbc="T T T"
Si       1.61725005       4.06688144       1.56868125
Si       0.97093621      -0.52155643      10.03621698
Si       0.00269255       5.21487152      -2.47844028
Si      -1.23523508       2.90011673       2.38092569
Si       0.77332909      -0.55890302       7.66105955
Si       4.07395588      -1.44614033       7.00221789
Si      -0.21367114       0.54394049       0.74891829
Si      -0.02398196       1.86228043      -1.18769627
Si       2.17008529      -2.46887388       7.93708960
Si       3.81519681      -1.81351411      14.18813802
Si      -0.86132223       0.12400522      11.63866624
Si       3.39434064      -0.15053781       5.09431653
Si       0.11857358       1.18960310       3.61286218
Si       3.49530094      -5.03264563      16.12893660
Si       2.42999254      -3.61447654      14.56078099
Si       1.96352717       2.70097037       3.52569270
Si       1.26329604      -0.48703128       2.38122031
Si       2.99087572       0.77687809      10.46580545
Si       3.50035005      -1.40790572       9.84341151
Si       1.68339644      -1.95007860       4.94755367
Si       2.78381410       0.78389070       1.05609676
Si       3.46705544      -2.45725372       3.53868004
22
Lattice="5.384785040782316 -1.1733205915026304 0.3504818957305313 -3.111350233405664 7.114728410559341 -3.7847219730538315 0.6800895664314812 -5.906766900390317 17.32768106133051" Properties=species:S:1:pos:R:3 unique_starting_index=51 config_type=initial n_minim_iter=18 stress="-0.0014471378018180519 0.0011479309376763685 0.0013261900385591096 0.0011479309376763685 -0.0011876662790625987 -0.00029686832007192566 0.0013261900385591096 -0.00029686832007192566 0.0007792877645803359" pbc="T T T"
Si       1.67113889       4.05859512       1.60764576
Si       1.04923643      -0.46110322      10.04385493
Si       0.01986917       5.20534944      -2.48644462
Si      -1.20393255       2.94852326       2.37892830
Si       0.81522688      -0.52502532       7.66923249
Si       4.14899988      -1.39485348       7.00618357
Si      -0.22489658       0.51998729       0.73333408
Si      -0.06314460       1.91614500      -1.19676347
Si       2.21096444      -2.44341990       7.91671357
Si       3.90795640      -1.70124018      14.18625282
Si      -0.78096416       0.16881219      11.57613580
Si       3.39635010      -0.13787163       5.09537262
Si       0.15942940       1.22178437       3.58662950
Si       3.63063703      -4.92870017      16.07996903
Si       2.54378375      -3.55087834      14.58031639
Si       1.98987524       2.69633837       3.57106283
Si       1.25955385      -0.49654523       2.37144723