2
Lattice="2.4950260466245187 -2.597395404150537e-17 2.4950260466245187 2.4950260466245187 2.4950260466245187 7.966777230268947e-17 4.406584851962489e-17 2.4950260466245187 2.4950260466245187" Properties=species:S:1:pos:R:3:forces:R:3 n_minim_iter=1 energy=-325.3492226048331 stress="-0.2610668142199308 1.642455434204078e-16 8.320639171993363e-16 1.642455434204078e-16 -0.2610668142199309 -6.238164210031065e-16 8.320639171993363e-16 -6.238164210031065e-16 -0.26106681421993044" free_energy=-325.3492226048331 pbc="T T T"
Si       0.00000000      -0.00000000      -0.00000000      -0.00000000       0.00000000      -0.00000000
Si       1.24751302       1.24751302       1.24751302       0.00000000      -0.00000000       0.00000000
