2
Lattice="2.575565775476202 -2.6812396276823552e-17 2.575565775476202 2.575565775476202 2.575565775476202 8.22394571907719e-17 4.548829919752119e-17 2.575565775476202 2.575565775476202" Properties=species:S:1:pos:R:3:forces:R:3 n_minim_iter=1 energy=-326.0891695219373 stress="-0.10918428695584553 -1.3388062692050525e-16 2.108845702986741e-16 -1.3388062692050525e-16 -0.10918428695584563 -5.577797954197588e-17 2.108845702986741e-16 -5.577797954197588e-17 -0.10918428695584577" free_energy=-326.0891695219373 pbc="T T T"
Si       0.00000000      -0.00000000      -0.00000000      -0.00000000       0.00000000      -0.00000000
Si       1.28778289       1.28778289       1.28778289       0.00000000      -0.00000000       0.00000000
