4
Lattice="1.8618087685320017 -3.2247473810746707 -2.984227930180279e-35 1.8618087685320024 3.2247473810746707 2.984227930180431e-35 3.2915748556311924e-48 1.58847800797957e-35 6.101208047146851" Properties=species:S:1:pos:R:3:forces:R:3 cutoff=-1.0 nneightol=1.2 n_minim_iter=2 energy=-652.5266520059077 stress="-0.046507339379660353 2.429593137892911e-16 1.4053555721419616e-16 2.429593137892911e-16 -0.04650733937966017 -5.680278934857502e-17 1.4053555721419616e-16 -5.680278934857502e-17 -0.046540163037665346" free_energy=-652.5266520059077 pbc="T T T"
Si       1.86180877       1.07491579       0.37984510       0.00000000      -0.00000000       0.00309443
Si       1.86180877      -1.07491579       3.43044913      -0.00000000       0.00000000       0.00309443
Si       1.86180877       1.07491579       2.67075892       0.00000000      -0.00000000      -0.00309443
Si       1.86180877      -1.07491579      -0.37984510      -0.00000000       0.00000000      -0.00309443
