4
Lattice="1.9732569298685545 -3.4177812589197134 -7.254944930202901e-35 1.9732569298685547 3.4177812589197134 7.25494493020291e-35 8.793580213139743e-49 -1.176946946214111e-34 6.487608865136965" Properties=species:S:1:pos:R:3:forces:R:3 cutoff=-1.0 nneightol=1.2 n_minim_iter=2 energy=-652.6097650903752 stress="0.021279483529331122 -5.676619481058204e-18 -1.3663635650937454e-17 -5.676619481058204e-18 0.021279483529330883 3.202799344640858e-17 -1.3663635650937454e-17 3.202799344640858e-17 0.020508806802243835" free_energy=-652.6097650903752 pbc="T T T"
Si       1.97325693       1.13926042       0.40674576       0.00000000       0.00000000       0.00299820
Si       1.97325693      -1.13926042       3.65055020       0.00000000      -0.00000000       0.00299820
Si       1.97325693       1.13926042       2.83705867      -0.00000000       0.00000000      -0.00299820
Si       1.97325693      -1.13926042      -0.40674576      -0.00000000      -0.00000000      -0.00299820
