4
Lattice="1.9576766263225915 -3.3907953815807605 -6.674601408453868e-35 1.9576766263225915 3.3907953815807605 6.674601408453838e-35 -3.3012872710949132e-49 -1.1134726995718862e-34 6.437998268719975" Properties=species:S:1:pos:R:3:forces:R:3 cutoff=-1.0 nneightol=1.2 n_minim_iter=2 energy=-652.6420897416112 stress="0.010534660774379324 -2.060612871624128e-16 2.218582288303068e-18 -2.060612871624128e-16 0.010534660774379081 -4.7960883165199836e-17 2.218582288303068e-18 -4.7960883165199836e-17 0.010698412083850676" free_energy=-652.6420897416112 pbc="T T T"
Si       1.95767663       1.13026513       0.40273107      -0.00000000       0.00000000       0.00185125
Si       1.95767663      -1.13026513       3.62173020       0.00000000      -0.00000000       0.00185125
Si       1.95767663       1.13026513       2.81626807      -0.00000000       0.00000000      -0.00185125
Si       1.95767663      -1.13026513      -0.40273107       0.00000000      -0.00000000      -0.00185125
