4
Lattice="1.894741665413321 -3.2817888317135395 -1.0925576728453068e-35 1.894741665413321 3.2817888317135395 1.0925576728451033e-35 -5.189476916282609e-49 -2.093332980719569e-34 6.218234016786229" Properties=species:S:1:pos:R:3:forces:R:3 cutoff=-1.0 nneightol=1.2 n_minim_iter=3 energy=-652.6408422372834 stress="-0.012350585789725208 -2.0435830131809533e-16 -5.792431505717356e-17 -2.0435830131809533e-16 -0.012350585789726268 -3.474870328149081e-17 -5.792431505717356e-17 -3.474870328149081e-17 -0.012007001585689996" free_energy=-652.6408422372834 pbc="T T T"
Si       1.89474167       1.09392961       0.38690063      -0.00000000       0.00000000      -0.00056229
Si       1.89474167      -1.09392961       3.49601764       0.00000000      -0.00000000      -0.00056229
Si       1.89474167       1.09392961       2.72221638      -0.00000000       0.00000000       0.00056229
Si       1.89474167      -1.09392961      -0.38690063       0.00000000      -0.00000000       0.00056229
