4
Lattice="1.842613338158173 -3.191499920394049 1.8095443096413178e-35 1.8426133381581724 3.191499920394049 -1.8095443096407862e-35 -1.8603178497205105e-48 -9.544693074675582e-35 6.055961416765833" Properties=species:S:1:pos:R:3:forces:R:3 cutoff=-1.0 nneightol=1.2 n_minim_iter=4 energy=-652.2383599576358 stress="-0.09799443618541719 1.9073441456355564e-16 -6.959178019491845e-18 1.9073441456355564e-16 -0.09799443618541895 -9.38418767882438e-17 -6.959178019491845e-18 -9.38418767882438e-17 -0.09787907063586394" free_energy=-652.2383599576358 pbc="T T T"
Si       1.84261334       1.06383331       0.38229161       0.00000000       0.00000000       0.00258414
Si       1.84261334      -1.06383331       3.41027232      -0.00000000      -0.00000000       0.00258414
Si       1.84261334       1.06383331       2.64568910       0.00000000       0.00000000      -0.00258414
Si       1.84261334      -1.06383331      -0.38229161      -0.00000000      -0.00000000      -0.00258414
