4
Lattice="2.032331683836456 -3.520101734236749 -5.087564864080714e-19 2.0323316838364556 3.520101734236749 5.08756486408068e-19 -4.658913321900795e-32 -6.99705648822807e-19 6.684857573042003" Properties=species:S:1:pos:R:3:forces:R:3 cutoff=-1.0 nneightol=1.2 n_minim_iter=2 energy=-652.1765810059842 stress="0.060964551132316205 -1.3623886754539688e-17 1.2150620581692545e-18 -1.3623886754539688e-17 0.060964551132316414 5.621761148918359e-18 1.2150620581692545e-18 5.621761148918359e-18 0.06032499102900761" free_energy=-652.1765810059842 pbc="T T T"
Si       2.03233168       1.17336724       0.42679670      -0.00000000      -0.00000000       0.00314618
Si       2.03233168      -1.17336724       3.76922548       0.00000000       0.00000000       0.00314618
Si       2.03233168       1.17336724       2.91563209      -0.00000000      -0.00000000      -0.00314618
Si       2.03233168      -1.17336724      -0.42679670       0.00000000      -0.00000000      -0.00314618
