4
Lattice="2.002326477073893 -3.46813119163238 -8.369141128072656e-35 2.0023264770738924 3.46813119163238 8.369141128072509e-35 5.700748181555361e-49 -9.290190029603717e-35 6.593654848911612" Properties=species:S:1:pos:R:3:forces:R:3 cutoff=-1.0 nneightol=1.2 n_minim_iter=3 energy=-652.4859294823357 stress="0.03930380222291788 -4.087166026361907e-17 -6.416583876043987e-18 -4.087166026361907e-17 0.03930380222291729 -3.952793867199356e-17 -6.416583876043987e-18 -3.952793867199356e-17 0.0395743233408999" free_energy=-652.4859294823357 pbc="T T T"
Si       2.00232648       1.15604373       0.41650197       0.00000000       0.00000000       0.00609300
Si       2.00232648      -1.15604373       3.71332939       0.00000000      -0.00000000       0.00609300
Si       2.00232648       1.15604373       2.88032546      -0.00000000       0.00000000      -0.00609300
Si       2.00232648      -1.15604373      -0.41650197      -0.00000000      -0.00000000      -0.00609300
