4
Lattice="1.8037317609307395 -3.124155053157721 2.1410547527741183e-19 1.8037317609307395 3.124155053157721 -2.141054752774118e-19 -6.2807078914462e-35 4.0276110799950457e-19 5.958727307595124" Properties=species:S:1:pos:R:3:forces:R:3 cutoff=-1.0 nneightol=1.2 n_minim_iter=3 energy=-651.6946496373635 stress="-0.17345397284842148 -2.088995969029419e-16 -9.490946752224932e-17 -2.088995969029419e-16 -0.17345397284841937 -8.896299492151773e-17 -9.490946752224932e-17 -8.896299492151773e-17 -0.17351563498971626" free_energy=-651.6946496373635 pbc="T T T"
Si       1.80373176       1.04138502       0.38444846       0.00000000      -0.00000000      -0.00116582
Si       1.80373176      -1.04138502       3.36381211       0.00000000       0.00000000      -0.00116582
Si       1.80373176       1.04138502       2.59491520      -0.00000000      -0.00000000       0.00116582
Si       1.80373176      -1.04138502      -0.38444846      -0.00000000       0.00000000       0.00116582
