4
Lattice="1.7651697373429038 -3.057363669060918 2.8615256910873086e-18 1.765169737342904 3.057363669060918 -2.861525691087305e-18 1.5581610458425504e-33 5.830736243009867e-18 5.8448345743997585" Properties=species:S:1:pos:R:3:forces:R:3 cutoff=-1.0 nneightol=1.2 n_minim_iter=3 energy=-650.7963375822724 stress="-0.2718228053579277 2.543125527514075e-16 1.157616283631405e-16 2.543125527514075e-16 -0.27182280535792724 8.667937963294812e-17 1.157616283631405e-16 8.667937963294812e-17 -0.2721374926391727" free_energy=-650.7963375822724 pbc="T T T"
Si       1.76516974       1.01912122       0.38374118       0.00000000      -0.00000000       0.00847758
Si       1.76516974      -1.01912122       3.30615846      -0.00000000       0.00000000       0.00847758
Si       1.76516974       1.01912122       2.53867611       0.00000000      -0.00000000      -0.00847758
Si       1.76516974      -1.01912122      -0.38374118      -0.00000000       0.00000000      -0.00847758
