4
Lattice="1.9721097329371169 -3.415794255548176 -6.527107264811894e-35 1.9721097329371164 3.415794255548176 6.527107264811939e-35 2.50037854912922e-49 -1.5161025442263192e-34 6.495158880805162" Properties=species:S:1:pos:R:3:forces:R:3 cutoff=-1.0 nneightol=1.2 n_minim_iter=3 energy=-652.5572394682397 stress="0.0304571716924123 -3.178906909392594e-17 2.668470764054391e-17 -3.178906909392594e-17 0.030457171692412098 -6.788672076634665e-17 2.668470764054391e-17 -6.788672076634665e-17 0.030615948254193028" free_energy=-652.5572394682397 pbc="T T T"
Si       1.97210973       1.13859809       0.40908519      -0.00000000       0.00000000       0.00414838
Si       1.97210973      -1.13859809       3.65666463       0.00000000      -0.00000000       0.00414838
Si       1.97210973       1.13859809       2.83849425      -0.00000000       0.00000000      -0.00414838
Si       1.97210973      -1.13859809      -0.40908519       0.00000000      -0.00000000      -0.00414838
