2
Lattice="4.490774336655983 6.458864822677801e-17 -1.936815266439694e-16 6.458864822677787e-17 4.490774336655983 4.1483938286924426e-16 2.2453871683279916 2.2453871683279916 1.2172750894071962" Properties=species:S:1:pos:R:3 cutoff=-1.0 nneightol=1.2 n_minim_iter=1 energy=-325.09811103632364 free_energy=-325.09811103632364 pbc="T T T"
Si      -0.00000000      -1.12269358      -0.30431877
Si      -0.00000000       1.12269359       0.30431877
