2
Lattice="4.769233466540036 1.445968044823698e-17 1.6350278124883938e-16 1.4459680448236745e-17 4.769233466540036 -2.0687039189717525e-16 2.384616733270018 2.384616733270018 1.3153722091011342" Properties=species:S:1:pos:R:3 cutoff=-1.0 nneightol=1.2 n_minim_iter=1 energy=-325.70523347908966 free_energy=-325.70523347908966 pbc="T T T"
Si      -0.00000000      -1.19230837      -0.32884305
Si      -0.00000000       1.19230837       0.32884305
