2
Lattice="4.77240609 0.0 0.0 0.0 4.77240609 0.0 2.386203045 2.386203045 1.3171840800000003" Properties=species:S:1:pos:R:3 cutoff=-1.0 nneightol=1.2 n_minim_iter=1 energy=-325.7067179542555 free_energy=-325.7067179542555 pbc="T T T"
Si      -0.00000000      -1.19310152      -0.32929602
Si      -0.00000000       1.19310152       0.32929602
2
Lattice="4.809652626449289 1.4582225955890234e-17 1.648884641069484e-16 1.458222595588995e-17 4.809652626449288 -2.0862361440331677e-16 2.4048263132246444 2.404826313224644 1.3265199627250335" Properties=species:S:1:pos:R:3 cutoff=-1.0 nneightol=1.2 n_minim_iter=2 stress="-0.0018419634972362169 -3.931687881989098e-12 6.50729234997627e-12 -3.931687881989098e-12 -0.001841963506757645 8.903639053489406e-13 6.50729234997627e-12 8.903639053489406e-13 -0.0018702169595238248" pbc="T T T"
Si      -0.00000000      -1.20241316      -0.33162999
Si      -0.00000000       1.20241316       0.33162999
