2
Lattice="4.927007223518034 1.4938029458623073e-17 1.6891171085041232e-16 1.4938029458622833e-17 4.927007223518034 -2.1371399038446137e-16 2.463503611759017 2.463503611759017 1.3588867941409168" Properties=species:S:1:pos:R:3 cutoff=-1.0 nneightol=1.2 n_minim_iter=1 stress="0.027523630274581247 -1.228229665118567e-11 5.3377819216251825e-12 -1.228229665118567e-11 0.02752363022692647 1.9428021029950952e-11 5.3377819216251825e-12 1.9428021029950952e-11 0.023914294873316193" pbc="T T T"
Si      -0.00000000      -1.23175180      -0.33972170
Si      -0.00000000       1.23175181       0.33972170
