2
Lattice="5.015421661529389 -5.5288130506028175e-17 2.7203274980543923e-15 -5.528813050600665e-17 5.015421661529389 -4.705847877964902e-15 2.507710830764694 2.5077108307646965 1.5248822958477912" Properties=species:S:1:pos:R:3 cutoff=-1.0 nneightol=1.2 n_minim_iter=1 stress="0.05067910068677777 -4.114667186544062e-12 2.0258520329339326e-12 -4.114667186544062e-12 0.05067910071211582 2.871420713402634e-11 2.0258520329339326e-12 2.871420713402634e-11 0.045254446829502054" pbc="T T T"
Si      -0.00000000      -1.25385541      -0.38122057
Si      -0.00000000       1.25385542       0.38122057
