2
Lattice="4.443499517004701 6.390871722434097e-17 -1.9164262231356462e-16 6.390871722434084e-17 4.443499517004701 4.104723282057948e-16 2.2217497585023507 2.2217497585023507 1.204460715759427" Properties=species:S:1:pos:R:3 cutoff=-1.0 nneightol=1.2 n_minim_iter=1 stress="-0.2408323047390204 1.1303315491593536e-11 8.952575545588873e-12 1.1303315491593536e-11 -0.24083230481028292 9.414783319820063e-12 8.952575545588873e-12 9.414783319820063e-12 -0.2325642865488008" pbc="T T T"
Si      -0.00000000      -1.11087488      -0.30111518
Si      -0.00000000       1.11087488       0.30111518
