2
Lattice="4.917227494120468 -1.0607111156550338e-16 2.7730875564993397e-15 -1.0607111156550296e-16 4.917227494120468 -4.666887261519586e-15 2.458613747060234 2.4586137470602325 1.4277531657145128" Properties=species:S:1:pos:R:3 cutoff=-1.0 nneightol=1.2 n_minim_iter=2 stress="0.0407508254122741 1.7375988766021395e-12 1.940973516842933e-11 1.7375988766021395e-12 0.04075082542586838 6.04517456725734e-11 1.940973516842933e-11 6.04517456725734e-11 0.03431482414477185" pbc="T T T"
Si      -0.00000000      -1.22930687      -0.35693829
Si      -0.00000000       1.22930687       0.35693829
