2
Lattice="4.947637383808949 -5.454090200845019e-17 2.6835618087339767e-15 -5.4540902008438674e-17 4.947637383808949 -4.642247542639787e-15 2.473818691904474 2.4738186919044756 1.5042732519810365" Properties=species:S:1:pos:R:3 cutoff=-1.0 nneightol=1.2 n_minim_iter=2 stress="0.039167687213221634 -3.4230010567166965e-12 6.039306388604827e-14 -3.4230010567166965e-12 0.03916768720940644 1.8991960988841193e-11 6.039306388604827e-14 1.8991960988841193e-11 0.04036701200544353" pbc="T T T"
Si      -0.00000000      -1.23690934      -0.37606831
Si      -0.00000000       1.23690935       0.37606831
