2
Lattice="4.769233466540036 1.4459680448236985e-17 1.6350278124883938e-16 1.4459680448236727e-17 4.769233466540036 -2.0687039189717525e-16 2.384616733270018 2.384616733270018 1.3153722091011342" Properties=species:S:1:pos:R:3 cutoff=-1.0 nneightol=1.2 n_minim_iter=1 stress="-0.0018419634820760276 -9.084859225281981e-13 1.2483558419940294e-12 -9.084859225281981e-13 -0.0018419634855808022 -1.1923248776240805e-12 1.2483558419940294e-12 -1.1923248776240805e-12 -0.0018702169266026523" pbc="T T T"
Si      -0.00000000      -1.19230837      -0.32884305
Si      -0.00000000       1.19230837       0.32884305
