2
Lattice="4.582447995692844 6.590714639019332e-17 -1.9763529784337451e-16 6.590714639019305e-17 4.582447995692846 4.2330782089112343e-16 2.291223997846422 2.291223997846423 1.242124269778944" Properties=species:S:1:pos:R:3 cutoff=-1.0 nneightol=1.2 n_minim_iter=2 stress="-0.15551988650192183 -5.222765452656054e-12 3.213834825339561e-11 -5.222765452656054e-12 -0.15551988659102967 -3.821367509186382e-12 3.213834825339561e-11 -3.821367509186382e-12 -0.15598409602319327" pbc="T T T"
Si      -0.00000000      -1.14561200      -0.31053107
Si      -0.00000000       1.14561200       0.31053107
