2
Lattice="4.402881817069287 6.386873730998216e-17 -2.4299114833430375e-16 6.386873730998198e-17 4.402881817069287 4.941721564638522e-16 2.2014409085346434 2.2014409085346434 1.1872123858946582" Properties=species:S:1:pos:R:3 cutoff=-1.0 nneightol=1.2 n_minim_iter=1 stress="-0.3118924593210069 -7.84608515225554e-12 -8.235768764345825e-12 -7.84608515225554e-12 -0.3118924593539849 -1.1869950559742119e-11 -8.235768764345825e-12 -1.1869950559742119e-11 -0.30246195302951745" pbc="T T T"
Si      -0.00000000      -1.10072045      -0.29680310
Si      -0.00000000       1.10072046       0.29680310
