2
Lattice="4.981760099223002 -5.491705804683539e-17 2.702069716406255e-15 -5.491705804681874e-17 4.981760099223002 -4.67426405466176e-15 2.4908800496115 2.4908800496115022 1.5146478781107315" Properties=species:S:1:pos:R:3 cutoff=-1.0 nneightol=1.2 n_minim_iter=1 stress="0.04507569766177813 -3.7734924162999495e-12 2.9399116421904762e-12 -3.7734924162999495e-12 0.04507569761835745 -1.4822115834980276e-11 2.9399116421904762e-12 -1.4822115834980276e-11 0.04231845488201645" pbc="T T T"
Si      -0.00000000      -1.24544002      -0.37866197
Si      -0.00000000       1.24544003       0.37866197
