4
Lattice="5.3417863412786 0.12352535963900436 1.0043006151221585e-12 2.4042624654887734 4.771735724805639 2.8132980114463886e-12 -3.873024403384171 -2.4476305422236986 2.7493138289233126" Properties=species:S:1:pos:R:3:tags:I:1 spacegroup="P 1" unit_cell=conventional n_minim_iter=1 energy=-1923.6042422327218 free_energy=-1923.6042422327218 pbc="T T T"
Ti       0.00000000       0.00000000       0.00000000        0
Al       3.87302440       2.44763054       0.00000000        1
Al       2.67089317       0.06176268       1.37465691        2
Al       1.20213123       2.38586786       1.37465691        3
