4
Lattice="4.967842410708676 0.11487814772198712 9.39601312129947e-13 2.235955592276879 4.4376973528875965 2.6222553282518343e-12 -3.601899001493232 -2.276287750306074 2.556852140290556" Properties=species:S:1:pos:R:3:tags:I:1 spacegroup="P 1" unit_cell=conventional n_minim_iter=1 energy=-1923.9319119542838 free_energy=-1923.9319119542838 pbc="T T T"
Ti       0.00000000       0.00000000       0.00000000        0
Al       3.60189900       2.27628775       0.00000000        1
Al       2.48392121       0.05743907       1.27842607        2
Al       1.11797780       2.21884868       1.27842607        3
4
Lattice="5.023378184421401 0.17825306329656918 9.812915523540046e-13 2.3170323634739085 4.460657301890606 2.6482463198882876e-12 -3.6702052739481053 -2.3194551825948584 2.5329475796614562" Properties=species:S:1:pos:R:3:tags:I:1 spacegroup="P 1" unit_cell=conventional n_minim_iter=2 stress="-0.10828702286898109 -0.004552320745068398 -4.003062260820179e-15 -0.004552320745068398 -0.1039605526088059 -2.509311171974171e-15 -4.003062260820179e-15 -2.509311171974171e-15 -0.10108362798011616" pbc="T T T"
Ti       0.00000000       0.00000000       0.00000000        0
Al       3.67020527       2.31945518       0.00000000        1
Al       2.51168909       0.08912653       1.26647379        2
Al       1.15851618       2.23032865       1.26647379        3
