4
Lattice="5.140774117320156 0.11887708176528433 9.692352354285332e-13 2.3137897070721514 4.5921745913374 2.7078444919915286e-12 -3.727281912196621 -2.3555258365526677 2.6458567357705918" Properties=species:S:1:pos:R:3:tags:I:1 spacegroup="P 1" unit_cell=conventional n_minim_iter=1 stress="0.030983908168875484 0.004476198123670978 3.655078205072658e-15 0.004476198123670978 0.026729783922096177 2.1045989263310988e-15 3.655078205072658e-15 2.1045989263310988e-15 0.023900966414269035" pbc="T T T"
Ti       0.00000000       0.00000000       0.00000000        0
Al       3.72728191       2.35552584       0.00000000        1
Al       2.57038706       0.05943854       1.32292837        2
Al       1.15689485       2.29608730       1.32292837        3
