4
Lattice="5.302793809986963 0.12262368253263818 9.967049247345213e-13 2.386712478755975 4.736904295265467 2.7931297573902514e-12 -3.8447531443719494 -2.4297639889004183 2.7292451293056548" Properties=species:S:1:pos:R:3:tags:I:1 spacegroup="P 1" unit_cell=conventional n_minim_iter=1 stress="0.08925077100496176 0.008769949732731125 6.751735237512127e-15 0.008769949732731125 0.08091591745954929 4.4018658358359605e-15 6.751735237512127e-15 4.4018658358359605e-15 0.07537358294680085" pbc="T T T"
Ti       0.00000000       0.00000000       0.00000000        0
Al       3.84475314       2.42976399       0.00000000        1
Al       2.65139690       0.06131184       1.36462256        2
Al       1.19335624       2.36845215       1.36462256        3
