4
Lattice="5.023378184421401 0.17825306329656918 9.812915523540046e-13 2.3170323634739085 4.460657301890606 2.6482463198882876e-12 -3.6702052739481053 -2.3194551825948584 2.5329475796614562" Properties=species:S:1:pos:R:3:tags:I:1 spacegroup="P 1" unit_cell=conventional n_minim_iter=2 stress="-0.10828702286898109 -0.004552320745068398 -4.003062260820179e-15 -0.004552320745068398 -0.1039605526088059 -2.509311171974171e-15 -4.003062260820179e-15 -2.509311171974171e-15 -0.10108362798011616" pbc="T T T"
Ti       0.00000000       0.00000000       0.00000000        0
Al       3.67020527       2.31945518       0.00000000        1
Al       2.51168909       0.08912653       1.26647379        2
Al       1.15851618       2.23032865       1.26647379        3
