4
Lattice="5.492337766254135 0.1270067641217254 1.032416034173762e-12 2.4720235321187602 4.906221001280437 2.8940983929426455e-12 -3.9821806491869456 -2.5166138827024973 2.8267997274982575" Properties=species:S:1:pos:R:3:tags:I:1 spacegroup="P 1" unit_cell=conventional n_minim_iter=1 stress="0.11756121954088022 0.004416628348520248 3.5054969400820917e-15 0.004416628348520248 0.11336370968377762 2.19277494110803e-15 3.5054969400820917e-15 2.19277494110803e-15 0.1105725384146165" pbc="T T T"
Ti       0.00000000       0.00000000       0.00000000        0
Al       3.98218065       2.51661388       0.00000000        1
Al       2.74616888       0.06350338       1.41339986        2
Al       1.23601177       2.45311050       1.41339986        3
