4
Lattice="3.597080534613734 -9.863561632777661e-17 1.1098178249261807e-17 -9.863561632777661e-17 3.597080534613734 -7.180387614281435e-17 1.1098178249261807e-17 -7.180387614281435e-17 3.597080534613735" Properties=species:S:1:pos:R:3:forces:R:3 n_minim_iter=1 energy=-649.7847050892881 stress="-0.10721611599826854 1.0109001104789813e-16 1.413163901313127e-17 1.0109001104789813e-16 -0.10721611599826886 -4.582960015509816e-17 1.413163901313127e-17 -4.582960015509816e-17 -0.10721611599826911" free_energy=-649.7847050892881 pbc="T T T"
Si      -0.00000000      -0.00000000      -0.00000000      -0.00000000      -0.00000000      -0.00000000
Si       1.79854027       1.79854027      -0.00000000       0.00000000       0.00000000      -0.00000000
Si       1.79854027      -0.00000000       1.79854027       0.00000000      -0.00000000       0.00000000
Si      -0.00000000       1.79854027       1.79854027      -0.00000000       0.00000000       0.00000000
