22
Lattice="5.520811856111792 0.4020757331180943 0.12882974896919536 3.134745796072708 6.593240539089478 0.3966274700871149 1.3613939960270978 1.4333213139540846 15.764216128171197" Properties=species:S:1:pos:R:3 unique_starting_index=40 config_type=initial n_minim_iter=1 energy=-3569.8305661910686 free_energy=-3569.8305661910686 pbc="T T T"
Si       7.59018809       3.66149247      12.83509390
Si       2.01498016       3.11636972       5.33849220
Si       5.36488123       1.16958452       6.70810866
Si       4.06622887       4.97475670      13.47365821
Si       4.18700173       3.55702305      15.06784347
Si       6.86465720       6.52491062       6.55591363
Si       6.22511657       2.52603689       2.24492105
Si       5.51227272       6.30798338       9.83749796
Si       4.70205680       3.08745432       0.32151470
Si       5.88679337       6.35303630      14.57913856
Si       4.74333923       3.31303560      10.28470281
Si       3.90066369       6.21980569      11.31824450
Si       2.51157817       3.49912268       0.89411323
Si       1.49244060       0.90539042       7.90531156
Si       3.44226350       1.57546033      15.37627476
Si       7.64761744       6.57309128       8.65407542
Si       3.91487803       4.11402746       5.85647552
Si       4.90450966       7.21351434       6.08362133
Si       4.98377809       5.06312137       3.67230051
Si       5.10526458       1.99144983       8.66137296
Si       6.62340615       2.25668106      14.50107390
Si       4.36197642       1.95568535       5.00734204
22
Lattice="5.542417806379104 0.4417919414920867 0.11987367055880253 3.2002826211539186 6.49308838248867 0.4314619789129035 1.3445740171713754 1.513708016229482 15.80840731618074" Properties=species:S:1:pos:R:3 unique_starting_index=40 config_type=initial n_minim_iter=2 stress="0.021672450161053135 0.0020520233761091708 0.0014600242675522534 0.0020520233761091708 0.003834305942438681 0.0021220478744330795 0.0014600242675522534 0.0021220478744330795 0.01373662677436045" pbc="T T T"
Si       7.61704690       3.73636142      12.88161852
Si       2.03164515       3.07895600       5.34328458
Si       5.35631163       1.23772286       6.73059219
Si       4.09465732       5.01664660      13.51025688
Si       4.20747088       3.60492780      15.11735827
Si       6.94928232       6.47117647       6.57786930
Si       6.25293900       2.58615302       2.22625080
Si       5.60544955       6.25879823       9.90966316
Si       4.76258382       3.05189427       0.33580117
Si       5.94146577       6.34544836      14.64032192
Si       4.77519943       3.37487738      10.32123857
Si       3.92166892       6.19811941      11.41766002
Si       2.52793219       3.45540966       0.92945227
Si       1.48457141       0.94498636       7.93819493
Si       3.39015486       1.64464397      15.42799908
Si       7.70172348       6.54538920       8.73558334
Si       3.99870687       4.12674334       5.84401800
Si       4.94974203       7.19545426       6.10806513
Si       5.02542376       5.00571097       3.70385619
Si       5.12417752       2.07763696       8.67172398
Si       6.64897258       2.37966820      14.56077547
Si       4.36845223       1.97585265       4.99808454
22
Lattice="5.479581858650317 0.45483024853267434 0.10851654891480059 3.1846748728029097 6.418852200254985 0.4353542062429046 1.3014156636592495 1.530974007716957 15.695346432919322" Properties=species:S:1:pos:R:3 unique_starting_index=40 config_type=initial n_minim_iter=3 stress="-0.0054654234784400745 -0.0002602441506321607 -0.008137069207452892 -0.0002602441506321607 -0.012571904388540783 0.0017329180811562377 -0.008137069207452892 0.0017329180811562377 -0.01689001887663385" pbc="T T T"
Si       7.51368367       3.74114860      12.78636801
Si       2.00478487       3.04154119       5.29372829
Si       5.27653495       1.25494260       6.68133669
Si       4.03747184       5.00454065      13.40513277
Si       4.14457882       3.59799725      15.00865849
Si       6.88773834       6.40891228       6.51819661
Si       6.17951865       2.60234746       2.18808393
Si       5.56487104       6.19646858       9.85232958
Si       4.72774722       3.01823846       0.33232242
Si       5.87110161       6.29887326      14.53558799
Si       4.71607273       3.38110787      10.24511730
Si       3.86252170       6.15175202      11.36435052
Si       2.49776152       3.41791578       0.93331949
Si       1.45064485       0.95085959       7.88436216
Si       3.29880837       1.65259365      15.32097963
Si       7.61283923       6.49455455       8.69055071
Si       3.98204646       4.11149496       5.77720518
Si       4.89216224       7.15406832       6.05712440
Si       4.97109380       4.95066429       3.67859784
Si       5.05443459       2.10192513       8.59727805
Si       6.55869282       2.41369591      14.46203137
Si       4.30656696       1.96945559       4.94321091
22
Lattice="5.413284139158017 0.4684805572688235 0.1379309087444346 3.1652138739419353 6.416877157639175 0.45145642295748195 1.3709620839023091 1.5269859762128288 15.778037551706554" Properties=species:S:1:pos:R:3 unique_starting_index=40 config_type=initial n_minim_iter=4 stress="-0.02833947057696794 -0.002487818689970709 0.004066934814874442 -0.002487818689970709 -0.0037002671698795598 -0.0069425230734212655 0.004066934814874442 -0.0069425230734212655 -0.0049294998867842775" pbc="T T T"
Si       7.49555631       3.75276375      12.89144965
Si       2.01323694       3.02702486       5.31456090
Si       5.24605035       1.26453101       6.74954202
Si       4.07218743       5.01567215      13.47908226
Si       4.18610582       3.59503608      15.10480136
Si       6.85863602       6.39967029       6.56978288
Si       6.11613093       2.63921469       2.21688541
Si       5.58607601       6.17815508       9.94066763
Si       4.68808668       3.01481708       0.35981487
Si       5.89813461       6.28675447      14.63335016
Si       4.72662270       3.39931771      10.32009734
Si       3.88059519       6.14759323      11.46007702
Si       2.47122555       3.41506649       0.95633813
Si       1.47615107       0.94641925       7.93391271
Si       3.31546847       1.63984835      15.42059082
Si       7.57887670       6.49527242       8.78897981
Si       4.00067874       4.12735135       5.79889905
Si       4.87020961       7.17648136       6.09981013
Si       4.93703889       4.94047710       3.72171803
Si       5.03830403       2.12739500       8.66244782
Si       6.56729188       2.43659537      14.58141642
Si       4.27557782       1.97164841       4.97142618
22
Lattice="5.41732145847084 0.5034914302316272 0.12144904153319035 3.206964598727517 6.4150042132968705 0.5074146508198982 1.3242380569589023 1.6982343079911977 15.661249768181769" Properties=species:S:1:pos:R:3 unique_starting_index=40 config_type=initial n_minim_iter=5 stress="-0.009654746263804014 0.004824505441434648 0.004278077044640953 0.004824505441434648 0.00056184754096938 0.004918396971310038 0.004278077044640953 0.004918396971310038 -0.013656050403843576" pbc="T T T"
Si       7.47264849       3.92769399      12.80738402
Si       2.01018008       3.06053114       5.26684264
Si       5.21975450       1.36303322       6.70672027
Si       4.06180822       5.18895125      13.39099626
Si       4.16694993       3.76698138      15.01397800
Si       6.87785652       6.45474343       6.52909700
Si       6.11726029       2.74467632       2.18262352
Si       5.63185948       6.25423498       9.93294658
Si       4.72301722       3.01278762       0.37561526
Si       5.90275789       6.42850309      14.55713854
Si       4.72849899       3.55799582      10.26098881
Si       3.86301016       6.26860299      11.46329518
Si       2.47333588       3.41534453       0.98537599
Si       1.46245434       1.02207906       7.88092473
Si       3.21576779       1.79166771      15.31976983
Si       7.59248556       6.60836233       8.79119934
Si       4.06060940       4.22502605       5.73022613
Si       4.88276889       7.28487785       6.09404823
Si       4.94861131       4.96062669       3.72853940
Si       5.00235910       2.28372726       8.59916216
Si       6.54820257       2.65688803      14.49694964
Si       4.25977781       2.03228477       4.90575761
22
Lattice="5.400101179613066 0.475617640434752 0.07362976927010664 3.1660796387942525 6.352332788157772 0.46232099889221506 1.1795450102367457 1.6336052369298246 15.720085904388698" Properties=species:S:1:pos:R:3 unique_starting_index=40 config_type=initial n_minim_iter=6 stress="-0.0008111267660295266 -0.008303259801575362 -0.013887438236947068 -0.008303259801575362 -0.0028480259275344777 0.0018527598558826632 -0.013887438236947068 0.0018527598558826632 -0.001948353399607866" pbc="T T T"
Si       7.32496384       3.83040552      12.79534655
Si       1.94516584       3.00320473       5.24813316
Si       5.12727612       1.30265845       6.69161634
Si       3.91731850       5.10504546      13.39619028
Si       4.01715335       3.67566906      15.04445505
Si       6.77957446       6.34598566       6.46578755
Si       6.06546387       2.72056982       2.12237127
Si       5.52425179       6.13145984       9.92663678
Si       4.70060050       2.95508162       0.32845256
Si       5.74253972       6.29843233      14.55240404
Si       4.62219751       3.49944811      10.26227137
Si       3.71861088       6.17262844      11.48609785
Si       2.43539222       3.36911917       0.96065775
Si       1.39475011       0.97522518       7.90799586
Si       3.03924096       1.70524710      15.37277029
Si       7.46934031       6.49968707       8.76284950
Si       4.00858855       4.17193371       5.68247991
Si       4.78037570       7.21300269       6.05043016
Si       4.87910087       4.87402866       3.68640902
Si       4.89204967       2.24238557       8.59369048
Si       6.40246656       2.58348400      14.51971495
Si       4.19438318       1.97677650       4.87249713
22
Lattice="5.400281211535394 0.5004284268503745 0.09756768745831897 3.2007058337676586 6.313807552071587 0.4465453556843721 1.2607265014598141 1.5582710729018545 15.683384283004765" Properties=species:S:1:pos:R:3 unique_starting_index=40 config_type=initial n_minim_iter=7 stress="0.008623521468758829 -0.005525903579794541 -0.001422651989325932 -0.005525903579794541 -0.011193999535821684 -0.005627542049078133 -0.001422651989325932 -0.005627542049078133 -0.011151761753740582" pbc="T T T"
Si       7.40010562       3.78369640      12.78477485
Si       1.98492804       2.96322690       5.22083988
Si       5.15057232       1.28587561       6.69078925
Si       4.00801008       5.02951412      13.35990562
Si       4.10799247       3.60059373      15.01709299
Si       6.83909272       6.29494597       6.44509475
Si       6.08419027       2.73899709       2.13333230
Si       5.60860827       6.05304242       9.91012914
Si       4.71667234       2.94580861       0.33626325
Si       5.84531486       6.20634959      14.51503747
Si       4.69274571       3.46369408      10.24928185
Si       3.79940055       6.09306027      11.45695702
Si       2.45398458       3.34467569       0.95343182
Si       1.44015364       0.93470738       7.90047438
Si       3.10244134       1.63405178      15.35487829
Si       7.54374574       6.44962632       8.75344479
Si       4.06662425       4.13869161       5.65685616
Si       4.83996370       7.16118254       6.02635769
Si       4.92089119       4.83245357       3.67363503
Si       4.93614647       2.22346246       8.58591319
Si       6.48208845       2.54467331      14.51680463
Si       4.22811777       1.95551761       4.87093071
22
Lattice="5.3429715420886 0.5866278148521581 0.09193632495913401 3.2687254681951465 6.335995161481277 0.46209919697554047 1.245060079126539 1.6115934721798673 15.852662669355373" Properties=species:S:1:pos:R:3 unique_starting_index=40 config_type=initial n_minim_iter=8 stress="-0.003501659952477899 0.004676339841798417 -0.0036155443497029056 0.004676339841798417 0.0007325944035224913 0.007086188863650693 -0.0036155443497029056 0.007086188863650693 0.002617673437538475" pbc="T T T"
Si       7.35055887       3.92183080      12.91683931
Si       2.00463250       2.99493016       5.25765631
Si       5.08103577       1.37276163       6.74649128
Si       4.02976915       5.10952410      13.51041422
Si       4.10181878       3.67902670      15.17768679
Si       6.84496871       6.38049556       6.49999388
Si       6.04874289       2.86737058       2.15880944
Si       5.63816167       6.11335602      10.03676555
Si       4.70747158       2.99261974       0.33818655
Si       5.86338327       6.29634870      14.66845503
Si       4.69165105       3.58032732      10.37171031
Si       3.83179715       6.16064029      11.59711511
Si       2.47451185       3.36738044       0.97374592
Si       1.42134282       0.96075244       7.99816042
Si       3.03718803       1.70409730      15.53956788
Si       7.55450135       6.57176008       8.85462141
Si       4.09437622       4.20491753       5.70063575
Si       4.88351117       7.23488761       6.10789673
Si       4.94329797       4.87629223       3.69963777
Si       4.89200090       2.33376767       8.66835365
Si       6.42144933       2.69879496      14.68851359
Si       4.21284511       2.01268198       4.92567182
22
Lattice="5.348072415150442 0.6717916420355317 0.08848961990224503 3.3771309238503973 6.304397527526741 0.38717083020193155 1.2674298896195109 1.4251064305733006 16.055715321289956" Properties=species:S:1:pos:R:3 unique_starting_index=40 config_type=initial n_minim_iter=9 stress="0.013570121107493654 0.011492851912681259 0.0011220909045363727 0.011492851912681259 -0.0006372728607673661 -0.001187357568838268 0.0011220909045363727 -0.001187357568838268 0.014778744723939462" pbc="T T T"
Si       7.40418540       3.85193098      13.04162171
Si       2.05995675       2.93708599       5.24755127
Si       5.07772134       1.34686872       6.85305795
Si       4.12851652       4.95756180      13.64609145
Si       4.17406327       3.49743950      15.33416822
Si       6.93293406       6.32335390       6.47921159
Si       6.08579389       2.98137213       2.17455107
Si       5.75364360       5.96282194      10.12781691
Si       4.74864254       3.00230675       0.30131430
Si       5.97830960       6.12174456      14.77949091
Si       4.77750345       3.55502519      10.49889556
Si       3.92470099       6.02420768      11.68766366
Si       2.52319273       3.35342909       0.95904337
Si       1.41744596       0.84550809       8.10978614
Si       3.01005131       1.53130959      15.78291988
Si       7.68064273       6.53724414       8.88542744
Si       4.18390513       4.15787703       5.69561192
Si       4.98945945       7.17541469       6.12401149
Si       5.04147834       4.81310731       3.64567826
Si       4.90568160       2.31265453       8.73168394
Si       6.45196203       2.64643671      14.89967036
Si       4.26263362       1.97682868       4.96946784
22
Lattice="5.365068823500881 0.648911194939619 0.12385326392313736 3.3609112802968646 6.311101885493696 0.4127803012651853 1.3667989889731522 1.4404420718528623 16.001843541700527" Properties=species:S:1:pos:R:3 unique_starting_index=40 config_type=initial n_minim_iter=10 stress="0.006231041549298237 0.005309611181956895 0.012271350087794945 0.005309611181956895 -0.005103305533712048 0.007971502225760685 0.012271350087794945 0.007971502225760685 0.0009567142151965121" pbc="T T T"
Si       7.49205274       3.84578750      13.03527419
Si       2.08974224       2.95134029       5.21960374
Si       5.12744426       1.32430089       6.85923678
Si       4.21487849       4.96905448      13.63154024
Si       4.27830127       3.48907008      15.29543067
Si       6.96647770       6.31594232       6.49355716
Si       6.10380432       2.99983203       2.22208855
Si       5.81679271       5.94320382      10.14228920
Si       4.74944677       2.97851208       0.33131806
Si       6.07006463       6.11898281      14.75848632
Si       4.85988918       3.58511973      10.50244783
Si       3.98004436       6.04667436      11.67116310
Si       2.51840730       3.35603625       0.98235098
Si       1.46339953       0.83065030       8.08993817
Si       3.09207183       1.53038036      15.76419651
Si       7.74205164       6.54348861       8.89593130
Si       4.22111645       4.15800834       5.68942432
Si       4.99484207       7.19111632       6.15800125
Si       5.07076567       4.78909126       3.64376283
Si       4.95272647       2.32375829       8.72398848
Si       6.55158067       2.66195304      14.90122947
Si       4.31281549       1.95406869       4.98335188
22
Lattice="5.410468354928326 0.6682115889485565 0.10197266396369123 3.402613425274731 6.418407165701414 0.31587052502294805 1.337337362936986 1.2650951233757528 15.828705394921826" Properties=species:S:1:pos:R:3 unique_starting_index=40 config_type=initial n_minim_iter=11 stress="0.01425553361068021 0.007550273460123886 0.010354325792632152 0.007550273460123886 0.0019058975423349876 0.0016553029702723306 0.010354325792632152 0.0016553029702723306 -0.007467392004911057" pbc="T T T"
Si       7.52307396       3.76160524      12.83618924
Si       2.10329204       2.95047075       5.10169610
Si       5.15431456       1.26575420       6.75677872
Si       4.23384881       4.88701971      13.43609420
Si       4.28958059       3.34604422      15.08777494
Si       7.01752913       6.35020607       6.32287974
Si       6.15128354       3.06796848       2.16146687
Si       5.85789113       5.90233861       9.96444789
Si       4.79051727       3.02278371       0.27547277
Si       6.10007997       6.03424903      14.51780902
Si       4.89660785       3.55046605      10.35237775
Si       3.99225882       6.01690864      11.46863605
Si       2.54207664       3.40579534       0.92680922
Si       1.44419322       0.72345675       8.00110556
Si       3.05676737       1.35468569      15.61170762
Si       7.80027987       6.55878869       8.70351140
Si       4.25476493       4.16208272       5.55487446
Si       5.02206828       7.25078319       6.01290244
Si       5.12668535       4.81243443       3.50832149
Si       4.95981271       2.28184750       8.59334945
Si       6.56354432       2.55328487      14.72500433
Si       4.35407098       1.91703583       4.90482705
22
Lattice="5.394462469471975 0.6699963639081383 0.08405370503116998 3.3918334471054075 6.473103668946146 0.25383525524067935 1.2919993571609782 1.1504769114354465 15.787389624282106" Properties=species:S:1:pos:R:3 unique_starting_index=40 config_type=initial n_minim_iter=12 stress="0.020027386927007645 0.007820477724315003 0.009599589755727026 0.007820477724315003 0.001757982194819902 -0.0028120948591666807 0.009599589755727026 -0.0028120948591666807 0.007682436909589451" pbc="T T T"
Si       7.45352789       3.69096743      12.75310841
Si       2.08884319       2.96578953       5.00328443
Si       5.09829040       1.19047602       6.72952751
Si       4.20908180       4.82524539      13.37931643
Si       4.25814546       3.22465888      15.02390910
Si       6.98673601       6.34637698       6.22816328
Si       6.12036456       3.14651607       2.14064016
Si       5.83713485       5.82245090       9.90758621
Si       4.77062528       3.03866339       0.23916098
Si       6.05884356       5.93094058      14.42580952
Si       4.89535619       3.55451616      10.30209349
Si       3.94093207       5.99163379      11.39795525
Si       2.52655148       3.41930591       0.88470148
Si       1.36347964       0.62525342       8.00410002
Si       2.95799789       1.22224419      15.61745710
Si       7.75241888       6.53704192       8.61679733
Si       4.24770140       4.15433543       5.44947620
Si       4.98637950       7.29416908       5.95048626
Si       5.12551005       4.78432412       3.40838890
Si       4.91373150       2.28832654       8.55263420
Si       6.49494225       2.50640125      14.68601936
Si       4.35149863       1.86936038       4.84482081
22
Lattice="5.3901640533040664 0.6035257234258768 0.06798966425499868 3.3068424303903377 6.5058136769352615 0.23803695502898714 1.230279980304583 1.135079489503415 15.729711663612813" Properties=species:S:1:pos:R:3 unique_starting_index=40 config_type=initial n_minim_iter=13 stress="-0.0017139342597347787 -0.0005993921831886696 -0.003137803918257454 -0.0005993921831886696 0.0042146471625050305 -0.007843296480505595 -0.003137803918257454 -0.007843296480505595 0.008675781983317695" pbc="T T T"
Si       7.36365816       3.62116441      12.67960255
Si       2.03792063       2.99531621       4.95786498
Si       5.06772171       1.12841757       6.69161049
Si       4.11725674       4.81221345      13.33097417
Si       4.17746863       3.18209741      14.96519073
Si       6.89423447       6.32899136       6.18823778
Si       6.07795602       3.10618414       2.12759229
Si       5.73500101       5.79907194       9.85207389
Si       4.72616098       3.02831753       0.22673010
Si       5.94371862       5.89431019      14.36045695
Si       4.83433922       3.53273416      10.25096250
Si       3.83030010       6.00639555      11.33786789
Si       2.48473420       3.42159238       0.85659240
Si       1.29759224       0.59553623       7.98909005
Si       2.89514070       1.18905817      15.57007462
Si       7.63673056       6.49077658       8.56161668
Si       4.17213407       4.13290453       5.40377337
Si       4.87774263       7.30775308       5.92256784
Si       5.06694811       4.76686928       3.36724397
Si       4.86512091       2.25185986       8.50683012
Si       6.41580040       2.44464212      14.60646903
Si       4.32849418       1.82482130       4.80446354
22
Lattice="5.379826720299726 0.467696101073807 0.08393697931595497 3.1467918142678855 6.394368359283126 0.2906774085510312 1.2320267352976662 1.1995299844825733 15.784658287175075" Properties=species:S:1:pos:R:3 unique_starting_index=40 config_type=initial n_minim_iter=14 stress="-0.023349240102216888 -0.010549281420367108 0.006291120765385151 -0.010549281420367108 -0.004941810674788878 0.002059990029145888 0.006291120765385151 0.002059990029145888 -0.0015486830796307392" pbc="T T T"
Si       7.28151746       3.49908542      12.74158496
Si       1.97586343       3.01589097       4.94425336
Si       5.05685555       1.06162541       6.73196235
Si       4.04843909       4.77006912      13.43365302
Si       4.13934624       3.11285667      15.04727286
Si       6.73940638       6.16282987       6.25806191
Si       6.01070913       2.97865534       2.19168254
Si       5.62194118       5.66636545       9.93529887
Si       4.64358344       2.93236653       0.26706334
Si       5.84221698       5.77167242      14.46240089
Si       4.80238474       3.48962831      10.32071186
Si       3.70370738       5.96693950      11.41573776
Si       2.40866720       3.34303258       0.86470094
Si       1.24754296       0.57637211       8.06973616
Si       2.88436024       1.21658662      15.66759464
Si       7.48539125       6.30833501       8.64887224
Si       4.07390541       4.02091973       5.42135649
Si       4.71303215       7.19022902       6.02619173
Si       4.98384677       4.63193168       3.39686988
Si       4.81356343       2.18901828       8.53244247
Si       6.36339301       2.40041452      14.66502474
Si       4.33054441       1.72486736       4.83528341
22
Lattice="5.418532885930044 0.42331846450101573 0.0554084517797361 3.1143917333892137 6.391536696987747 0.27080352954270803 1.1508559469604376 1.186741591583559 15.727432438716653" Properties=species:S:1:pos:R:3 unique_starting_index=40 config_type=initial n_minim_iter=15 stress="-0.017791609825080643 -0.004723580589191022 -0.0012405220082912249 -0.004723580589191022 -0.002948331065568293 -0.007721220269271838 -0.0012405220082912249 -0.007721220269271838 -0.00580853969268322" pbc="T T T"
Si       7.21966496       3.44145689      12.64891792
Si       1.93810731       3.06291435       4.86321029
Si       5.05500023       1.04014561       6.69041194
Si       3.99209886       4.74923510      13.38528686
Si       4.07901573       3.03093389      14.98488487
Si       6.70190644       6.11951786       6.19467316
Si       6.02671311       2.95221526       2.16651639
Si       5.58213864       5.61523082       9.87294903
Si       4.64775523       2.93743241       0.25262497
Si       5.78639712       5.70147902      14.39378084
Si       4.78657836       3.47197227      10.26536762
Si       3.62410270       5.96500120      11.36092178
Si       2.40223850       3.32872607       0.82228597
Si       1.15960828       0.52779581       8.08691263
Si       2.79623604       1.19518260      15.63484796
Si       7.43530811       6.24457727       8.58042797
Si       4.04096504       3.97533003       5.34363693
Si       4.65538167       7.17843151       6.00398127
Si       4.98962948       4.60694192       3.34546268
Si       4.76841233       2.16748200       8.45779643
Si       6.29538620       2.38411535      14.57481553
Si       4.35769075       1.68152670       4.79101592
22
Lattice="5.444872111668239 0.4213849862022643 0.01974113006697225 3.118370579288607 6.473651905059505 0.2761536756308715 1.050077377093168 1.268833577437165 15.682347571710048" Properties=species:S:1:pos:R:3 unique_starting_index=40 config_type=initial n_minim_iter=16 stress="0.009854172339849207 0.0006783439966255837 -0.005862246484180601 0.0006783439966255837 0.006887882698943397 0.006224263628332594 -0.005862246484180601 0.006224263628332594 -0.009081590012612316" pbc="T T T"
Si       7.13847769       3.52923320      12.56754861
Si       1.90308463       3.17638733       4.80163391
Si       5.02957368       1.07867468       6.65764155
Si       3.93549579       4.86701830      13.35731811
Si       4.00536332       3.07766514      14.94189649
Si       6.67712471       6.21552025       6.15661277
Si       6.04840979       2.99263117       2.13903664
Si       5.55066138       5.71729137       9.82592964
Si       4.65877616       3.00173903       0.25419701
Si       5.73712823       5.80878010      14.34679187
Si       4.75989452       3.55527372      10.22242631
Si       3.56185424       6.10197991      11.33469122
Si       2.41758719       3.36564957       0.78434113
Si       1.06813730       0.52515788       8.11322471
Si       2.68382565       1.28277472      15.60336966
Si       7.40204781       6.34577923       8.51228601
Si       4.01583656       4.01595072       5.28640265
Si       4.62886771       7.29661400       6.01309724
Si       5.00919889       4.69051405       3.31537485
Si       4.70348403       2.24680670       8.39764266
Si       6.20071935       2.50090356      14.49331784
Si       4.37810699       1.71404926       4.75025377
22
Lattice="5.43480532273222 0.46729004281661085 -0.02070066107628014 3.1704131080872444 6.398826298608287 0.25934452365925403 0.9402123951782208 1.2647346105053554 15.858942526663306" Properties=species:S:1:pos:R:3 unique_starting_index=40 config_type=initial n_minim_iter=17 stress="0.008625422566000938 0.003988509078617048 -0.00207377977990941 0.003988509078617048 0.009453566984229056 0.004641385159950098 -0.00207377977990941 0.004641385159950098 0.010498961946335513" pbc="T T T"
Si       7.02893216       3.54747075      12.65371692
Si       1.87779264       3.18111353       4.79404559
Si       4.97373625       1.11442669       6.70977180
Si       3.88929413       4.84108796      13.49442199
Si       3.92693998       3.02027690      15.09185725
Si       6.66965603       6.17557309       6.17048890
Si       6.05411090       3.02128783       2.11532999
Si       5.54168358       5.66809244       9.89963972
Si       4.67495363       3.00483696       0.25377016
Si       5.70332729       5.76197432      14.47319121
Si       4.72670272       3.55555904      10.31587395
Si       3.52436008       6.05348517      11.46461739
Si       2.44260887       3.32935479       0.75605704
Si       0.98657411       0.47632978       8.25642370
Si       2.52696101       1.28899095      15.79131024
Si       7.37658489       6.31260609       8.54881179
Si       4.02246523       3.97342680       5.27220508
Si       4.62123939       7.24340402       6.08143563
Si       5.03776595       4.66921154       3.31480780
Si       4.60706666       2.28836716       8.44463326
Si       6.07886324       2.56413929      14.62591567
Si       4.37529871       1.72239111       4.75946336
22
Lattice="5.415958198078884 0.5012253789775866 -0.0380191997577138 3.2010618290231347 6.37752180115235 0.23725397872880788 0.896135852697335 1.2314452637505182 15.910885717828016" Properties=species:S:1:pos:R:3 unique_starting_index=40 config_type=initial n_minim_iter=18 stress="0.008647528434536228 0.004369172666721357 0.006344841146988051 0.004369172666721357 0.004320523992219674 0.0010031741716581615 0.006344841146988051 0.0010031741716581615 0.008109035340785668" pbc="T T T"
Si       6.96662293       3.54812192      12.66786777
Si       1.86388489       3.18036981       4.78034916
Si       4.93057848       1.12770424       6.72327007
Si       3.87432843       4.81483056      13.52275286
Si       3.89135041       2.96878780      15.12568006
Si       6.66511885       6.16969705       6.15745618
Si       6.05445933       3.03460057       2.08828916
Si       5.54049112       5.65326282       9.90039278
Si       4.67701958       3.01623813       0.25607532
Si       5.69748201       5.73937597      14.49379795
Si       4.70520132       3.53398997      10.33603276
Si       3.51945681       6.01919997      11.49454631
Si       2.45495229       3.32410405       0.73731602
Si       0.95543918       0.43677555       8.31188362
Si       2.45677418       1.26439057      15.84083779
Si       7.36530227       6.30459762       8.53031803
Si       4.02672152       3.95270269       5.24752612
Si       4.62623152       7.22445027       6.08815646
Si       5.04947584       4.67912463       3.31019409
Si       4.55687328       2.29527519       8.44505569