24
Lattice="7.036811721669327 0.5508823069798632 -0.7592126832667432 -2.8948880967769925 6.719246212654367 1.183539914174607 -0.8878969835876729 1.08310911660458 8.713391321872676" Properties=species:S:1:pos:R:3 unique_starting_index=90 config_type=initial n_minim_iter=1 energy=-3906.107989536958 free_energy=-3906.107989536958 pbc="T T T"
Si       5.02371169       0.78872732       5.18340788
Si       0.87461086       2.24356030       1.15538929
Si       4.67877120       6.00868657       2.60313982
Si       1.42755438       0.82447203       3.25372439
Si       3.23281032       3.35688015       8.48884045
Si      -2.09033491       5.84441894       7.95539693
Si       0.97775220       3.74891115       3.81241485
Si       0.38416456       6.28019105       7.78108059
Si      -2.66422036       7.72813400       6.55378862
Si       2.98106149       2.36096106       4.34745996
Si       1.71513867       4.46325936       1.40913350
Si       2.43470560       6.65572535       2.22667156
Si       2.92820581       7.33796342      -0.09195613
Si       5.46029265       4.09073324       7.10612367
Si      -0.70992306       5.13631229       1.64091777
Si      -2.57163105       8.28536256       9.33273608
Si      -1.31865572       2.72629564       2.06043678
Si       2.94011437       5.96812385       8.76796252
Si       2.43881257       1.81353791       6.60437632
Si      -0.63532270       3.26691184       5.65008037
Si      -0.17934010       5.70304363       5.50838843
Si       2.94090622       0.72533691       1.23502231
Si       4.66078267       3.76683578       3.37346064
Si       2.04438561       5.92829514       4.54254222
24
Lattice="7.035937190565464 0.5485865704235912 -0.7622525763820591 -2.8988910095910136 6.73363471695507 1.1786011307018809 -0.8910532820202818 1.0775184481942146 8.717221262941386" Properties=species:S:1:pos:R:3 unique_starting_index=90 config_type=initial n_minim_iter=2 stress="0.001061720718374819 0.00011299800957803256 1.6032708690940887e-05 0.00011299800957803256 0.0009944165062820672 0.00030678331245634767 1.6032708690940887e-05 0.00030678331245634767 0.0009785217877035812" pbc="T T T"
Si       5.02117212       0.78248445       5.18383296
Si       0.87278895       2.24636869       1.15365574
Si       4.67389688       6.01586187       2.59721046
Si       1.42630830       0.82237098       3.25433670
Si       3.22805179       3.35401838       8.48918989
Si      -2.09598749       5.85001907       7.95480133
Si       0.97453041       3.75259234       3.81086509
Si       0.37799997       6.28506838       7.77900150
Si      -2.67049808       7.73952261       6.55058402
Si       2.97743883       2.35960572       4.34632040
Si       1.71180974       4.46962265       1.40512094
Si       2.42989701       6.66592189       2.22067322
Si       2.92360166       7.35163020      -0.09972800
Si       5.45524297       4.08900555       7.10432604
Si      -0.71363529       5.14578600       1.63690040
Si      -2.57895023       8.29495022       9.33052207
Si      -1.32100180       2.73060925       2.05929806
Si       2.93360972       5.97025825       8.76583857
Si       2.43548985       1.80984000       6.60546328
Si      -0.63878982       3.26846624       5.65017783
Si      -0.18412218       5.70957075       5.50580014
Si       2.93991045       0.72391789       1.23427782
Si       4.65702247       3.76860971       3.37023342
Si       2.03929404       5.93491188       4.53851383
24
Lattice="7.0260928812326044 0.5456754325935661 -0.7637287029695405 -2.898763229956274 6.735074113784162 1.171358933648401 -0.8923353544150987 1.0692516264133907 8.7089214385441" Properties=species:S:1:pos:R:3 unique_starting_index=90 config_type=initial n_minim_iter=3 stress="-0.0007859507155996081 -0.00022165329289235437 -7.941579002690097e-05 -0.00022165329289235437 0.0004885671327017922 -0.0002969926024516818 -7.941579002690097e-05 -0.0002969926024516818 -0.00084110486567954" pbc="T T T"
Si       5.01273010       0.77470425       5.17744477
Si       0.87003808       2.24478560       1.15033849
Si       4.66358107       6.01172885       2.58759952
Si       1.42385403       0.81866685       3.25058520
Si       3.22011448       3.34458200       8.47794294
Si      -2.09808656       5.84390346       7.94278155
Si       0.97075086       3.74913246       3.80420375
Si       0.37221022       6.27742657       7.76579730
Si      -2.67246791       7.73584179       6.53761834
Si       2.97004490       2.35344138       4.33908381
Si       1.70657593       4.46719109       1.39903144
Si       2.42255053       6.66354764       2.21126387
Si       2.91566608       7.35174697      -0.10743250
Si       5.44413146       4.07928527       7.09293278
Si      -0.71628793       5.14543286       1.63008435
Si      -2.58173221       8.28806472       9.31474730
Si      -1.32156848       2.72952639       2.05501407
Si       2.92435902       5.96068677       8.75136306
Si       2.42973901       1.80259040       6.59756975
Si      -0.64070983       3.26334964       5.64227477
Si      -0.18780129       5.70485264       5.49514362
Si       2.93542958       0.72121077       1.23212551
Si       4.64777987       3.76336574       3.36244274
Si       2.03228761       5.93011732       4.52785300
24
Lattice="7.027901680461611 0.5426901914950613 -0.7680011985965519 -2.902459156345437 6.717884904732879 1.164608178586229 -0.8950658644497259 1.053721360960521 8.727753924333848" Properties=species:S:1:pos:R:3 unique_starting_index=90 config_type=initial n_minim_iter=4 stress="-4.506543045739169e-05 -0.0005502772919798377 -0.0006210937034050018 -0.0005502772919798377 -0.0015071861742537885 -0.0013318130848938713 -0.0006210937034050018 -0.0013318130848938713 0.0014752620072923724" pbc="T T T"
Si       5.01284673       0.76358328       5.18645332
Si       0.86857554       2.23534354       1.15048222
Si       4.66154081       5.99109070       2.58242888
Si       1.42724153       0.81247211       3.25732451
Si       3.21864635       3.32490980       8.49246270
Si      -2.10351658       5.81784369       7.95403481
Si       0.97136515       3.73567400       3.81107269
Si       0.36681757       6.24751820       7.77393026
Si      -2.67810778       7.70994720       6.54137010
Si       2.96272838       2.33713159       4.34215601
Si       1.70404420       4.44843369       1.39557041
Si       2.42043893       6.64367463       2.20470463
Si       2.91362692       7.33521173      -0.11676933
Si       5.44336564       4.05527726       7.10218128
Si      -0.72197379       5.13125157       1.62426352
Si      -2.58659368       8.25391613       9.32477064
Si      -1.32627915       2.71961558       2.05584099
Si       2.92031185       5.93151838       8.76017970
Si       2.42856862       1.79006986       6.61009643
Si      -0.64190378       3.24577754       5.65126055
Si      -0.18958302       5.68182945       5.49783719
Si       2.93734868       0.71654704       1.23492058
Si       4.64605965       3.74804769       3.36308784
Si       2.02956030       5.90772543       4.52702394
24
Lattice="7.032010273214724 0.5549997767729535 -0.744682044900321 -2.888192915577184 6.730218926115395 1.1761557691920526 -0.8692011777761022 1.0833210991044597 8.70857270371144" Properties=species:S:1:pos:R:3 unique_starting_index=90 config_type=initial n_minim_iter=5 stress="-0.00012911497652394428 -0.0003310885595468834 0.001190719459269924 -0.0003310885595468834 0.0001911581425296413 0.0001511712699444582 0.001190719459269924 0.0001511712699444582 -0.00034428677046347694" pbc="T T T"
Si       5.03349509       0.79447414       5.18984632
Si       0.87467780       2.23936487       1.16121733
Si       4.68311988       6.02122158       2.60651033
Si       1.45053476       0.83095023       3.25838032
Si       3.25384040       3.37435014       8.49479074
Si      -2.07361351       5.85185331       7.95205591
Si       0.99815608       3.76369871       3.82892631
Si       0.39769885       6.27985519       7.77694768
Si      -2.64704164       7.74818160       6.54332965
Si       2.96439806       2.35521062       4.34087125
Si       1.71523337       4.45155069       1.41284988
Si       2.44280196       6.67237593       2.22529023
Si       2.92992560       7.36318956      -0.07587709
Si       5.47890452       4.09505313       7.11494223
Si      -0.71719042       5.14794012       1.62964969
Si      -2.54212078       8.29520821       9.32414490
Si      -1.32404284       2.72788698       2.05631214
Si       2.95724704       5.97912409       8.76242579
Si       2.45386170       1.82938986       6.60863874
Si      -0.61575798       3.26670842       5.64920098
Si      -0.15790730       5.71009671       5.49924587
Si       2.94972822       0.72860959       1.24768261
Si       4.66415917       3.77849515       3.37993191
Si       2.05611600       5.93937779       4.53586941
24
Lattice="7.034534144994013 0.5621703391374374 -0.7595041464133785 -2.883882040268096 6.72930512767759 1.184716642543482 -0.8870955418307342 1.0861649725068732 8.70761457453448" Properties=species:S:1:pos:R:3 unique_starting_index=90 config_type=initial n_minim_iter=6 stress="3.847636417830938e-05 0.0003002408519898056 -0.0003813618128232775 0.0003002408519898056 0.00012941869496830799 0.00023575086606101325 -0.0003813618128232775 0.00023575086606101325 -0.0004582173085614416" pbc="T T T"
Si       5.02325834       0.80215128       5.17776417
Si       0.87411804       2.24047358       1.16023766
Si       4.68381368       6.02899963       2.59775010
Si       1.44453931       0.83311034       3.25405329
Si       3.23896556       3.38273852       8.48597360
Si      -2.08518926       5.85429470       7.95577054
Si       0.99466372       3.76779678       3.82762258
Si       0.38683978       6.28479747       7.77535287
Si      -2.65314766       7.74980800       6.54979300
Si       2.95706994       2.36111100       4.33312135
Si       1.71665276       4.45438450       1.41078968
Si       2.44492860       6.67696622       2.22152757
Si       2.93778388       7.36828799      -0.07941195
Si       5.46821117       4.10472229       7.10208679
Si      -0.71584065       5.14904743       1.63210460
Si      -2.55357531       8.29824462       9.32970969
Si      -1.32626782       2.72796560       2.05937047
Si       2.94429300       5.98724485       8.75455884
Si       2.44199328       1.83505078       6.60184148
Si      -0.62478622       3.26899327       5.64947484
Si      -0.16372310       5.71366510       5.49960516
Si       2.94858288       0.73235989       1.24116922
Si       4.66049087       3.78535583       3.37066990
Si       2.05292227       5.94514991       4.53174859
24
Lattice="7.024769780001917 0.5563574706864349 -0.7621348014122576 -2.886031776868497 6.72795934710652 1.182129985431782 -0.8878024235187632 1.0797764843234205 8.723492402759403" Properties=species:S:1:pos:R:3 unique_starting_index=90 config_type=initial n_minim_iter=7 stress="-0.0004275415762265087 1.203564744364218e-05 -0.0005348984776812715 1.203564744364218e-05 -0.0001687205178876715 -0.00014901699438909968 -0.0005348984776812715 -0.00014901699438909968 0.0014251602679149632" pbc="T T T"
Si       5.01549538       0.79360593       5.19061454
Si       0.86883844       2.23555406       1.16234701
Si       4.67259061       6.02264092       2.59856648
Si       1.43682506       0.82139426       3.25696979
Si       3.22932020       3.37296050       8.49935086
Si      -2.08914169       5.84722710       7.96413068
Si       0.99158862       3.76435636       3.83271241
Si       0.37860777       6.27881221       7.78347511
Si      -2.65592956       7.74056980       6.55696549
Si       2.95611617       2.36141227       4.33877601
Si       1.71036070       4.45221179       1.41287999
Si       2.43377536       6.66559174       2.21969558
Si       2.92700827       7.36167771      -0.09053587
Si       5.45668944       4.09469703       7.11236741
Si      -0.71861427       5.14456756       1.63108766
Si      -2.55836822       8.29070367       9.34186635
Si      -1.32629786       2.72742823       2.06109040
Si       2.93309618       5.97572032       8.76507113
Si       2.43918635       1.82290087       6.61433899
Si      -0.62913009       3.26494025       5.65589173
Si      -0.16923967       5.70800777       5.50588719
Si       2.94673687       0.72865019       1.24079183
Si       4.64751129       3.77375275       3.37769909
Si       2.04657974       5.93980651       4.53671724
24
Lattice="7.048568009019251 0.5559045754198411 -0.7564725276679465 -2.8963378827184654 6.726189464204205 1.1712472300745391 -0.8859782808602877 1.0719757802876684 8.698232264235283" Properties=species:S:1:pos:R:3 unique_starting_index=90 config_type=initial n_minim_iter=8 stress="0.0017450986689452098 -0.00021219023306116012 -0.00047527068547753223 -0.00021219023306116012 -0.0005870515691945003 -0.000979129602801321 -0.00047527068547753223 -0.000979129602801321 -0.0002989613983709464" pbc="T T T"
Si       5.03642553       0.78921904       5.18229214
Si       0.86889659       2.22818563       1.16173785
Si       4.68961174       6.02068029       2.58865082
Si       1.44455224       0.81135637       3.24664682
Si       3.24462225       3.36986948       8.47599617
Si      -2.09486474       5.83862469       7.93469838
Si       1.00353260       3.76579893       3.82677150
Si       0.38009918       6.26985518       7.75435750
Si      -2.66122389       7.73333620       6.53039960
Si       2.96433201       2.36039996       4.32246590
Si       1.71492175       4.44478536       1.40991871
Si       2.44093083       6.65811551       2.20602932
Si       2.93527813       7.36322678      -0.09625625
Si       5.48125372       4.08763534       7.09315966
Si      -0.72502484       5.14140441       1.61796716
Si      -2.56054645       8.28158238       9.30848059
Si      -1.33388239       2.72579244       2.05237702
Si       2.94517632       5.96692755       8.73302895
Si       2.45530370       1.81666894       6.59804779
Si      -0.62813388       3.25886952       5.63598087
Si      -0.16472117       5.70228937       5.48370810
Si       2.96393237       0.72738220       1.23894793
Si       4.66103670       3.76781154       3.37120364
Si       2.05850845       5.93782291       4.51858283
24
Lattice="7.038122601999842 0.5664951869232833 -0.7423825103099758 -2.878971239752984 6.736280958915433 1.184010075415748 -0.867834931719537 1.0962490128520146 8.694973570032142" Properties=species:S:1:pos:R:3 unique_starting_index=90 config_type=initial n_minim_iter=9 stress="0.00023806487799280746 0.00014702794016842446 -0.00015168751325376828 0.00014702794016842446 -0.0006459056496265547 -0.00012841439544106296 -0.00015168751325376828 -0.00012841439544106296 -0.0004326438036264073" pbc="T T T"
Si       5.04236060       0.81674177       5.19830849
Si       0.86327096       2.21803750       1.18189240
Si       4.69668399       6.05089747       2.60999399
Si       1.45780534       0.80702281       3.24637177
Si       3.26088942       3.42296619       8.48915034
Si      -2.07582040       5.86400853       7.94012335
Si       1.03806470       3.80280740       3.86232048
Si       0.39253998       6.29630998       7.76152266
Si      -2.63001131       7.76135226       6.54267129
Si       2.95056857       2.38733395       4.31746821
Si       1.71609990       4.43820184       1.43487095
Si       2.44906717       6.66944371       2.21677940
Si       2.94171037       7.39361076      -0.06924496
Si       5.49998248       4.12413882       7.11206360
Si      -0.72800434       5.15139125       1.61723829
Si      -2.51901328       8.31696014       9.32471279
Si      -1.33777545       2.73475801       2.05686017
Si       2.95928953       6.00755254       8.73480794
Si       2.47842647       1.84707791       6.60936233
Si      -0.60911311       3.27562509       5.63760034
Si      -0.13555095       5.72653257       5.48788876
Si       2.98365135       0.73831644       1.24884874
Si       4.65568322       3.78926936       3.39634856
Si       2.08242844       5.97397758       4.52950674
24
Lattice="7.024193911997426 0.5621057865304517 -0.7228934283721075 -2.875299441618465 6.769030174277933 1.1971606357169993 -0.8455449184661339 1.128368705835484 8.691174578470182" Properties=species:S:1:pos:R:3 unique_starting_index=90 config_type=initial n_minim_iter=10 stress="-0.0010135420860335662 -0.0003292985223586168 0.0003065070974711128 -0.0003292985223586168 0.0015165380623338757 0.0009864864166382677 0.0003065070974711128 0.0009864864166382677 0.00039818170159314247" pbc="T T T"
Si       5.05110038       0.83350536       5.21558119
Si       0.85174650       2.21056366       1.20971786
Si       4.68795198       6.08118896       2.64113703
Si       1.46729667       0.79421125       3.24678182
Si       3.27386952       3.48156949       8.50172827
Si      -2.06760658       5.90668438       7.94057353
Si       1.07015077       3.85703801       3.90390979
Si       0.39433250       6.33822555       7.77268821
Si      -2.60839223       7.81294831       6.55730255
Si       2.92983738       2.41456970       4.32055767
Si       1.70357559       4.43810111       1.46474268
Si       2.44071291       6.68096277       2.22447968
Si       2.92986814       7.44006183      -0.03793948
Si       5.51395241       4.16455526       7.13638147
Si      -0.74116466       5.16909778       1.61730833
Si      -2.48900191       8.38421458       9.34339104
Si      -1.34834768       2.75849828       2.06583636
Si       2.96217098       6.05827925       8.73771675
Si       2.50778727       1.87602463       6.62072783
Si      -0.59571749       3.30486146       5.63330487
Si      -0.11480424       5.76733015       5.49291340
Si       3.01080774       0.74387172       1.25723605
Si       4.64782244       3.81715373       3.42534352
Si       2.10231328       6.03003305       4.55155540
24
Lattice="7.025406894064949 0.5723152532868316 -0.7148878861839698 -2.8660725632530997 6.767263607614595 1.1831873224171097 -0.8336111315335338 1.1146549989719454 8.686807933911005" Properties=species:S:1:pos:R:3 unique_starting_index=90 config_type=initial n_minim_iter=11 stress="-0.0007301945294895623 0.0004997456411840462 0.0007828296715012666 0.0004997456411840462 0.0015271306636578626 7.115797897982505e-05 0.0007828296715012666 7.115797897982505e-05 0.0005504133505388524" pbc="T T T"
Si       5.06097709       0.83006279       5.21798843
Si       0.85464750       2.20997530       1.21273589
Si       4.69675579       6.08330521       2.64027896
Si       1.46987669       0.78575310       3.24634925
Si       3.28887233       3.47622727       8.49534601
Si      -2.05421238       5.89172189       7.92338775
Si       1.08251233       3.86252879       3.90172000
Si       0.40974426       6.32918545       7.76366491
Si      -2.58918842       7.80217280       6.54244142
Si       2.93617718       2.41279965       4.32336627
Si       1.70718079       4.43982918       1.46151516
Si       2.45064572       6.67518807       2.21161981
Si       2.93924122       7.45243869      -0.04666734
Si       5.52983597       4.16617940       7.13539887
Si      -0.73324498       5.16365776       1.60772077
Si      -2.46758805       8.37382276       9.32758887
Si      -1.34486846       2.75839727       2.06267137
Si       2.97812461       6.05145860       8.72828555
Si       2.52381314       1.86764084       6.61831770
Si      -0.58622898       3.29789698       5.62173500
Si      -0.10060664       5.76300605       5.48250082
Si       3.02089130       0.74532532       1.25645186
Si       4.66050832       3.82430624       3.42470011
Si       2.12148948       6.03615558       4.54983456
24
Lattice="7.033543630240937 0.5517956239549408 -0.7178595139527634 -2.8893838906727027 6.772143643792875 1.1879281889539086 -0.8427010580405832 1.1218361063864684 8.680662594456765" Properties=species:S:1:pos:R:3 unique_starting_index=90 config_type=initial n_minim_iter=12 stress="7.836600021868063e-05 -0.0009171807963754183 6.00664291265457e-05 -0.0009171807963754183 0.00031974111268292453 0.0003335655859665673 6.00664291265457e-05 0.0003335655859665673 0.0001711552898113584" pbc="T T T"
Si       5.06395706       0.81577780       5.20915239
Si       0.84819099       2.20742306       1.21890795
Si       4.68072795       6.06433264       2.64304861
Si       1.46441360       0.77813619       3.24293825
Si       3.27859406       3.47139707       8.48376217
Si      -2.08171780       5.89521115       7.91655664
Si       1.07242249       3.86920318       3.90203665
Si       0.38644206       6.32764178       7.76304355
Si      -2.61577927       7.80726720       6.54524194
Si       2.92967880       2.40517302       4.32425103
Si       1.69117258       4.43372053       1.46306890
Si       2.43260613       6.65468704       2.20618514
Si       2.92256182       7.44484327      -0.04538031
Si       5.52248730       4.15642045       7.12820002
Si      -0.74909713       5.15816421       1.60963492
Si      -2.49953732       8.38481660       9.32864434
Si      -1.35791682       2.76555410       2.06604684
Si       2.95718988       6.04432925       8.72103708
Si       2.52370655       1.86014215       6.61064366
Si      -0.60078208       3.30201972       5.61371659
Si      -0.12018854       5.76497514       5.48188532
Si       3.02915151       0.73615228       1.24984144
Si       4.65736751       3.81615490       3.42167367
Si       2.11182944       6.03748662       4.55569846
24
Lattice="7.038055612870869 0.5656746547979785 -0.7120080846878811 -2.877437370456327 6.768080498255477 1.1809561739688585 -0.8342381726368148 1.1155780877689099 8.672881082502622" Properties=species:S:1:pos:R:3 unique_starting_index=90 config_type=initial n_minim_iter=13 stress="7.737198955528858e-05 0.0002836904797969568 -0.0001716136188790822 0.0002836904797969568 -0.0006724934207719062 -0.0003147781771018409 -0.0001716136188790822 -0.0003147781771018409 -0.00021788834363528913" pbc="T T T"
Si       5.07423736       0.82172218       5.20991929
Si       0.85088983       2.20479326       1.22617073
Si       4.69288215       6.07223731       2.64346991
Si       1.46999117       0.77297797       3.24041392
Si       3.29477765       3.47983731       8.47438602
Si      -2.07102695       5.88461819       7.90158618
Si       1.09064608       3.88311313       3.90577466
Si       0.39998266       6.32192559       7.75453082
Si      -2.59501851       7.80120902       6.53561160
Si       2.93275393       2.40996154       4.32043538
Si       1.69502494       4.43165369       1.46366800
Si       2.44689309       6.64790694       2.19540104
Si       2.93848463       7.46004315      -0.04834121
Si       5.54237164       4.16684800       7.12429409
Si      -0.74299076       5.15336460       1.60114088
Si      -2.47557988       8.37950015       9.31858397
Si      -1.35829253       2.76482475       2.06244315
Si       2.97265951       6.04602583       8.70839251
Si       2.54116683       1.86004488       6.60751153
Si      -0.58947419       3.29788867       5.60275250
Si      -0.10307361       5.76485492       5.47337976
Si       3.04345234       0.74051788       1.24863585
Si       4.66816967       3.82597515       3.42366808
Si       2.13616919       6.04896871       4.55418650
24
Lattice="7.048127601402547 0.58468598412493 -0.6888363000775751 -2.860919802510946 6.776085496174836 1.1738851285281457 -0.805970739684261 1.1204667103040684 8.657144222629707" Properties=species:S:1:pos:R:3 unique_starting_index=90 config_type=initial n_minim_iter=14 stress="0.0005792265059907596 0.0018712356965298416 -9.475789328168513e-05 0.0018712356965298416 -0.000876566249530092 -0.001096664917416943 -9.475789328168513e-05 -0.001096664917416943 0.00020464022001495807" pbc="T T T"
Si       5.10346036       0.83859986       5.22144482
Si       0.85726786       2.20690272       1.25191768
Si       4.70952551       6.09581866       2.66250107
Si       1.48944099       0.77647922       3.23950097
Si       3.34257149       3.51452241       8.45814756
Si      -2.05141089       5.88610207       7.87648050
Si       1.12837206       3.93460772       3.91984626
Si       0.42832496       6.32597020       7.75145483
Si      -2.55282235       7.82105767       6.52874153
Si       2.94499001       2.42509621       4.31742316
Si       1.69081932       4.43284617       1.47135398
Si       2.47426345       6.63306556       2.18431569
Si       2.96682506       7.50192842      -0.03969119
Si       5.59467297       4.20023779       7.12672227
Si      -0.73823518       5.15611147       1.59029185
Si      -2.42260783       8.40316595       9.31510763
Si      -1.36644234       2.77051322       2.05028318
Si       3.00788684       6.06678313       8.69698648
Si       2.58828990       1.86674095       6.61006292
Si      -0.55665449       3.30365087       5.58391818
Si      -0.06960131       5.78642954       5.46996540
Si       3.07510735       0.74685772       1.24881756
Si       4.68810806       3.84748522       3.44478426
Si       2.19306190       6.08843443       4.56693924
24
Lattice="7.045158487893205 0.5623793214660877 -0.6794931383650358 -2.879449388326922 6.798074453812977 1.189631471717106 -0.8004942495610269 1.1503700680607167 8.650721673409707" Properties=species:S:1:pos:R:3 unique_starting_index=90 config_type=initial n_minim_iter=15 stress="6.522108687972416e-05 -0.0003592875269205863 -0.00039778304631701936 -0.0003592875269205863 0.00030431398725103663 0.00018321321193163654 -0.00039778304631701936 0.00018321321193163654 -8.056404469163022e-05" pbc="T T T"
Si       5.10574376       0.84257851       5.22847575
Si       0.85025776       2.21030714       1.26605102
Si       4.68957906       6.10001803       2.68513894
Si       1.49479957       0.78896885       3.23968691
Si       3.34656909       3.53908707       8.45471786
Si      -2.06861654       5.92141559       7.88206578
Si       1.12459545       3.96465777       3.93081114
Si       0.41166965       6.34878300       7.76415952
Si      -2.56690160       7.86510076       6.54659001
Si       2.94089359       2.43407759       4.31711198
Si       1.66793550       4.43465313       1.48377751
Si       2.45797880       6.62632534       2.19777979
Si       2.94966276       7.50838027      -0.01702934
Si       5.59606445       4.21238500       7.13281744
Si      -0.75916839       5.17092253       1.60014344
Si      -2.43443916       8.45391631       9.33705341
Si      -1.38207946       2.78165592       2.04647176
Si       2.99437320       6.08861214       8.70617053
Si       2.59572584       1.87611950       6.61532489
Si      -0.55426239       3.32584748       5.58416758
Si      -0.08283369       5.81567332       5.48460612
Si       3.07831508       0.74084951       1.24968194
Si       4.67503289       3.84303821       3.46317055
Si       2.18877693       6.10681544       4.58365587
24
Lattice="7.037903889344738 0.5637812598942298 -0.6466480357807454 -2.8703302636057817 6.79994989188974 1.1842416763950407 -0.7590273572381603 1.1596980854279089 8.654385117741025" Properties=species:S:1:pos:R:3 unique_starting_index=90 config_type=initial n_minim_iter=16 stress="-0.001085878766427298 -0.0002696208532235064 0.0013874424172555955 -0.0002696208532235064 -0.0003716320858713122 0.0001171687925760811 0.0013874424172555955 0.0001171687925760811 -4.6506525317487465e-05" pbc="T T T"
Si       5.12637559       0.85362363       5.26376281
Si       0.84687260       2.20496187       1.27872523
Si       4.70630903       6.10854290       2.72628448
Si       1.51382291       0.79685824       3.24763683
Si       3.39043409       3.55227098       8.46895193
Si      -2.03934128       5.92649555       7.88473477
Si       1.15361638       3.98708677       3.94684804
Si       0.44026374       6.34785749       7.77652021
Si      -2.52829814       7.87652076       6.55247205
Si       2.95352064       2.44585018       4.33231453
Si       1.66311260       4.43393173       1.50091274
Si       2.46583918       6.61648580       2.20988756
Si       2.95834891       7.51473707       0.00757367
Si       5.63806418       4.22793470       7.16392278
Si      -0.76409488       5.17160190       1.59973850
Si      -2.38318012       8.47258116       9.35497578
Si      -1.38436649       2.77909363       2.03814411
Si       3.02978893       6.09350144       8.72725546
Si       2.63544067       1.87784284       6.63761451
Si      -0.52316851       3.33534870       5.57942404
Si      -0.05921435       5.82817728       5.49371960
Si       3.09104750       0.74449437       1.26347751
Si       4.69551169       3.84293561       3.49513187
Si       2.21947744       6.11406216       4.60213501
24
Lattice="7.048395384868506 0.5682341374927742 -0.5930045497020573 -2.862799984875984 6.823773428860356 1.1882927629589783 -0.6971660378800097 1.1961919509733334 8.644488037104551" Properties=species:S:1:pos:R:3 unique_starting_index=90 config_type=initial n_minim_iter=17 stress="-0.0003175908379266302 0.00023812033929408922 0.001196111904689782 0.00023812033929408922 -3.8241682589254686e-05 0.0002648465660309488 0.001196111904689782 0.0002648465660309488 0.00022443266493307385" pbc="T T T"
Si       5.17433434       0.88541187       5.31561659
Si       0.83067891       2.19763372       1.31905913
Si       4.74698767       6.14647684       2.82033302
Si       1.55069542       0.81749713       3.25158393
Si       3.47610275       3.60853914       8.45912456
Si      -2.01925001       5.95727978       7.87842279
Si       1.22235630       4.07979464       3.98239284
Si       0.47153159       6.36220363       7.79267545
Si      -2.46469584       7.93321167       6.57545925
Si       2.96975246       2.48854772       4.35202126
Si       1.63590540       4.43949206       1.54041676
Si       2.48472156       6.58928445       2.21985045
Si       2.99640440       7.56030423       0.06501577
Si       5.73867138       4.29406212       7.19860256
Si      -0.79272112       5.17958832       1.59864753
Si      -2.30097345       8.55956600       9.40398154
Si      -1.41647852       2.78362840       2.02008338