10
Lattice="3.2930128982810722 -1.290823695691133 3.3560835032347396e-07 -2.4493442102527925 13.134711969659168 -3.3847599204024875e-07 -1.2246728796396056 6.5673560418931825 7.8190574301220765" Properties=species:S:1:pos:R:3 unique_starting_index=99 config_type=initial n_minim_iter=13 energy=-1630.2532757904742 free_energy=-1630.2532757904742 pbc="T T T"
Si       0.93280800       8.00229329       5.34752767
Si       2.15748039       1.43493728       2.47153017
Si      -0.48979191       4.37310641       3.66593582
Si      -1.71446407      10.94046240       4.15312146
Si       0.16773356      10.89632070       3.16503132
Si       1.39240552       4.32896472       4.65402633
Si       0.57806913       2.25151494       1.11178308
Si      -0.64660352       8.81887097       6.70727444
Si      -2.36319965      14.13128139       2.74490121
Si      -1.13852777       7.56392542       5.07415589
