22
Lattice="5.530335963641001 -0.6518590583502001 -1.3770039709268398 -2.360876509274915 11.578565982345761 -2.318830897545276 -4.650180958102748 -5.823730122580474 10.865180754953844" Properties=species:S:1:pos:R:3 unique_starting_index=18 config_type=initial n_minim_iter=1 energy=-3585.9754536862742 free_energy=-3585.9754536862742 pbc="T T T"
Si       0.23195153      10.49395200      -1.30898841
Si      -1.53275868      -1.38951892       5.65944831
Si      -3.84698882      -3.93851862       9.51813112
Si       0.17134489      -3.14049487       8.58068532
Si      -5.43093330      -0.51172110       8.85916461
Si       4.31200109       2.27196504      -0.23595455
Si       2.41026082       1.02028089       0.05533236
Si      -2.01014399       1.73752458       8.24360746
Si      -1.77300007      -3.86000333       9.08130722
Si      -2.55314372       0.90842859       5.76069003
Si       1.19200891      -0.73644611       2.85548646
Si      -2.96606090       3.43573205       4.80779361
Si      -3.23398249      -3.06097447       6.32313906
Si      -0.75864222       7.54998844      -1.18771236
Si       1.19231923       1.19881789       3.73528475
Si       0.90222176       8.60685059      -2.00891467
Si      -0.92024181      -1.71669427       3.21189332
Si       2.56351639      -5.41618692       6.20158318
Si       0.29063328       2.76938623       2.63290844
Si      -3.23362950       2.64967078       6.76466552
Si      -1.22871841       4.10881191       3.27391102
Si      -1.51979838      -2.53202067       7.44839702
22
Lattice="5.530288205982844 -0.6518404998140435 -1.3769969208264152 -2.3608269409179945 11.578735261439663 -2.3189380138825997 -4.650140154555708 -5.823905632530148 10.865289296842876" Properties=species:S:1:pos:R:3 unique_starting_index=18 config_type=initial n_minim_iter=2 stress="0.00019612713005122423 2.0552114749507774e-05 6.096940863718241e-05 2.0552114749507774e-05 0.00017300991312441095 -6.442496220191651e-05 6.096940863718241e-05 -6.442496220191651e-05 0.00020093336206837445" pbc="T T T"
Si       0.23198402      10.49412556      -1.30907327
Si      -1.53272900      -1.38960936       5.65952945
Si      -3.84698423      -3.93860765       9.51821863
Si       0.17139450      -3.14061884       8.58077290
Si      -5.43089136      -0.51184100       8.85923359
Si       4.31193718       2.27201286      -0.23605125
Si       2.41024028       1.02029006       0.05536330
Si      -2.01007968       1.73746768       8.24370027
Si      -1.77294271      -3.86009782       9.08137838
Si      -2.55310214       0.90839106       5.76073612
Si       1.19198155      -0.73655636       2.85548145
Si      -2.96599021       3.43577150       4.80778949
Si      -3.23395536      -3.06102783       6.32316986
Si      -0.75865020       7.55009274      -1.18777783
Si       1.19223939       1.19888549       3.73531852
Si       0.90221019       8.60694541      -2.00900189
Si      -0.92022121      -1.71671851       3.21196800
Si       2.56353118      -5.41634766       6.20174441
Si       0.29064196       2.76942317       2.63293675
Si      -3.23358791       2.64964282       6.76459654
Si      -1.22866181       4.10881858       3.27388355
Si      -1.51973932      -2.53211679       7.44843147
22
Lattice="5.530221210032696 -0.6518432737497188 -1.3770021415076685 -2.3607974763885506 11.578631624686398 -2.3188709491097184 -4.650111783480192 -5.823821215486143 10.865166493468259" Properties=species:S:1:pos:R:3 unique_starting_index=18 config_type=initial n_minim_iter=3 stress="-4.5135449004839135e-05 -7.513932595724709e-06 1.984820673307935e-06 -7.513932595724709e-06 6.993287144751735e-06 -1.8786451006999938e-05 1.984820673307935e-06 -1.8786451006999938e-05 -2.870887354170515e-05" pbc="T T T"
Si       0.23197833      10.49403427      -1.30902959
Si      -1.53272524      -1.38958409       5.65947269
Si      -3.84696648      -3.93853548       9.51811317
Si       0.17137264      -3.14056977       8.58066731
Si      -5.43085205      -0.51181160       8.85915415
Si       4.31187503       2.27198968      -0.23607072
Si       2.41020763       1.02027926       0.05535976
Si      -2.01007937       1.73747643       8.24362780
Si      -1.77294424      -3.86003278       9.08127128
Si      -2.55309004       0.90840214       5.76068459
Si       1.19195277      -0.73655523       2.85543854
Si      -2.96596737       3.43576327       4.80775410
Si      -3.23393174      -3.06097309       6.32309675
Si      -0.75864894       7.55002421      -1.18774025
Si       1.19219961       1.19889530       3.73527822
Si       0.90219471       8.60685967      -2.00895819
Si      -0.92021828      -1.71668983       3.21193608
Si       2.56348749      -5.41629442       6.20166286
Si       0.29062536       2.76941078       2.63291747
Si      -3.23357107       2.64964125       6.76452606
Si      -1.22865582       4.10879039       3.27385978
Si      -1.51973714      -2.53207586       7.44834132
22
Lattice="5.530333522638352 -0.6518264818276153 -1.377079145159351 -2.360745583693166 11.578270001031672 -2.3185696550895862 -4.650337629851606 -5.823430335938513 10.865132302915555" Properties=species:S:1:pos:R:3 unique_starting_index=18 config_type=initial n_minim_iter=4 stress="0.00013175474593090752 0.00011291769521809105 6.65924485042962e-05 0.00011291769521809105 6.6748492337672325e-06 0.00015596327902039428 6.65924485042962e-05 0.00015596327902039428 -0.00012874790505273284" pbc="T T T"
Si       0.23207551      10.49374406      -1.30877909
Si      -1.53280320      -1.38942194       5.65949369
Si      -3.84714464      -3.93817856       9.51810298
Si       0.17131928      -3.14026656       8.58063850
Si      -5.43101792      -0.51161130       8.85927167
Si       4.31197441       2.27196108      -0.23610492
Si       2.41026444       1.02028646       0.05534295
Si      -2.01016746       1.73762709       8.24377921
Si      -1.77310154      -3.85970120       9.08129173
Si      -2.55320865       0.90850319       5.76075898
Si       1.19191726      -0.73649407       2.85541704
Si      -2.96603616       3.43580542       4.80787597
Si      -3.23408046      -3.06071960       6.32306032
Si      -0.75865257       7.54978929      -1.18754498
Si       1.19217766       1.19896209       3.73533761
Si       0.90227221       8.60658926      -2.00874855
Si      -0.92028925      -1.71655161       3.21194433
Si       2.56346635      -5.41604717       6.20158934
Si       0.29060131       2.76945552       2.63298640
Si      -3.23367304       2.64972858       6.76464545
Si      -1.22866931       4.10875519       3.27398446
Si      -1.51983428      -2.53189415       7.44834356
22
Lattice="5.530359969518814 -0.6518986024384296 -1.3772874349092397 -2.360876077297322 11.577923275817579 -2.3186285911131352 -4.650517751574428 -5.823178384021498 10.865717418735372" Properties=species:S:1:pos:R:3 unique_starting_index=18 config_type=initial n_minim_iter=5 stress="-2.6309149807139192e-05 4.7368906174951534e-05 -4.132897345390844e-05 4.7368906174951534e-05 3.971765682158661e-05 -2.799836100597537e-05 -4.132897345390844e-05 -2.799836100597537e-05 8.101668030944544e-06" pbc="T T T"
Si       0.23194424      10.49338853      -1.30887493
Si      -1.53291132      -1.38936814       5.65977139
Si      -3.84730595      -3.93794189       9.51859325
Si       0.17119610      -3.14017505       8.58098628
Si      -5.43120351      -0.51152743       8.85981624
Si       4.31192979       2.27181756      -0.23631014
Si       2.41024009       1.02022703       0.05525412
Si      -2.01040200       1.73758031       8.24421538
Si      -1.77330658      -3.85954261       9.08177702
Si      -2.55340775       0.90849071       5.76104543
Si       1.19180632      -0.73654648       2.85548926
Si      -2.96621018       3.43575835       4.80810649
Si      -3.23419670      -3.06051892       6.32337570
Si      -0.75882172       7.54953074      -1.18758664
Si       1.19202937       1.19887638       3.73547385
Si       0.90215893       8.60626788      -2.00885683
Si      -0.92036833      -1.71645818       3.21213247
Si       2.56341473      -5.41601253       6.20185537
Si       0.29044328       2.76941716       2.63304826
Si      -3.23388781       2.64968011       6.76497806
Si      -1.22881142       4.10861836       3.27412310
Si      -1.51996829      -2.53188612       7.44869187
22
Lattice="5.530415203117831 -0.6520139595252751 -1.3772780609692645 -2.3611592530158023 11.577687539573011 -2.3185738230240887 -4.650373363672646 -5.822854944661125 10.865768881815525" Properties=species:S:1:pos:R:3 unique_starting_index=18 config_type=initial n_minim_iter=6 stress="1.0446615912661142e-05 -9.650804650362065e-05 4.935840559875081e-05 -9.650804650362065e-05 -1.619719309001699e-05 2.6716442075204046e-05 4.935840559875081e-05 2.6716442075204046e-05 2.3922077710897442e-05" pbc="T T T"
Si       0.23171963      10.49313406      -1.30880539
Si      -1.53285484      -1.38926258       5.65982294
Si      -3.84719351      -3.93767006       9.51864320
Si       0.17132991      -3.14003017       8.58106463
Si      -5.43117973      -0.51132932       8.85989771
Si       4.31193163       2.27167739      -0.23629103
Si       2.41023772       1.02015284       0.05528065
Si      -2.01042053       1.73766071       8.24433220
Si      -1.77319471      -3.85933020       9.08185065
Si      -2.55342567       0.90856072       5.76109850
Si       1.19183173      -0.73654511       2.85552081
Si      -2.96628763       3.43578541       4.80816376
Si      -3.23413013      -3.06031023       6.32339120
Si      -0.75902549       7.54935722      -1.18754190
Si       1.19202423       1.19885212       3.73553062
Si       0.90197727       8.60601537      -2.00880258
Si      -0.92033531      -1.71636245       3.21215896
Si       2.56360059      -5.41592541       6.20192007
Si       0.29039510       2.76938856       2.63308897
Si      -3.23392860       2.64974736       6.76506047
Si      -1.22889298       4.10857851       3.27418278
Si      -1.51987320      -2.53175855       7.44873313
22
Lattice="5.530558175407641 -0.6519997364509842 -1.3773954715103633 -2.361206405604712 11.577007286172805 -2.3185133572517773 -4.65062291778071 -5.8224343248329316 10.866036900079338" Properties=species:S:1:pos:R:3 unique_starting_index=18 config_type=initial n_minim_iter=7 stress="1.7428845322689332e-05 2.848287745899058e-05 1.668092898063366e-05 2.848287745899058e-05 -0.00010188056596086835 -2.5852105076096057e-05 1.668092898063366e-05 -2.5852105076096057e-05 3.328556496810882e-05" pbc="T T T"
Si       0.23173989      10.49252914      -1.30877619
Si      -1.53293662      -1.38916195       5.65998436
Si      -3.84738116      -3.93730403       9.51886217
Si       0.17125757      -3.13976858       8.58124762
Si      -5.43137762      -0.51122830       8.86021758
Si       4.31208951       2.27156229      -0.23640459
Si       2.41027165       1.02007795       0.05529326
Si      -2.01065220       1.73767266       8.24461403
Si      -1.77336847      -3.85900615       9.08207002
Si      -2.55360251       0.90851617       5.76124420
Si       1.19175788      -0.73652594       2.85555747
Si      -2.96643781       3.43564614       4.80830709
Si      -3.23430349      -3.06003410       6.32351696
Si      -0.75914146       7.54889523      -1.18750410
Si       1.19194075       1.19878501       3.73558412
Si       0.90205372       8.60542998      -2.00880364
Si      -0.92045599      -1.71620804       3.21225371
Si       2.56361772      -5.41568653       6.20205547
Si       0.29034489       2.76930074       2.63311210
Si      -3.23407070       2.64965574       6.76529393
Si      -1.22898812       4.10837758       3.27428529
Si      -1.51997261      -2.53163907       7.44882259
22
Lattice="5.530578721483732 -0.6520666832336923 -1.377441570061723 -2.3612863883574655 11.577164560964839 -2.318388515743825 -4.650666167794361 -5.822382627007731 10.865988712323048" Properties=species:S:1:pos:R:3 unique_starting_index=18 config_type=initial n_minim_iter=8 stress="1.446515514535638e-05 -2.6405843955663095e-05 -5.112572346134407e-05 -2.6405843955663095e-05 5.445621424750229e-05 3.219836133638203e-05 -5.112572346134407e-05 3.219836133638203e-05 -7.4359712891396384e-06" pbc="T T T"
Si       0.23166926      10.49266078      -1.30868699
Si      -1.53296136      -1.38912093       5.65996509
Si      -3.84741687      -3.93722894       9.51882159
Si       0.17121526      -3.13973121       8.58119803
Si      -5.43143413      -0.51111485       8.86024155
Si       4.31209877       2.27156510      -0.23643507
Si       2.41025911       1.02006994       0.05529407
Si      -2.01074690       1.73779488       8.24463132
Si      -1.77341082      -3.85896214       9.08203401
Si      -2.55367260       0.90858931       5.76124439
Si       1.19172398      -0.73653699       2.85552923
Si      -2.96650841       3.43576353       4.80834319
Si      -3.23433432      -3.05998656       6.32348958
Si      -0.75921961       7.54899243      -1.18743191
Si       1.19188663       1.19881813       3.73556893
Si       0.90200089       8.60550303      -2.00872817
Si      -0.92048701      -1.71618778       3.21224109
Si       2.56362396      -5.41575642       6.20198409
Si       0.29030255       2.76937020       2.63311017
Si      -3.23413905       2.64978163       6.76532172
Si      -1.22905631       4.10847762       3.27431576
Si      -1.51999771      -2.53162050       7.44876265
22
Lattice="5.530485047708047 -0.6520780957816977 -1.3773168429718017 -2.3613468499352255 11.577107009949021 -2.3184587028570163 -4.650360135413022 -5.8223590604122215 10.865857887574204" Properties=species:S:1:pos:R:3 unique_starting_index=18 config_type=initial n_minim_iter=9 stress="-0.00014284371433859384 3.8079190743699385e-05 9.73353934961032e-05 3.8079190743699385e-05 8.233421675122255e-05 1.2360926789470157e-05 9.73353934961032e-05 1.2360926789470157e-05 2.9629682308595593e-05" pbc="T T T"
Si       0.23163658      10.49258234      -1.30871825
Si      -1.53277096      -1.38910257       5.65987520
Si      -3.84711013      -3.93715683       9.51868504
Si       0.17138780      -3.13969928       8.58120548
Si      -5.43112177      -0.51111852       8.86014449
Si       4.31213725       2.27158336      -0.23640093
Si       2.41020411       1.02004747       0.05539504
Si      -2.01057923       1.73780674       8.24459949
Si      -1.77316837      -3.85894990       9.08202935
Si      -2.55359931       0.90856566       5.76113335
Si       1.19170211      -0.73660202       2.85553474
Si      -2.96638804       3.43575192       4.80826870
Si      -3.23416795      -3.05996371       6.32338529
Si      -0.75934191       7.54895712      -1.18747740
Si       1.19189919       1.19878046       3.73556142
Si       0.90187853       8.60539781      -2.00869821
Si      -0.92047456      -1.71614640       3.21223707
Si       2.56377399      -5.41583905       6.20207138
Si       0.29036914       2.76938289       2.63305546
Si      -3.23391444       2.64977152       6.76519993
Si      -1.22901166       4.10847338       3.27425202
Si      -1.51972308      -2.53170628       7.44861427
22
Lattice="5.530765070402298 -0.6521546500872561 -1.3773634617076198 -2.361664522681991 11.57666134435465 -2.318478266161157 -4.650599757974745 -5.822094171962138 10.865759835838329" Properties=species:S:1:pos:R:3 unique_starting_index=18 config_type=initial n_minim_iter=10 stress="4.811435231792139e-05 -1.489509712379363e-05 -2.8026087580165907e-06 -1.489509712379363e-05 -6.128627134471703e-07 -4.2886110736394815e-05 -2.8026087580165907e-06 -4.2886110736394815e-05 -7.621760642733868e-05" pbc="T T T"
Si       0.23149105      10.49209304      -1.30880686
Si      -1.53282368      -1.38902213       5.65973608
Si      -3.84729991      -3.93689964       9.51856027
Si       0.17131572      -3.13958722       8.58110395
Si      -5.43140282      -0.51106170       8.86012824
Si       4.31242932       2.27145882      -0.23654438
Si       2.41025443       1.01993786       0.05543048
Si      -2.01084069       1.73774237       8.24451366
Si      -1.77325365      -3.85881026       9.08196653
Si      -2.55392350       0.90851468       5.76100744
Si       1.19163193      -0.73669644       2.85545631
Si      -2.96667301       3.43563349       4.80821430
Si      -3.23435235      -3.05981036       6.32332481
Si      -0.75962969       7.54865676      -1.18752905
Si       1.19180605       1.19865699       3.73543498
Si       0.90168921       8.60495412      -2.00870338
Si      -0.92062913      -1.71602939       3.21223359
Si       2.56396319      -5.41581435       6.20202247
Si       0.29032936       2.76927356       2.63292790
Si      -3.23414135       2.64968050       6.76506970
Si      -1.22923601       4.10832381       3.27415201
Si      -1.51972325      -2.53175544       7.44839056
22
Lattice="5.530752681552857 -0.6521876612612221 -1.3774594788315868 -2.361684002363257 11.576292599829111 -2.3182872962573793 -4.650635608826518 -5.82168155118354 10.865996688459976" Properties=species:S:1:pos:R:3 unique_starting_index=18 config_type=initial n_minim_iter=11 stress="-3.53280021484112e-05 8.144873551095014e-06 -3.625013687211e-05 8.144873551095014e-06 -2.8681233005904927e-05 4.4600893823266574e-05 -3.625013687211e-05 4.4600893823266574e-05 7.503069568553631e-05" pbc="T T T"
Si       0.23148148      10.49175661      -1.30863615
Si      -1.53280711      -1.38882533       5.65983382
Si      -3.84732539      -3.93651189       9.51877928
Si       0.17126681      -3.13929435       8.58131364
Si      -5.43140092      -0.51084966       8.86047029
Si       4.31249376       2.27141612      -0.23656774
Si       2.41021544       1.01989468       0.05548851
Si      -2.01090504       1.73789663       8.24484671
Si      -1.77327692      -3.85849639       9.08218022
Si      -2.55403444       0.90860141       5.76118009
Si       1.19154406      -0.73667626       2.85550706
Si      -2.96671890       3.43565759       4.80845719
Si      -3.23436388      -3.05959160       6.32349300
Si      -0.75972078       7.54842835      -1.18741468
Si       1.19173129       1.19870295       3.73554496
Si       0.90160552       8.60461539      -2.00857920
Si      -0.92070543      -1.71587611       3.21232621
Si       2.56396139      -5.41558752       6.20210790
Si       0.29033083       2.76927695       2.63305453
Si      -3.23415158       2.64977679       6.76537142
Si      -1.22928216       4.10829156       3.27432764
Si      -1.51969321      -2.53161817       7.44849721
22
Lattice="5.530893261767012 -0.6522732749292882 -1.3772189415320906 -2.3620856885511117 11.575967445507475 -2.318380660860266 -4.650306086911579 -5.821487954213251 10.865443182618593" Properties=species:S:1:pos:R:3 unique_starting_index=18 config_type=initial n_minim_iter=12 stress="-7.376580011488646e-06 -2.3895099194024243e-06 1.5329496298932074e-05 -2.3895099194024243e-06 -2.8227547390738415e-06 -5.68723397075441e-06 1.5329496298932074e-05 -5.68723397075441e-06 -2.290420352653683e-05" pbc="T T T"
Si       0.23126180      10.49140069      -1.30868664
Si      -1.53251857      -1.38871128       5.65941531
Si      -3.84704359      -3.93621835       9.51827128
Si       0.17168368      -3.13923537       8.58103251
Si      -5.43118817      -0.51084078       8.86004263
Si       4.31278611       2.27136177      -0.23651524
Si       2.41022034       1.01982730       0.05564054
Si      -2.01074653       1.73784683       8.24450457
Si      -1.77294679      -3.85844759       9.08180390
Si      -2.55413801       0.90850398       5.76074560
Si       1.19152078      -0.73684367       2.85540519
Si      -2.96674028       3.43560403       4.80811432
Si      -3.23415457      -3.05955280       6.32324237
Si      -0.76015066       7.54821453      -1.18749501
Si       1.19175246       1.19858241       3.73538102
Si       0.90125382       8.60418330      -2.00855153
Si      -0.92077673      -1.71575177       3.21222552
Si       2.56446342      -5.41558003       6.20206784
Si       0.29043611       2.76926677       2.63293379
Si      -3.23402874       2.64973225       6.76504619
Si      -1.22929938       4.10813924       3.27404541
Si      -1.51929137      -2.53181267       7.44792859
22
Lattice="5.531045255669241 -0.6523458770450944 -1.3771688798964217 -2.3623530142196465 11.575626026825281 -2.3183373002074688 -4.650279327806137 -5.821205757310263 10.865228288203191" Properties=species:S:1:pos:R:3 unique_starting_index=18 config_type=initial n_minim_iter=13 stress="-8.097890605708422e-06 1.1800906053507801e-06 -1.0450425755612643e-05 1.1800906053507801e-06 -1.7560484332494698e-05 8.809194223895098e-06 -1.0450425755612643e-05 8.809194223895098e-06 4.968775683726717e-06" pbc="T T T"
Si       0.23111144      10.49106929      -1.30864270
Si      -1.53238939      -1.38856257       5.65920771
Si      -3.84701384      -3.93586291       9.51807562
Si       0.17185820      -3.13907582       8.58089682
Si      -5.43124367      -0.51078911       8.85996555
Si       4.31301434       2.27131121      -0.23655240
Si       2.41022587       1.01978638       0.05573420
Si      -2.01078359       1.73787237       8.24444103
Si      -1.77282544      -3.85827819       9.08170236
Si      -2.55437879       0.90847666       5.76055043
Si       1.19142792      -0.73695028       2.85534281
Si      -2.96687062       3.43558156       4.80800633
Si      -3.23416814      -3.05950616       6.32319082
Si      -0.76051620       7.54798324      -1.18748217
Si       1.19172485       1.19852241       3.73532100
Si       0.90107832       8.60377978      -2.00847538
Si      -0.92096725      -1.71562765       3.21215559
Si       2.56471945      -5.41547893       6.20199251
Si       0.29048343       2.76930138       2.63293013
Si      -3.23408837       2.64972993       6.76499680
Si      -1.22935874       4.10801051       3.27392716
Si      -1.51900736      -2.53186002       7.44759321
22
Lattice="5.531173930128237 -0.6524149711252919 -1.3770123710673274 -2.3626393224166105 11.575621264152323 -2.3184197716792627 -4.650102271272144 -5.821206040819695 10.864846912724165" Properties=species:S:1:pos:R:3 unique_starting_index=18 config_type=initial n_minim_iter=14 stress="-5.683852374901427e-06 -4.660108424147764e-07 1.2718883379978529e-05 -4.660108424147764e-07 5.557981140533946e-06 -1.610767506744853e-06 1.2718883379978529e-05 -1.610767506744853e-06 -1.774337934423553e-05" pbc="T T T"
Si       0.23093611      10.49102768      -1.30868748
Si      -1.53219309      -1.38853830       5.65895289
Si      -3.84676216      -3.93575878       9.51771563
Si       0.17215181      -3.13908529       8.58063982
Si      -5.43113929      -0.51080542       8.85966002
Si       4.31317614       2.27130142      -0.23652515
Si       2.41023206       1.01977486       0.05586678
Si      -2.01069272       1.73783454       8.24419682
Si      -1.77258959      -3.85823390       9.08142301
Si      -2.55450125       0.90842393       5.76026161
Si       1.19139165      -0.73706359       2.85527590
Si      -2.96694550       3.43556608       4.80775867
Si      -3.23407117      -3.05961304       6.32305075
Si      -0.76088366       7.54796083      -1.18753511
Si       1.19177349       1.19847905       3.73521838
Si       0.90089054       8.60366275      -2.00844972
Si      -0.92108803      -1.71559667       3.21203581
Si       2.56502901      -5.41557527       6.20188501
Si       0.29058010       2.76936808       2.63287124
Si      -3.23407638       2.64968250       6.76469449
Si      -1.22936692       4.10795601       3.27370554
Si      -1.51871629      -2.53211771       7.44717546
22
Lattice="5.5313359743385595 -0.6524668758686988 -1.377032809599572 -2.3628331110443686 11.575443553585664 -2.3184340916154342 -4.650212529482644 -5.821077672887235 10.864832302224944" Properties=species:S:1:pos:R:3 unique_starting_index=18 config_type=initial n_minim_iter=15 stress="1.5765472846943236e-05 4.150752240739941e-06 -6.031722682319387e-06 4.150752240739941e-06 -2.4945791786400072e-05 9.22579028294686e-06 -6.031722682319387e-06 9.22579028294686e-06 1.6263483988749123e-05" pbc="T T T"
Si       0.23081690      10.49081036      -1.30871369
Si      -1.53214976      -1.38849251       5.65892845
Si      -3.84671816      -3.93557728       9.51767979
Si       0.17223063      -3.13899185       8.58054938
Si      -5.43128016      -0.51077829       8.85970051
Si       4.31332059       2.27124641      -0.23654773
Si       2.41025656       1.01979562       0.05589968
Si      -2.01082502       1.73782460       8.24420426
Si      -1.77261276      -3.85812323       9.08144164
Si      -2.55472335       0.90836743       5.76021465
Si       1.19129054      -0.73708844       2.85527307
Si      -2.96711683       3.43553940       4.80771382
Si      -3.23415166      -3.05964660       6.32313014
Si      -0.76118169       7.54783522      -1.18755567
Si       1.19170396       1.19843997       3.73517519
Si       0.90071032       8.60343100      -2.00847910
Si      -0.92122797      -1.71551113       3.21206196
Si       2.56518109      -5.41553409       6.20186526
Si       0.29063752       2.76937447       2.63288857
Si      -3.23423833       2.64959995       6.76466978
Si      -1.22945928       4.10787807       3.27363940
Si      -1.51859142      -2.53224927       7.44693189
22
Lattice="5.53140898587689 -0.6526113519172282 -1.3769275107951273 -2.3632171035237874 11.575820033035471 -2.3186371790114055 -4.650039942911544 -5.821343561102009 10.864455992611909" Properties=species:S:1:pos:R:3 unique_starting_index=18 config_type=initial n_minim_iter=16 stress="1.5140302049487616e-05 -4.647632091959508e-06 -4.310422382077574e-06 -4.647632091959508e-06 -1.1715560868442884e-06 -5.391793604960193e-06 -4.310422382077574e-06 -5.391793604960193e-06 -1.3414358872188941e-05" pbc="T T T"
Si       0.23047771      10.49098547      -1.30892073
Si      -1.53192730      -1.38855836       5.65865094
Si      -3.84639960      -3.93562349       9.51731439
Si       0.17252063      -3.13919417       8.58012130
Si      -5.43121931      -0.51087816       8.85936033
Si       4.31339549       2.27121590      -0.23650164
Si       2.41022018       1.01991599       0.05592990
Si      -2.01097788       1.73780016       8.24384149
Si      -1.77229562      -3.85825357       9.08110672
Si      -2.55493962       0.90818373       5.75986195
Si       1.19110537      -0.73719591       2.85520990
Si      -2.96727720       3.43559756       4.80735075
Si      -3.23412137      -3.05996861       6.32300878
Si      -0.76174876       7.54806772      -1.18771939
Si       1.19160441       1.19832464       3.73497917
Si       0.90024065       8.60348238      -2.00862954
Si      -0.92135719      -1.71549951       3.21203263
Si       2.56552268      -5.41589134       6.20180096
Si       0.29071537       2.76949913       2.63272602
Si      -3.23435732       2.64947675       6.76427644
Si      -1.22957013       4.10791153       3.27330678
Si      -1.51811882      -2.53283715       7.44636411
22
Lattice="5.5314046877449465 -0.6527588733728877 -1.3767899902176783 -2.3635895283926005 11.576340465553589 -2.318914634118045 -4.649706674370301 -5.821692217781007 10.86423599603952" Properties=species:S:1:pos:R:3 unique_starting_index=18 config_type=initial n_minim_iter=17 stress="1.5889331992858826e-05 -1.0372420837970551e-06 -1.1163297999548556e-06 -1.0372420837970551e-06 -1.96301531689524e-06 -1.651211744507667e-05 -1.1163297999548556e-06 -1.651211744507667e-05 4.628856884050082e-06" pbc="T T T"
Si       0.23011971      10.49122628      -1.30916999
Si      -1.53158976      -1.38863015       5.65845945
Si      -3.84595302      -3.93566859       9.51710764
Si       0.17302413      -3.13947123       8.57987325
Si      -5.43097525      -0.51096275       8.85913530
Si       4.31345911       2.27121716      -0.23635458
Si       2.41016976       1.02014567       0.05593804
Si      -2.01109555       1.73783080       8.24363134
Si      -1.77171689      -3.85842769       9.08099487
Si      -2.55513672       0.90795411       5.75956405
Si       1.19086564      -0.73730878       2.85522032
Si      -2.96739615       3.43565288       4.80705832
Si      -3.23398194      -3.06035315       6.32300685
Si      -0.76239969       7.54840805      -1.18792758
Si       1.19154548       1.19829480       3.73485984
Si       0.89969937       8.60363876      -2.00874416
Si      -0.92152512      -1.71549996       3.21203461
Si       2.56592529      -5.41634780       6.20190567
Si       0.29086509       2.76966824       2.63263301
Si      -3.23439616       2.64936180       6.76394148
Si      -1.22962131       4.10798979       3.27300287
Si      -1.51753860      -2.53356496       7.44572209
22
Lattice="5.531354660307798 -0.6529377732225526 -1.3766403882655522 -2.3639424591880553 11.577035678266299 -2.3189907485200645 -4.649270527229697 -5.821930969014925 10.86399468885014" Properties=species:S:1:pos:R:3 unique_starting_index=18 config_type=initial n_minim_iter=18 stress="1.43207346597221e-05 1.0054320109538098e-05 9.922308858604768e-06 1.0054320109538098e-05 1.85316607891425e-05 -1.83570017867085e-05 9.922308858604768e-06 -1.83570017867085e-05 -3.06850417149606e-05" pbc="T T T"
Si       0.22974935      10.49161583      -1.30922120
Si      -1.53120221      -1.38859755       5.65828669
Si      -3.84531549      -3.93559006       9.51689561
Si       0.17366603      -3.13964315       8.57973970
Si      -5.43066506      -0.51088076       8.85895985
Si       4.31355952       2.27126879      -0.23606051
Si       2.41011398       1.02043324       0.05598063
Si      -2.01114370       1.73806126       8.24354711
Si      -1.77113041      -3.85848860       9.08078144
Si      -2.55533186       0.90785113       5.75932760
Si       1.19061249      -0.73735816       2.85526314
Si      -2.96741086       3.43591085       4.80689122
Si      -3.23383997      -3.06066272       6.32295009
Si      -0.76307768       7.54887388      -1.18799384
Si       1.19145935       1.19836619       3.73480143
Si       0.89914648       8.60398612      -2.00857840