22
Lattice="6.130559916868764 -0.08634621282099554 -0.8231110429257426 -0.7287845046075077 9.674920785687403 -2.4693787443036133 -3.4694471905736597 -6.811756380717978 12.999247875072822" Properties=species:S:1:pos:R:3 unique_starting_index=51 config_type=initial n_minim_iter=1 energy=-3592.1270437810076 free_energy=-3592.1270437810076 pbc="T T T"
Si       3.09157892       8.00039036       0.63791221
Si      -2.18734380      -0.12748457       6.90115557
Si       0.59838055       8.25631285      -2.84765940
Si      -1.49301241       4.67032928       1.89662709
Si      -0.25207486      -0.86923420       6.37270914
Si       4.69379463       0.02527688       4.08390688
Si      -0.14598906       1.30215749       1.61540255
Si       0.15744763       1.93898937      -0.38516896
Si       0.93703760      -2.53482358       5.86302499
Si       3.19708734      -0.36243925       8.08232930
Si      -2.02014680       1.51913722       8.22912682
Si       4.70516602       1.42317932       2.46568371
Si      -0.26995917       3.16132602       2.63532790
Si       1.32432938      -4.03924931      12.99719904
Si       2.30912033      -2.18626576       9.80588155
Si       4.36621346       6.39943833       2.14070337
Si       1.48568053       0.52257398       0.47356275
Si       2.97550663       3.07187657       8.11925635
Si       1.87912771      -0.70390504       6.45445829
Si      -0.23490016      -1.57152768       4.37437695
Si       3.41950449       1.35819993       0.78055618
Si       2.69460330      -1.05744896       1.20361482
22
Lattice="6.1326064130180935 -0.08899224504083857 -0.8289606205646488 -0.7316082794896491 9.677239599725523 -2.475288952698749 -3.478415092357714 -6.817690348808858 13.012186967190106" Properties=species:S:1:pos:R:3 unique_starting_index=51 config_type=initial n_minim_iter=2 stress="0.0006898771143463454 -0.0003939535561245308 -0.002056116302339743 -0.0003939535561245308 0.002077248833038139 -0.000948420691956954 -0.002056116302339743 -0.000948420691956954 0.0019864177370151233" pbc="T T T"
Si       3.08808408       7.99887950       0.63099197
Si      -2.19401864      -0.13031607       6.90673029
Si       0.59686220       8.25770237      -2.85421734
Si      -1.49747038       4.67062347       1.89636536
Si      -0.25751176      -0.87274268       6.37629658
Si       4.69111034       0.02052501       4.08161302
Si      -0.14786541       1.30132630       1.61544560
Si       0.15702378       1.93926694      -0.38666432
Si       0.93307853      -2.53872924       5.86626313
Si       3.19055736      -0.36855729       8.08344376
Si      -2.02848993       1.51544649       8.23377870
Si       4.70343706       1.41963656       2.46204573
Si      -0.27413029       3.15996016       2.63479086
Si       1.31495914      -4.04728061      13.00446813
Si       2.30187741      -2.19302323       9.80932791
Si       4.36200067       6.39619789       2.13412104
Si       1.48523629       0.52172932       0.47202876
Si       2.96718186       3.06629497       8.11860184
Si       1.87415879      -0.70856996       6.45632257
Si      -0.23835677      -1.57390754       4.37756025
Si       3.41836907       1.35595009       0.77692721
Si       2.69449276      -1.05931782       1.20219664
22
Lattice="6.131985447438058 -0.09072839834654006 -0.8284241997131966 -0.7346238686548774 9.669656090743189 -2.4754872502705356 -3.4755528472365316 -6.812515395018897 13.0075054594631" Properties=species:S:1:pos:R:3 unique_starting_index=51 config_type=initial n_minim_iter=3 stress="-0.006596883364164804 -0.0029264751564174723 -0.001317223639357608 -0.0029264751564174723 -0.00837492606210724 -0.002720995764692984 -0.001317223639357608 -0.002720995764692984 -0.006069755784365527" pbc="T T T"
Si       3.08631299       7.99090690       0.62986830
Si      -2.19361819      -0.13068291       6.90449372
Si       0.59397520       8.25014521      -2.85446789
Si      -1.49890238       4.66766412       1.89526584
Si      -0.25738017      -0.87270667       6.37356794
Si       4.69087785       0.01842920       4.08025838
Si      -0.14781515       1.29990512       1.61465283
Si       0.15675271       1.93768937      -0.38670136
Si       0.93363792      -2.53757648       5.86403385
Si       3.19045934      -0.37006500       8.08036037
Si      -2.02798919       1.51344762       8.23000076
Si       4.70373767       1.41689674       2.46124864
Si      -0.27531241       3.15657828       2.63293111
Si       1.31628577      -4.04586183      12.99996927
Si       2.30262301      -2.19303927       9.80501148
Si       4.35960795       6.38873344       2.13243689
Si       1.48444668       0.52109185       0.47160720
Si       2.96607433       3.06222509       8.11497415
Si       1.87460909      -0.70945694       6.45416784
Si      -0.23820608      -1.57294288       4.37621600
Si       3.41687499       1.35357046       0.77597466
Si       2.69429321      -1.05873101       1.20159187
22
Lattice="6.138182635183143 -0.09080130416984909 -0.8266073064750878 -0.7359432780153768 9.669831588846412 -2.4735379406521445 -3.47486558053392 -6.809090726272105 13.00908917756989" Properties=species:S:1:pos:R:3 unique_starting_index=51 config_type=initial n_minim_iter=4 stress="0.0033748991115087256 -0.0024974195794838323 0.0028204778887347013 -0.0024974195794838323 -0.0034405943238385596 -0.00232588119843056 0.0028204778887347013 -0.00232588119843056 0.002530185832078888" pbc="T T T"
Si       3.09193329       7.99157128       0.63385170
Si      -2.19360063      -0.12920205       6.90762879
Si       0.59351213       8.24852773      -2.85354148
Si      -1.49999796       4.67001306       1.89754438
Si      -0.25614896      -0.87061845       6.37551758
Si       4.69754289       0.01980216       4.08398296
Si      -0.14657822       1.30013646       1.61572991
Si       0.15752908       1.93791218      -0.38607288
Si       0.93605873      -2.53580871       5.86556859
Si       3.19642473      -0.36707183       8.08485659
Si      -2.02608829       1.51576222       8.23285469
Si       4.71178174       1.41827076       2.46484865
Si      -0.27497896       3.15708888       2.63425311
Si       1.32179562      -4.04183614      13.00475996
Si       2.30847300      -2.18979386       9.80777461
Si       4.36505459       6.38945965       2.13674761
Si       1.48511637       0.52195375       0.47217084
Si       2.97201567       3.06614754       8.12019919
Si       1.87929353      -0.70749643       6.45787591
Si      -0.23776936      -1.57151879       4.37774980
Si       3.41944768       1.35392585       0.77693754
Si       2.69697646      -1.05697853       1.20206464
22
Lattice="6.137424596283022 -0.08900198743949621 -0.8285902337736225 -0.7313995101610982 9.672999747959466 -2.4677975363442557 -3.481468844770342 -6.807356537131247 13.002737236359234" Properties=species:S:1:pos:R:3 unique_starting_index=51 config_type=initial n_minim_iter=5 stress="6.770442645535458e-05 0.000150304207040746 -0.00024400556524024813 0.000150304207040746 -0.0019689396112893224 0.00022641726252390187 -0.00024400556524024813 0.00022641726252390187 -0.0006702535275998695" pbc="T T T"
Si       3.09509994       7.99652912       0.63635059
Si      -2.19577942      -0.12721004       6.90674070
Si       0.59725957       8.25053919      -2.84931549
Si      -1.49890092       4.67318300       1.89991719
Si      -0.25910916      -0.86796233       6.37306129
Si       4.69542332       0.02344459       4.08127011
Si      -0.14631607       1.30131413       1.61586040
Si       0.15868059       1.93885587      -0.38498258
Si       0.93244556      -2.53380488       5.86188749
Si       3.19265048      -0.36211087       8.08103424
Si      -2.02754000       1.51958237       8.23155608
Si       4.71151159       1.42183588       2.46296205
Si      -0.27485959       3.15958255       2.63459744
Si       1.31531380      -4.03709674      12.99836902
Si       2.30375943      -2.18516357       9.80193668
Si       4.36583909       6.39487628       2.13757508
Si       1.48430110       0.52324769       0.47154314
Si       2.96965350       3.07298922       8.11791198
Si       1.87656944      -0.70413556       6.45517735
Si      -0.24024069      -1.57019568       4.37585449
Si       3.41855747       1.35611481       0.77589269
Si       2.69533357      -1.05508882       1.19978178
22
Lattice="6.135311946316389 -0.09114670260591291 -0.8272246869696751 -0.7352176343257987 9.681279753718016 -2.469668305882193 -3.4751446524923097 -6.813962360779255 13.002313407080365" Properties=species:S:1:pos:R:3 unique_starting_index=51 config_type=initial n_minim_iter=6 stress="-0.003176066639539107 -0.002643052861279343 0.0015607480847967049 -0.002643052861279343 0.0034232929508371027 -0.001467265260428861 0.0015607480847967049 -0.001467265260428861 -0.0012674707142717376" pbc="T T T"
Si       3.09227785       8.00092952       0.63510919
Si      -2.19341707      -0.12880400       6.90702588
Si       0.59311971       8.25641472      -2.85137601
Si      -1.50000985       4.67762085       1.89868366
Si      -0.25764873      -0.86965585       6.37315341
Si       4.69474269       0.02089898       4.08253562
Si      -0.14590298       1.30182382       1.61570688
Si       0.15793970       1.94123351      -0.38521931
Si       0.93356345      -2.53716315       5.86201610
Si       3.19317235      -0.36502995       8.08156375
Si      -2.02472675       1.51984279       8.23028811
Si       4.71062205       1.42022805       2.46216954
Si      -0.27502189       3.16174243       2.63311500
Si       1.31851819      -4.04396125      12.99870156
Si       2.30588944      -2.18940185       9.80063027
Si       4.36253526       6.39777117       2.13742535
Si       1.48300223       0.52308909       0.47159651
Si       2.96937946       3.07286954       8.11688610
Si       1.87737091      -0.70707798       6.45598634
Si      -0.23849300      -1.57205999       4.37600905
Si       3.41714423       1.35594310       0.77684146
Si       2.69446170      -1.05562742       1.19966475
22
Lattice="6.142762716099575 -0.08991582483059053 -0.8298489045564431 -0.7335157203595635 9.671107944084374 -2.471669061148597 -3.4850391863561168 -6.808604050748179 13.01109186328324" Properties=species:S:1:pos:R:3 unique_starting_index=51 config_type=initial n_minim_iter=7 stress="0.00014524385472630975 0.001046668669727626 -2.3784011013396634e-05 0.001046668669727626 -0.000912489175349382 -0.0019158959323495703 -2.3784011013396634e-05 -0.0019158959323495703 -0.0006115867433943123" pbc="T T T"
Si       3.09927080       7.99116100       0.63258322
Si      -2.19787347      -0.13253840       6.91548064
Si       0.59519218       8.24605260      -2.85637254
Si      -1.50244817       4.67388834       1.90011885
Si      -0.26101420      -0.86896640       6.37838099
Si       4.69869014       0.02121966       4.08471083
Si      -0.14497033       1.30023979       1.61657007
Si       0.15880057       1.94202530      -0.38534502
Si       0.93010116      -2.53435827       5.86487468
Si       3.19319853      -0.36441752       8.08611741
Si      -2.02689017       1.51700085       8.23567218
Si       4.71656670       1.41739165       2.45810582
Si      -0.27432963       3.15864926       2.63248152
Si       1.31347467      -4.04320389      13.00642454
Si       2.30477724      -2.18686741       9.80065683
Si       4.36772140       6.39136760       2.13756884
Si       1.48260376       0.52264092       0.47081634
Si       2.97105644       3.06920215       8.11856845
Si       1.87619550      -0.70814221       6.46121498
Si      -0.23929615      -1.57037553       4.37936942
Si       3.42116693       1.35538247       0.77809598
Si       2.69496143      -1.04944174       1.19691462
22
Lattice="6.14470254130131 -0.0966337799693308 -0.8303734552467358 -0.743225769163899 9.66439246371758 -2.4641780860338587 -3.479556476683439 -6.789980546233068 13.010838948235909" Properties=species:S:1:pos:R:3 unique_starting_index=51 config_type=initial n_minim_iter=8 stress="-0.001472429303302551 -0.003803024729051124 -0.0003973356221824073 -0.003803024729051124 -0.0006093386778488739 0.004527810879134983 -0.0003973356221824073 0.004527810879134983 0.00421900541030731" pbc="T T T"
Si       3.09368530       7.98308715       0.63912446
Si      -2.19794118      -0.12637745       6.92110538
Si       0.58659294       8.23800649      -2.85181998
Si      -1.50796182       4.67447744       1.90469775
Si      -0.26051779      -0.86243824       6.38137380
Si       4.69982093       0.02047563       4.08749232
Si      -0.14496933       1.30111197       1.61765555
Si       0.15686131       1.94266217      -0.38327115
Si       0.93167605      -2.52843844       5.86542333
Si       3.19397025      -0.36000484       8.09002426
Si      -2.02723463       1.52551409       8.24131631
Si       4.71715784       1.41260256       2.45911505
Si      -0.27647673       3.16011908       2.63537217
Si       1.31730684      -4.03203347      13.00899299
Si       2.30755434      -2.17870837       9.79960721
Si       4.36227686       6.38617862       2.14547698
Si       1.48181126       0.52170423       0.47073911
Si       2.96950708       3.07116045       8.12408813
Si       1.87642871      -0.70500515       6.46514768
Si      -0.23693016      -1.56473005       4.38071292
Si       3.41913904       1.35135005       0.78098649
Si       2.69555334      -1.04743633       1.19471849
22
Lattice="6.1540747237702185 -0.10185522931039111 -0.8265617871219331 -0.7541302566527466 9.659443521175502 -2.4637691850688297 -3.4724855850568983 -6.784518692970519 12.99902662577138" Properties=species:S:1:pos:R:3 unique_starting_index=51 config_type=initial n_minim_iter=9 stress="0.003861118539219215 -0.001670938955571504 -0.0005066341240331562 -0.001670938955571504 0.004711121944073139 0.0005652988069216414 -0.0005066341240331562 0.0005652988069216414 -0.0028165990621546997" pbc="T T T"
Si       3.09557088       7.97199493       0.63691861
Si      -2.19602062      -0.13130333       6.92127377
Si       0.57706119       8.23201450      -2.85379967
Si      -1.51460122       4.67199954       1.90023128
Si      -0.25741557      -0.86234914       6.37793061
Si       4.70873561       0.01647075       4.08922420
Si      -0.14181806       1.30030376       1.61381767
Si       0.15484586       1.94750588      -0.38148320
Si       0.93579205      -2.52790776       5.86226213
Si       3.20216717      -0.36353676       8.08668145
Si      -2.02256435       1.52573727       8.23496314
Si       4.72620010       1.40259202       2.45626947
Si      -0.27515614       3.15998676       2.62955575
Si       1.32945742      -4.03475689      13.00010228
Si       2.31829161      -2.17914843       9.78338048
Si       4.36310984       6.37992442       2.14874720
Si       1.48193360       0.52130729       0.46845468
Si       2.97780957       3.06364032       8.11631379
Si       1.88067037      -0.71004148       6.46551802
Si      -0.23137263      -1.56165445       4.37980719
Si       3.41774993       1.34476638       0.78588329
Si       2.69812263      -1.04137842       1.19044584
22
Lattice="6.150229086047464 -0.10080774532458285 -0.8255429941156828 -0.7530808717469527 9.654964679984076 -2.468144210760075 -3.4676074069331215 -6.784023640479718 13.011676976369792" Properties=species:S:1:pos:R:3 unique_starting_index=51 config_type=initial n_minim_iter=10 stress="-0.0011708893443848015 0.00029611034467436005 0.000670941359545535 0.00029611034467436005 0.0035938362097433104 -0.00040828248513598113 0.000670941359545535 -0.00040828248513598113 0.0030729202216910425" pbc="T T T"
Si       3.09644386       7.96738406       0.63637123
Si      -2.19202136      -0.13462322       6.92904603
Si       0.57661563       8.22844756      -2.85842326
Si      -1.51284369       4.66884229       1.90028272
Si      -0.25569390      -0.86299069       6.38484110
Si       4.70704166       0.01638815       4.09540095
Si      -0.14022472       1.29952160       1.61444617
Si       0.15495378       1.94837846      -0.38173905
Si       0.93611603      -2.52767639       5.86911525
Si       3.20214668      -0.36465969       8.09591284
Si      -2.01735056       1.52349028       8.24251370
Si       4.72484088       1.40090662       2.45895087
Si      -0.27295742       3.15831518       2.63069859
Si       1.33195082      -4.03574361      13.01399859
Si       2.31956258      -2.17909807       9.79095827
Si       4.36148433       6.37720598       2.15186701
Si       1.48045282       0.52167322       0.46820486
Si       2.97955225       3.06047872       8.12336575
Si       1.88056661      -0.71132952       6.47377630
Si      -0.23009273      -1.56076775       4.38457365
Si       3.41447328       1.34370860       0.78852851
Si       2.69594441      -1.03864392       1.19121552
22
Lattice="6.161863234157835 -0.11093010169918556 -0.8232608985577571 -0.7708776666692846 9.640670920737344 -2.4630695180635795 -3.4581786651335404 -6.760810121886315 13.008696307025758" Properties=species:S:1:pos:R:3 unique_starting_index=51 config_type=initial n_minim_iter=11 stress="0.001400955015625882 0.0003925275438074354 0.0004115769156165891 0.0003925275438074354 0.0030280958075271547 -0.00032414529961082846 0.0004115769156165891 -0.00032414529961082846 0.0006928949277924431" pbc="T T T"
Si       3.09661168       7.94740861       0.63996415
Si      -2.18923872      -0.13475900       6.93616139
Si       0.56253171       8.21504346      -2.85251085
Si      -1.52391378       4.66448116       1.90096674
Si      -0.25292066      -0.85699349       6.38789143
Si       4.71700892       0.01138049       4.10294826
Si      -0.13925488       1.29997694       1.61335293
Si       0.15334773       1.95293692      -0.37910794
Si       0.94404858      -2.52375097       5.87274600
Si       3.20957428      -0.36704737       8.10045210
Si      -2.01378982       1.53107966       8.24697496
Si       4.73476006       1.38877565       2.45852007
Si      -0.27489344       3.15657482       2.63083880
Si       1.34511703      -4.02799134      13.01787477
Si       2.33196661      -2.17151191       9.77882377
Si       4.35636735       6.36170458       2.16173308
Si       1.47629105       0.52087158       0.46025934
Si       2.98738871       3.05469248       8.12263392
Si       1.88494117      -0.71107066       6.48234337
Si      -0.22729615      -1.54965161       4.38590916
Si       3.41475093       1.33548109       0.79694711
Si       2.70042035      -1.03313144       1.18603631
22
Lattice="6.180302377583196 -0.1328412483834709 -0.8184769396274241 -0.8062810084806571 9.59661928759851 -2.433909952458963 -3.434083634828561 -6.678239184368104 13.000336210704248" Properties=species:S:1:pos:R:3 unique_starting_index=51 config_type=initial n_minim_iter=12 stress="0.0032460438685673197 0.00027186011518449125 -0.0006801762167062374 0.00027186011518449125 0.006412140441416334 0.004655119706229926 -0.0006801762167062374 0.004655119706229926 0.00690348122764338" pbc="T T T"
Si       3.09314402       7.89916121       0.66312512
Si      -2.17668939      -0.12088089       6.96123797
Si       0.53261363       8.17404155      -2.81955566
Si      -1.54638646       4.66100279       1.91757265
Si      -0.24476217      -0.83064877       6.39773280
Si       4.73384810       0.01114702       4.12697589
Si      -0.13661178       1.30061090       1.61960674
Si       0.15149764       1.96720243      -0.37180288
Si       0.94886241      -2.50426733       5.87689619
Si       3.22259696      -0.35624003       8.11880784
Si      -2.00011654       1.55827683       8.26832133
Si       4.75285608       1.36538908       2.46407628
Si      -0.27786055       3.15714538       2.64125351
Si       1.37289680      -3.97795500      13.03108612
Si       2.35797035      -2.13048474       9.74820390
Si       4.34682222       6.32160812       2.19841603
Si       1.46586701       0.52536468       0.44314992
Si       3.00427456       3.05803796       8.12134065
Si       1.89252592      -0.69092113       6.51030446
Si      -0.21266717      -1.51383429       4.39881637
Si       3.40537414       1.31633630       0.82396027
Si       2.70934985      -1.01674651       1.17427485
22
Lattice="6.195242325474093 -0.144474772369086 -0.8061002549912796 -0.8277722516063869 9.554909352221948 -2.402501931613066 -3.4074292310442864 -6.606595317661306 12.96257858390489" Properties=species:S:1:pos:R:3 unique_starting_index=51 config_type=initial n_minim_iter=13 stress="-0.0030272829938391716 0.0018281515282036022 0.0013964932499869922 0.0018281515282036022 -0.0007341351699847822 0.003597049668932145 0.0013964932499869922 0.003597049668932145 0.000649471920215851" pbc="T T T"
Si       3.10674234       7.86101613       0.68902281
Si      -2.15832825      -0.10570501       6.96949619
Si       0.51040454       8.13270101      -2.78767845
Si      -1.55742789       4.65195270       1.92598889
Si      -0.22314229      -0.81156899       6.39867428
Si       4.75260764       0.01781072       4.14277485
Si      -0.12866290       1.29883336       1.62145646
Si       0.14853798       1.98570233      -0.36618396
Si       0.95100556      -2.47930503       5.87059253
Si       3.24385463      -0.33913393       8.12695328
Si      -1.97694296       1.57269044       8.26823063
Si       4.76810213       1.34758650       2.47518322
Si      -0.27387535       3.16048872       2.64307876
Si       1.40411690      -3.92648613      13.02301091
Si       2.38923927      -2.08930011       9.69954560
Si       4.34790909       6.28889773       2.23170236
Si       1.45827390       0.53195048       0.42386912
Si       3.03255857       3.06696598       8.10970544
Si       1.90096121      -0.66787399       6.52209945
Si      -0.20218468      -1.48434497       4.39586957
Si       3.40177963       1.30699831       0.84955102
Si       2.72198745      -0.99975752       1.16955759
22
Lattice="6.2130985097288915 -0.15009865472458278 -0.8022620864844393 -0.8372899755791008 9.536275821214678 -2.378007331106276 -3.4076795213469646 -6.566850832275909 12.924653035720025" Properties=species:S:1:pos:R:3 unique_starting_index=51 config_type=initial n_minim_iter=14 stress="-0.00046812433912416716 0.0016734072282981233 -0.0011518541515428914 0.0016734072282981233 -0.0034351586326027174 0.0027457825310084616 -0.0011518541515428914 0.0027457825310084616 -0.0005429203482123651" pbc="T T T"
Si       3.11927089       7.84689642       0.70433445
Si      -2.15268864      -0.09308465       6.96319230
Si       0.50179206       8.11155272      -2.76795750
Si      -1.56555393       4.64869059       1.93023187
Si      -0.21941938      -0.79792560       6.39311958
Si       4.76864564       0.01970437       4.14635916
Si      -0.12582107       1.30047479       1.62262256
Si       0.14453318       2.00046194      -0.36219314
Si       0.95163167      -2.46413059       5.85925697
Si       3.25371389      -0.32639598       8.12417482
Si      -1.97272185       1.58208991       8.25996227
Si       4.78288801       1.34622394       2.47152892
Si      -0.27599887       3.15984474       2.64307331
Si       1.41475215      -3.89446318      12.99839240
Si       2.40381225      -2.06403495       9.65540813
Si       4.35281803       6.27522417       2.24624551
Si       1.46364376       0.53590277       0.41303461
Si       3.04901982       3.07578068       8.09271107
Si       1.90378152      -0.65203301       6.51729353
Si      -0.20036771      -1.46889584       4.38504454
Si       3.40136801       1.30278152       0.86065124
Si       2.73205958      -0.98906861       1.16482533
22
Lattice="6.222538229820273 -0.14824917616098532 -0.7996516461507086 -0.8351560755476937 9.539091839421252 -2.367958895273188 -3.414304857466123 -6.565683056344235 12.889052971144416" Properties=species:S:1:pos:R:3 unique_starting_index=51 config_type=initial n_minim_iter=15 stress="-0.0016476848067570543 0.0014531754585878093 0.0014370520432954107 0.0014531754585878093 -0.0006245000109025726 0.0012379256613612027 0.0014370520432954107 0.0012379256613612027 -0.0023828196465276934" pbc="T T T"
Si       3.13041017       7.85238890       0.70657747
Si      -2.14996631      -0.09176059       6.95094278
Si       0.50424769       8.11246957      -2.75806445
Si      -1.56643658       4.65054671       1.92650966
Si      -0.22087638      -0.79731999       6.38077138
Si       4.77804584       0.01853808       4.13955222
Si      -0.11974706       1.30202614       1.61601525
Si       0.14256102       2.01298707      -0.35985048
Si       0.94898581      -2.46305434       5.84716738
Si       3.25471349      -0.32618900       8.10958283
Si      -1.97019767       1.58150611       8.24207751
Si       4.78995504       1.35006829       2.46742939
Si      -0.27312728       3.16022134       2.63960238
Si       1.41086195      -3.89534933      12.96464442
Si       2.40951431      -2.05842695       9.61401753
Si       4.36144326       6.27754397       2.24584278
Si       1.46837513       0.53978075       0.40796045
Si       3.06043407       3.07935134       8.06684718
Si       1.90483330      -0.64748619       6.50591520
Si      -0.20147501      -1.46620006       4.37277009
Si       3.40189026       1.30672603       0.85980834
Si       2.73440579      -0.98205052       1.16001377
22
Lattice="6.240925373009602 -0.1449236247079466 -0.8031594458593743 -0.8292089066100172 9.539083483161269 -2.356995697486791 -3.4410086801668727 -6.564930074458541 12.850504617354282" Properties=species:S:1:pos:R:3 unique_starting_index=51 config_type=initial n_minim_iter=16 stress="3.4585468715701724e-05 0.001313937235318112 0.0009147805291217593 0.001313937235318112 0.00035284219053368114 -0.00218985474088701 0.0009147805291217593 -0.00218985474088701 0.0014163561065986406" pbc="T T T"
Si       3.14478656       7.85808034       0.70517882
Si      -2.15731817      -0.09266886       6.94044071
Si       0.51293429       8.11246166      -2.74719930
Si      -1.56927981       4.64676223       1.92030576
Si      -0.22791185      -0.79969481       6.36828593
Si       4.78892172       0.01690720       4.12211377
Si      -0.11425006       1.30406482       1.61219025
Si       0.14616145       2.02446757      -0.35648356
Si       0.93945377      -2.46253632       5.83436003
Si       3.24980305      -0.32670360       8.08840880
Si      -1.97857689       1.57702839       8.22572604
Si       4.80343677       1.35585336       2.45276212
Si      -0.27303093       3.15531671       2.63396641
Si       1.39224348      -3.89481821      12.92322009
Si       2.40888690      -2.05218513       9.55577492
Si       4.37817485       6.28132987       2.24115785
Si       1.46818912       0.55085775       0.39982995
Si       3.07023558       3.07956082       8.02771561
Si       1.89709590      -0.64414255       6.48998465
Si      -0.20626423      -1.46591315       4.35637679
Si       3.40341531       1.31117002       0.85427834
Si       2.73761661      -0.97262208       1.15116897
22
Lattice="6.2723279732472745 -0.14813006943653279 -0.8056973005829601 -0.8334842225118384 9.545706041365104 -2.331654050378375 -3.4694677665092457 -6.55332492272302 12.783230766609085" Properties=species:S:1:pos:R:3 unique_starting_index=51 config_type=initial n_minim_iter=17 stress="0.0012771933501417995 -0.0020068123402525754 0.0023192487542750173 -0.0020068123402525754 0.004307275726045468 -0.001864153728044732 0.0023192487542750173 -0.001864153728044732 0.005697907292441275" pbc="T T T"
Si       3.16169007       7.87063496       0.71307768
Si      -2.16596783      -0.08809788       6.92034868
Si       0.51522405       8.11883913      -2.72051368
Si      -1.57984902       4.65416139       1.91793597
Si      -0.23529144      -0.79909807       6.34455820
Si       4.80896912       0.01433907       4.09554564
Si      -0.11320160       1.31245766       1.60922765
Si       0.14809363       2.04329383      -0.35074771
Si       0.93533520      -2.46030732       5.81456849
Si       3.25112519      -0.32188456       8.05647127
Si      -1.99045015       1.58053003       8.20347812
Si       4.82486721       1.35848804       2.43354584
Si      -0.27348967       3.15832668       2.62684389
Si       1.38145639      -3.89012687      12.85646434
Si       2.41673103      -2.03835714       9.46584339
Si       4.40213443       6.28867226       2.23656833
Si       1.47136040       0.56181907       0.39009849
Si       3.08513087       3.08807314       7.97159293
Si       1.88693897      -0.63757754       6.46360809
Si      -0.21551511      -1.46576363       4.33294930
Si       3.40536995       1.31456553       0.84818789
Si       2.74523150      -0.96057011       1.13804289
22
Lattice="6.343413745246935 -0.15997147245044785 -0.8105558957448092 -0.8501632910359841 9.530847849645788 -2.2667733106974826 -3.5265242633602134 -6.493036610248997 12.630313029830806" Properties=species:S:1:pos:R:3 unique_starting_index=51 config_type=initial n_minim_iter=18 stress="0.006388336384943028 -0.0038584577626052546 -0.0011985540692347556 -0.0038584577626052546 0.015521296038169239 -0.009221433316661034 -0.0011985540692347556 -0.009221433316661034 0.018810732790172327" pbc="T T T"
Si       3.19839263       7.87175643       0.73694980
Si      -2.16994208      -0.08204487       6.87999905
Si       0.50661321       8.11271422      -2.65414758
Si      -1.60702847       4.65886488       1.91663471
Si      -0.25900783      -0.78934318       6.29628604
Si       4.85620419       0.00708392       4.04742259
Si      -0.09846671       1.31826825       1.59849329
Si       0.15197340       2.09217978      -0.33643477
Si       0.92433707      -2.44564443       5.77372399
Si       3.25321589      -0.30494196       7.99091557
Si      -2.00844928       1.58563208       8.16803532
Si       4.86645929       1.35922664       2.38988459
Si      -0.27434795       3.16616061       2.61577031
Si       1.35825306      -3.85198748      12.71415635
Si       2.44288061      -1.98890953       9.23888529
Si       4.45362965       6.27446559       2.23533271
Si       1.46837230       0.58692525       0.35758676
Si       3.12373590       3.10323850       7.84568328