12
Lattice="7.129148392757985 -0.06618674140147703 -0.3404733377471291 -1.6811794145006338 7.100543531639277 1.145445056604996 -1.0890300021754276 0.47672553664337197 7.169786968913058" Properties=species:S:1:pos:R:3 unique_starting_index=44 config_type=initial n_minim_iter=1 energy=-1963.6785505941125 free_energy=-1963.6785505941125 pbc="T T T"
Si      -1.24563634       3.79822735       5.77139327
Si      -0.05539400       4.08345169       4.03380685
Si      -0.74280533       5.75738151       5.11730109
Si       1.90442225       3.38111314       4.48073462
Si       6.07521093       5.33726391       6.82775201
Si       3.87930855       3.03288619       5.26053733
Si       5.69208303       3.37348422      -0.07831797
Si      -0.48359207       4.28618332       1.95762291
Si       0.20886978       2.34565033       5.20748394
Si       5.30408448       2.83167284       3.65593489
Si       0.81453336       0.29721132       5.32885207
Si       2.25942606       1.73100513       5.75349761
12
Lattice="7.125483252389089 -0.08523086892207267 -0.35075398721206014 -1.7005472300221016 7.096057521746483 1.154428727842748 -1.1015016305329164 0.4907452677153555 7.1373539772607755" Properties=species:S:1:pos:R:3 unique_starting_index=44 config_type=initial n_minim_iter=2 stress="-0.01391853902349886 -0.006922208866994073 -0.0005305639615820262 -0.006922208866994073 -0.01864306232623311 -0.0020707415942750164 -0.0005305639615820262 -0.0020707415942750164 -0.029902885631053863" pbc="T T T"
Si      -1.26330717       3.80639339       5.75186149
Si      -0.07401281       4.08303327       4.01748314
Si      -0.76669477       5.75975431       5.10450565
Si       1.88907900       3.37888295       4.46106589
Si       6.04620318       5.32407702       6.79341887
Si       3.85875520       3.02624539       5.23253918
Si       5.67948373       3.35359946      -0.08122234
Si      -0.49789440       4.28388591       1.95790400
Si       0.19333079       2.34884948       5.18599982
Si       5.28875491       2.82103211       3.63406948
Si       0.80451071       0.30367350       5.30184241
Si       2.24430628       1.73204506       5.72426724
12
Lattice="7.137918312849404 -0.09182746085702409 -0.3592290197886893 -1.7106038281118283 7.11165802240682 1.168306800200345 -1.1118031134885609 0.5034063834306161 7.1466712919509625" Properties=species:S:1:pos:R:3 unique_starting_index=44 config_type=initial n_minim_iter=3 stress="0.0024379456751212705 -0.010096476233272198 -0.006067995170904773 -0.010096476233272198 0.002267427967166763 0.005676871922291732 -0.006067995170904773 0.005676871922291732 -0.012432694218326327" pbc="T T T"
Si      -1.27362817       3.82317351       5.76552705
Si      -0.08251239       4.09531462       4.02495872
Si      -0.77941786       5.77978994       5.12080749
Si       1.88689469       3.39073232       4.46823697
Si       6.04444785       5.33826766       6.80182754
Si       3.85495248       3.03544499       5.23674838
Si       5.68566239       3.35483446      -0.08188465
Si      -0.50508596       4.29453069       1.96861626
Si       0.18476542       2.35919413       5.19535046
Si       5.29226907       2.82846538       3.63618895
Si       0.79971801       0.31194690       5.30676639
Si       2.24050028       1.74178213       5.73006986
12
Lattice="7.1287966162969365 -0.07804728507555303 -0.3535075728851618 -1.6941634815865907 7.093799828289904 1.164347888534065 -1.103411868382216 0.4963656917058657 7.154788560870757" Properties=species:S:1:pos:R:3 unique_starting_index=44 config_type=initial n_minim_iter=4 stress="0.0010997559600810945 0.00017554315394368992 -0.005728110179774639 0.00017554315394368992 -0.008052726975931688 0.001993032940378433 -0.005728110179774639 0.001993032940378433 -0.005357935583387768" pbc="T T T"
Si      -1.25619730       3.80961409       5.77082681
Si      -0.07137703       4.08427551       4.02429715
Si      -0.76445226       5.76634271       5.12582460
Si       1.89879721       3.38680624       4.47273600
Si       6.05333061       5.33394578       6.81313915
Si       3.85755506       3.03222704       5.24203174
Si       5.68336318       3.35908469      -0.07812926
Si      -0.49632747       4.28373132       1.97063072
Si       0.19053859       2.34964841       5.20260774
Si       5.29578477       2.83344896       3.64424069
Si       0.80398930       0.31047725       5.31373869
Si       2.24654331       1.73879100       5.73818453
12
Lattice="7.117518574831737 -0.08227417683727524 -0.3394674959661626 -1.6936942247908158 7.104420183386839 1.157337517996584 -1.088042886847217 0.49414332816701556 7.151215365351316" Properties=species:S:1:pos:R:3 unique_starting_index=44 config_type=initial n_minim_iter=5 stress="-0.0038572355874604823 -0.0013710476264064953 -0.001883883441573849 -0.0013710476264064953 0.0001580397079238238 0.0003919392480658961 -0.001883883441573849 0.0003919392480658961 -0.005188198814872324" pbc="T T T"
Si      -1.24411586       3.81250491       5.76647790
Si      -0.06472914       4.08868547       4.02014295
Si      -0.75745204       5.77379113       5.12166436
Si       1.90372845       3.38903141       4.47346500
Si       6.05459470       5.33341851       6.82217159
Si       3.85994239       3.03106325       5.24541869
Si       5.67121129       3.36043198      -0.06849283
Si      -0.49591325       4.28903885       1.96734462
Si       0.19881180       2.34890676       5.20136159
Si       5.29334983       2.83407276       3.65297552
Si       0.81328211       0.30811620       5.31422063
Si       2.25360079       1.73628151       5.74061257
12
Lattice="7.1310557539779165 -0.09208424119662947 -0.31771160240824425 -1.703416374338718 7.092762752916326 1.1542710685656576 -1.0689208872782274 0.49647074804632096 7.150050834982537" Properties=species:S:1:pos:R:3 unique_starting_index=44 config_type=initial n_minim_iter=6 stress="0.004409323823421255 -0.0024100230403719153 0.003729268491185331 -0.0024100230403719153 -0.0054105101067043904 0.001778727612564398 0.003729268491185331 0.001778727612564398 -0.00634456305484836" pbc="T T T"
Si      -1.23149161       3.80895380       5.76833431
Si      -0.05176569       4.08409057       4.02118943
Si      -0.75316371       5.76476951       5.12455574
Si       1.91878980       3.38288517       4.47950886
Si       6.08163193       5.31326890       6.84671966
Si       3.88066048       3.02055481       5.25574135
Si       5.67235547       3.34508683      -0.05026586
Si      -0.50318797       4.28048995       1.96653022
Si       0.21279719       2.34171945       5.20345079
Si       5.31060230       2.82624255       3.67143323
Si       0.83160134       0.30884440       5.31882748
Si       2.27336191       1.72813638       5.74906095
12
Lattice="7.118558815237621 -0.10266551888997583 -0.3199478206161368 -1.7114460383160683 7.0873564151353765 1.1536773470721875 -1.0696673910388321 0.49551628008182136 7.156539652237762" Properties=species:S:1:pos:R:3 unique_starting_index=44 config_type=initial n_minim_iter=7 stress="-0.004853637202083423 -0.005546854616988904 0.0005562781866316094 -0.005546854616988904 -0.0025128440323957256 -0.0055474533621440334 0.0005562781866316094 -0.0055474533621440334 0.005238101014452766" pbc="T T T"
Si      -1.23335250       3.80265224       5.77692020
Si      -0.04822710       4.08136282       4.02381263
Si      -0.76432722       5.75926500       5.12971742
Si       1.91179949       3.37838366       4.47895307
Si       6.06339663       5.29349685       6.85297089
Si       3.86979522       3.01088922       5.25434496
Si       5.64799555       3.33166567      -0.05321765
Si      -0.52104021       4.27306875       1.96644860
Si       0.20776332       2.33482880       5.20514412
Si       5.29631334       2.82171636       3.67216284
Si       0.82948057       0.30718338       5.32459604
Si       2.26523838       1.71627647       5.75211010
12
Lattice="7.119494777361301 -0.0960008463701077 -0.3098703660243238 -1.7027855282225963 7.09226382418682 1.1657922709167137 -1.0600820521556273 0.5124291781560284 7.1354066092573225" Properties=species:S:1:pos:R:3 unique_starting_index=44 config_type=initial n_minim_iter=8 stress="-0.000543351371290718 0.009124165332189292 0.0015705027685565891 0.009124165332189292 0.0019136066731855943 0.0009187274462531069 0.0015705027685565891 0.0009187274462531069 -0.0002810107910978115" pbc="T T T"
Si      -1.21727246       3.81192717       5.77225340
Si      -0.02682458       4.09840975       4.02341214
Si      -0.75393270       5.77547904       5.12924193
Si       1.92602696       3.39516976       4.47471183
Si       6.08264989       5.31698942       6.85895099
Si       3.88289220       3.03122943       5.24708795
Si       5.64048727       3.33736106      -0.03852272
Si      -0.52908039       4.27569844       1.97178724
Si       0.21690898       2.34833750       5.19267404
Si       5.30614928       2.84770654       3.67449233
Si       0.83836363       0.32227564       5.31291588
Si       2.27504356       1.72940140       5.74012318
12
Lattice="7.134454754001779 -0.12700338884193382 -0.27254959648374577 -1.7309723513829414 7.087243695904648 1.1714333502387317 -1.0271560452075188 0.5313416983898116 7.1265137877997855" Properties=species:S:1:pos:R:3 unique_starting_index=44 config_type=initial n_minim_iter=9 stress="0.0012798383992777402 0.008808494696470326 0.015966847175235614 0.008808494696470326 0.004975478416406221 -0.0010734547280836554 0.015966847175235614 -0.0010734547280836554 0.024389986617827538" pbc="T T T"
Si      -1.19450322       3.80681253       5.78100130
Si      -0.00485448       4.11391851       4.03553362
Si      -0.75669515       5.77839494       5.13412757
Si       1.95264676       3.38979556       4.48686913
Si       6.11867862       5.28794909       6.90759576
Si       3.90913317       3.02371372       5.26306770
Si       5.60950602       3.30181323      -0.00568547
Si      -0.57616205       4.26277139       1.98261624
Si       0.23589519       2.35304866       5.18700735
Si       5.33481253       2.85318540       3.70025022
Si       0.87028866       0.32819075       5.31954568
Si       2.30409418       1.72012102       5.74487504
12
Lattice="7.147533145074746 -0.12841642739254922 -0.270361475418532 -1.7355610594312139 7.090818862814918 1.1613411704874914 -1.0276806653776722 0.5238743713650043 7.114713077921572" Properties=species:S:1:pos:R:3 unique_starting_index=44 config_type=initial n_minim_iter=10 stress="0.01700214123885526 0.01430259620692063 0.0121598978881695 0.01430259620692063 0.022788227406749444 -0.014533087714491959 0.0121598978881695 -0.014533087714491959 0.022544441784298264" pbc="T T T"
Si      -1.19395016       3.79923180       5.77183010
Si       0.00062402       4.11869147       4.02480653
Si      -0.75890901       5.77656583       5.11910744
Si       1.95923495       3.38647986       4.47585262
Si       6.13226301       5.27854926       6.89480812
Si       3.91753243       3.02032567       5.25045703
Si       5.61124718       3.30230466      -0.00901962
Si      -0.58927842       4.25966278       1.97922617
Si       0.23832921       2.34709833       5.17387898
Si       5.34792497       2.85729159       3.68943033
Si       0.87350311       0.32129650       5.31222028
Si       2.30982561       1.71187257       5.73239360
12
Lattice="7.133854806753963 -0.13537843103055933 -0.26038766259985285 -1.736460347486951 7.086682096798529 1.1874120975838298 -1.0155335271174801 0.5521590126735476 7.119528180056379" Properties=species:S:1:pos:R:3 unique_starting_index=44 config_type=initial n_minim_iter=11 stress="0.007952013244556145 0.013560956562365074 0.006655688609503218 0.013560956562365074 0.020745678027481555 -0.007838579043508855 0.006655688609503218 -0.007838579043508855 0.0418101997807692" pbc="T T T"
Si      -1.18031322       3.80812989       5.80098101
Si       0.02043193       4.14760171       4.04325714
Si      -0.75620305       5.78907676       5.14261451
Si       1.96396256       3.39629095       4.49357552
Si       6.13128471       5.28037439       6.93533644
Si       3.91730257       3.03752077       5.26430407
Si       5.57859407       3.29472545       0.01089161
Si      -0.62227765       4.25044065       2.01346511
Si       0.25013981       2.35992381       5.17784529
Si       5.35151023       2.88549574       3.69943485
Si       0.88019761       0.33808282       5.32074475
Si       2.31572998       1.72503555       5.73859669
12
Lattice="7.16469244186348 -0.1568625620846494 -0.22043754584894368 -1.756845402529246 7.097645880529215 1.2243553776599703 -0.9833541058476885 0.6089787792834935 7.069722434216369" Properties=species:S:1:pos:R:3 unique_starting_index=44 config_type=initial n_minim_iter=12 stress="0.011107533354681648 0.003415240219474963 0.005853344086933053 0.003415240219474963 0.02599695890001986 -0.00428620454253536 0.005853344086933053 -0.00428620454253536 0.044667632684338224" pbc="T T T"
Si      -1.15348488       3.83703020       5.80311855
Si       0.05986668       4.20049699       4.05681967
Si      -0.75270824       5.83114928       5.15204305
Si       1.99915039       3.43300344       4.48784903
Si       6.18244121       5.28094972       6.98163338
Si       3.96212095       3.07652130       5.26137906
Si       5.57109460       3.29225654       0.06618349
Si      -0.69501577       4.24129336       2.05640861
Si       0.27039356       2.39858130       5.14335889
Si       5.41828021       2.94543186       3.69825263
Si       0.91053646       0.35769544       5.29399766
Si       2.36395888       1.74552776       5.71634666
12
Lattice="7.152408511331372 -0.15072940908165197 -0.20689264899659024 -1.7440935087996048 7.109716211236349 1.254889635448686 -0.9680207156818331 0.6453806720113447 7.0505998405192445" Properties=species:S:1:pos:R:3 unique_starting_index=44 config_type=initial n_minim_iter=13 stress="0.012575988089052128 0.007781757954473575 0.0020544470433401852 0.007781757954473575 0.03741328549904631 -0.0035414313936525292 0.0020544470433401852 -0.0035414313936525292 0.0448568328279736" pbc="T T T"
Si      -1.13835782       3.86462014       5.80274494
Si       0.07709375       4.24030900       4.07013435
Si      -0.73886147       5.85813155       5.16964332
Si       2.01947754       3.46763402       4.48980366
Si       6.19216738       5.31824165       7.01541987
Si       3.97873397       3.12058490       5.26584205
Si       5.55722499       3.30756198       0.08964333
Si      -0.71832981       4.24260179       2.08782026
Si       0.28005685       2.41658527       5.13551824
Si       5.43391428       2.99752353       3.70102285
Si       0.91409209       0.38325382       5.28551848
Si       2.38292492       1.77052083       5.70956109
12
Lattice="7.16778823260076 -0.15972609793752554 -0.17082800358766423 -1.7500082319504995 7.082952389156075 1.2784798908224657 -0.9365817926747636 0.6832953656261209 7.003857272708359" Properties=species:S:1:pos:R:3 unique_starting_index=44 config_type=initial n_minim_iter=14 stress="0.015810869788710914 0.009310753300592072 -0.003660664493654941 0.009310753300592072 0.016673737289693458 -0.0019073666430148304 -0.003660664493654941 -0.0019073666430148304 0.027281211274524517" pbc="T T T"
Si      -1.11474178       3.86512411       5.77913737
Si       0.11260641       4.26341567       4.06963209
Si      -0.73168668       5.86648040       5.17989965
Si       2.05759661       3.47472113       4.48214935
Si       6.24001796       5.30478259       7.05454861
Si       4.02478279       3.14668753       5.26041532
Si       5.54674974       3.29246719       0.12666572
Si      -0.77925640       4.20715429       2.12776649
Si       0.30442869       2.41938562       5.10451935
Si       5.48146692       3.04072370       3.69661577
Si       0.93255730       0.40025810       5.26247071
Si       2.43636111       1.77534199       5.68420492
12
Lattice="7.170253399436214 -0.1639068882145627 -0.1572658029502086 -1.7523423139598484 7.083911659578518 1.2831557560188052 -0.9243918633183533 0.6943522376003298 6.985094093314895" Properties=species:S:1:pos:R:3 unique_starting_index=44 config_type=initial n_minim_iter=15 stress="0.015809745826188954 0.008801691464753722 0.0009088546546103045 0.008801691464753722 0.01463400485484202 -0.00039445883582073856 0.0009088546546103045 -0.00039445883582073856 0.023144315955521067" pbc="T T T"
Si      -1.10370734       3.87025360       5.76847805
Si       0.12528387       4.27618503       4.06665039
Si      -0.72854648       5.87235409       5.17648548
Si       2.06864098       3.48026029       4.47696158
Si       6.25425269       5.30355569       7.06429024
Si       4.03537104       3.15602775       5.25487709
Si       5.54116726       3.29171191       0.14100267
Si      -0.79926558       4.20031284       2.13761301
Si       0.31259190       2.42444281       5.09120966
Si       5.49512991       3.05684112       3.69367341
Si       0.94033063       0.40632459       5.25491986
Si       2.45480543       1.77577390       5.67367117
12
Lattice="7.174102581554354 -0.16420960666893078 -0.17420673599873382 -1.7573598001213082 7.07569682494478 1.2620053452459832 -0.9435418593005883 0.6730939549511692 6.957729021962069" Properties=species:S:1:pos:R:3 unique_starting_index=44 config_type=initial n_minim_iter=16 stress="0.005172232602895661 0.004982863828175709 -0.005154145529170594 0.004982863828175709 -0.004761541747406931 -0.001311143525375858 -0.005154145529170594 -0.001311143525375858 -0.0020313056897484703" pbc="T T T"
Si      -1.11903072       3.85443573       5.72926106
Si       0.11274476       4.26257301       4.03317023
Si      -0.74653489       5.85101779       5.14012714
Si       2.05491843       3.45525233       4.44629668
Si       6.23661176       5.27328137       7.01587416
Si       4.01403751       3.13949096       5.20813695
Si       5.55385549       3.29495391       0.12386547
Si      -0.81153780       4.18336505       2.12080615
Si       0.29846588       2.41462081       5.06115384
Si       5.48621054       3.04676193       3.65172077
Si       0.92350265       0.39291683       5.24108292
Si       2.45656933       1.75459188       5.63441515
12
Lattice="7.1818369895945855 -0.15823399544665998 -0.16205743194946726 -1.7521086947625857 7.067501417497107 1.2462473311546323 -0.932671515405574 0.6598995525956518 6.948435910401375" Properties=species:S:1:pos:R:3 unique_starting_index=44 config_type=initial n_minim_iter=17 stress="-0.003832183823560989 0.0017694263201970557 -0.001128894619206138 0.0017694263201970557 -0.005687484834215731 0.0010938583327057408 -0.001128894619206138 0.0010938583327057408 -0.012440012389069404" pbc="T T T"
Si      -1.11351240       3.84763357       5.71852730
Si       0.12114576       4.24601455       4.01677407
Si      -0.73685223       5.83896613       5.12117399
Si       2.05823752       3.44338065       4.43901477
Si       6.25911783       5.26150206       7.01242937
Si       4.02695951       3.13308734       5.20367587
Si       5.57150483       3.29521600       0.12297448
Si      -0.80151696       4.17456049       2.11430297
Si       0.30662816       2.41037808       5.05082945
Si       5.50066610       3.04310122       3.65269595
Si       0.93319065       0.38837383       5.24817414
Si       2.47977681       1.74086287       5.62671374
12
Lattice="7.191187140815275 -0.15788197954115785 -0.1558061015468844 -1.753104928989047 7.053553592536978 1.2458951198350963 -0.9281795828936382 0.6611822798010014 6.940014771961708" Properties=species:S:1:pos:R:3 unique_starting_index=44 config_type=initial n_minim_iter=18 stress="-0.004114948857470069 -0.0010796928093369954 0.0007159119428194767 -0.0010796928093369954 -0.011425331566943964 0.006510993362259686 0.0007159119428194767 0.006510993362259686 -0.014585285332576158" pbc="T T T"
Si      -1.11372738       3.84311256       5.71636874
Si       0.13172227       4.24284461       4.01298602
Si      -0.73600533       5.83538960       5.11537515
Si       2.06147026       3.43395520       4.43669190
Si       6.27411225       5.24935698       7.01762548
Si       4.03621292       3.13260225       5.19739574
Si       5.57910930       3.28941577       0.12901581
Si      -0.81022831       4.16104658       2.11106331
Si       0.30744870       2.40331725       5.04384128
Si       5.51522337       3.04661158       3.65301012
Si       0.94050868       0.38973292       5.25478733
Si       2.49744704       1.73308710       5.61449970
12
Lattice="7.199369993052494 -0.1650708013483406 -0.1578933322395246 -1.7628876988835245 7.041808263962803 1.2406869579815214 -0.9313772151206505 0.6535017387554435 6.954745503331333" Properties=species:S:1:pos:R:3 unique_starting_index=44 config_type=initial n_minim_iter=19 stress="-0.0023715285714825877 -0.008934078122483377 0.001974428685811586 -0.008934078122483377 0.004594476225811963 0.0014106649912135794 0.001974428685811586 0.0014106649912135794 0.00317854000214803" pbc="T T T"
Si      -1.12182942       3.83791830       5.72095350
Si       0.12990122       4.23617908       4.01483762
Si      -0.74678307       5.82905035       5.11977098
Si       2.04841710       3.41514542       4.44235392
Si       6.27376755       5.22586314       7.02876663
Si       4.03512554       3.12317848       5.19883903
Si       5.58167501       3.27633118       0.12265182
Si      -0.81143889       4.15194209       2.10835658
Si       0.29515834       2.39143557       5.05186579
Si       5.51567896       3.03206531       3.66046919
Si       0.94654907       0.37743631       5.28271294
Si       2.50949412       1.70917254       5.61307220
12
Lattice="7.2081032893767185 -0.15011274128951219 -0.17073851591288386 -1.7524099223011436 7.02371559133765 1.237986166972372 -0.9446569605606505 0.6446231503811074 6.955895467073713" Properties=species:S:1:pos:R:3 unique_starting_index=44 config_type=initial n_minim_iter=20 stress="0.0017031554677777324 -0.005367077197244298 -0.0019284059747409414 -0.005367077197244298 0.001282084135715377 -0.0029060526667930805 -0.0019284059747409414 -0.0029060526667930805 0.0005883078464270409" pbc="T T T"
Si      -1.13081058       3.83135042       5.71507985
Si       0.12413179       4.22902115       4.01947408
Si      -0.74499813       5.82811082       5.12093991
Si       2.04093001       3.39695459       4.43801251
Si       6.27781566       5.21445357       7.01154881
Si       4.03458097       3.13318231       5.18337922
Si       5.59397456       3.28106933       0.10736357
Si      -0.79855644       4.14129588       2.10339225
Si       0.28274238       2.37833671       5.04564199
Si       5.51991659       3.03476698       3.64659095
Si       0.94537270       0.37925811       5.30563735
Si       2.52352755       1.68558631       5.58933101
12
Lattice="7.214303734964122 -0.1188808139662939 -0.1855610832133413 -1.725351566514909 6.9919364214818644 1.2398812691058714 -0.95858444242769 0.6372712639950189 6.953938122235374" Properties=species:S:1:pos:R:3 unique_starting_index=44 config_type=initial n_minim_iter=21 stress="0.0008665925551606753 -0.006469026854828303 0.00176100007092035 -0.006469026854828303 0.007500446034862427 -0.012792120345562869 0.00176100007092035 -0.012792120345562869 -0.007894614821088332" pbc="T T T"
Si      -1.14443427       3.82421122       5.69915144
Si       0.12034964       4.23166450       4.03109933
Si      -0.73142559       5.83096476       5.13732221
Si       2.03244106       3.37083016       4.43047904
Si       6.29358725       5.21241503       6.99656867
Si       4.03838097       3.16387705       5.15540706
Si       5.60954419       3.29752641       0.09467619
Si      -0.77943922       4.11730378       2.10827250
Si       0.26349597       2.36503352       5.03192165
Si       5.52603090       3.05656639       3.62019153
Si       0.94923039       0.37589914       5.35412183
Si       2.57237545       1.64437934       5.54070353
