22
Lattice="5.422498409425021 -1.648232816717064e-35 3.3338404139478804e-23 2.4902388938323985e-35 8.194409019014897 8.930894939297153e-16 -1.0533798822989398e-22 -1.8673124334198074e-15 17.133245827811884" Properties=species:S:1:pos:R:3 unique_starting_index=32 config_type=initial n_minim_iter=1 energy=-3568.23059163073 free_energy=-3568.23059163073 pbc="T T T"
Si       1.79616310       0.85326551       9.19353407
Si       3.62633531       7.34114351       9.19353407
Si       1.79616310       3.24393900       0.62691116
Si       3.62633531       4.95047002       0.62691116
Si       5.01763941       2.56186938      16.15977593
Si       0.40485899       5.63253964      16.15977593
Si       5.01763941       1.53533513       7.59315301
Si       0.40485899       6.65907389       7.59315301
Si       3.95128389       2.77328561      12.45884210
Si       1.47121451       5.42112340      12.45884210
Si       3.95128389       1.32391889       3.89221918
Si       1.47121451       6.87049012       3.89221918
Si       1.74137680       4.92159188      10.41578725
Si       3.68112161       3.27281714      10.41578725
Si       1.74137680       7.37002165       1.84916434
Si       3.68112161       0.82438737       1.84916434
Si       2.02720127       0.80842915       3.16712722
Si       3.39529714       7.38597987       3.16712722
Si       2.02720127       3.28877536      11.73375014
Si       3.39529714       4.90563366      11.73375014
Si       2.71124920       4.09720451       2.76590631
Si       2.71124920      -0.00000000      11.33252923
22
Lattice="5.476870296521458 -1.6706662345650383e-35 3.458309540811292e-23 2.4749765008636363e-35 8.173494144593342 8.838501578316015e-16 -1.0217201271718638e-22 -1.876734136250407e-15 17.08617336168146" Properties=species:S:1:pos:R:3 unique_starting_index=32 config_type=initial n_minim_iter=2 stress="0.03487786608449439 6.370753334486381e-16 7.383250328780988e-16 6.370753334486381e-16 0.011983696797461927 6.834652388597456e-17 7.383250328780988e-16 6.834652388597456e-17 0.01576519503878243" pbc="T T T"
Si       1.80380044       0.83890776       9.16474355
Si       3.67306985       7.33458638       9.16474355
Si       1.80380044       3.24783931       0.62165687
Si       3.67306985       4.92565483       0.62165687
Si       5.07626753       2.57035318      16.11426055
Si       0.40060277       5.60314096      16.11426055
Si       5.07626753       1.51639389       7.57117387
Si       0.40060277       6.65710025       7.57117387
Si       3.98428986       2.77415409      12.42505208
Si       1.49258044       5.39934005      12.42505208
Si       3.98428986       1.31259298       3.88196540
Si       1.49258044       6.86090116       3.88196540
Si       1.77200269       4.90293198      10.38150449
Si       3.70486761       3.27056217      10.38150449
Si       1.77200269       7.35730924       1.83841781
Si       3.70486761       0.81618490       1.83841781
Si       2.04960603       0.80772630       3.17034577
Si       3.42726426       7.36576784       3.17034577
Si       2.04960603       3.27902077      11.71343246
Si       3.42726426       4.89447337      11.71343246
Si       2.73843515       4.08674707       2.75421827
Si       2.73843515      -0.00000000      11.29730495
22
Lattice="5.543678867838698 -1.7187334193867794e-35 3.981010460677696e-23 2.409377218508167e-35 8.095515176840106 8.849145096084279e-16 -8.577346947539602e-23 -1.8360011517179703e-15 16.895750216104325" Properties=species:S:1:pos:R:3 unique_starting_index=32 config_type=initial n_minim_iter=3 stress="0.013576234231644222 1.3667985699729714e-15 -1.1670509244505759e-15 1.3667985699729714e-15 -0.013884882283301812 3.557464810370866e-17 -1.1670509244505759e-15 3.557464810370866e-17 -0.001494570101778255" pbc="T T T"
Si       1.80139003       0.80283100       9.05448072
Si       3.74228884       7.29268418       9.05448072
Si       1.80139003       3.24492659       0.60660561
Si       3.74228884       4.85058859       0.60660561
Si       5.15776954       2.58042903      15.93211000
Si       0.38590933       5.51508615      15.93211000
Si       5.15776954       1.46732856       7.48423489
Si       0.38590933       6.62818662       7.48423489
Si       4.01709009       2.76611993      12.28744471
Si       1.52658877       5.32939525      12.28744471
Si       4.01709009       1.28163766       3.83956961
Si       1.52658877       6.81387752       3.83956961
Si       1.82539640       4.84200104      10.25354304
Si       3.71828247       3.25351414      10.25354304
Si       1.82539640       7.30127172       1.80566794
Si       3.71828247       0.79424345       1.80566794
Si       2.08128407       0.80225344       3.16178945
Si       3.46239480       7.29326174       3.16178945
Si       2.08128407       3.24550415      11.60966455
Si       3.46239480       4.85001103      11.60966455
Si       2.77183943       4.04775759       2.71411931
Si       2.77183943      -0.00000000      11.16199441
22
Lattice="5.562399982903728 -1.7065808058008337e-35 4.425689230588826e-23 2.4631957110763835e-35 8.18346951605162 1.0183321740214643e-15 -7.147338680097642e-23 -1.5674270136147643e-15 16.80789780307706" Properties=species:S:1:pos:R:3 unique_starting_index=32 config_type=initial n_minim_iter=4 stress="0.011857820294029472 6.085910666145469e-16 -3.576541001624924e-15 6.085910666145469e-16 0.040911235282546095 -2.650727713952971e-16 -3.576541001624924e-15 -2.650727713952971e-16 0.016659882781123275" pbc="T T T"
Si       1.78255961       0.78308616       8.99883466
Si       3.77984037       7.40038335       8.99883466
Si       1.78255961       3.30864860       0.59488576
Si       3.77984037       4.87482092       0.59488576
Si       5.19490401       2.64342289      15.84703280
Si       0.36749598       5.54004662      15.84703280
Si       5.19490401       1.44831187       7.44308390
Si       0.36749598       6.73515765       7.44308390
Si       4.01683779       2.81488799      12.22598039
Si       1.54556219       5.36858153      12.22598039
Si       4.01683779       1.27684677       3.82203148
Si       1.54556219       6.90662274       3.82203148
Si       1.86585502       4.88114431      10.18842624
Si       3.69654496       3.30232521      10.18842624
Si       1.86585502       7.39405997       1.78447734
Si       3.69654496       0.78940955       1.78447734
Si       2.09478220       0.81467882       3.17000105
Si       3.46761779       7.36879070       3.17000105
Si       2.09478220       3.27705594      11.57394996
Si       3.46761779       4.90641358      11.57394996
Si       2.78119999       4.09173476       2.69105583
Si       2.78119999      -0.00000000      11.09500473
22
Lattice="5.618118072770881 -1.7279215776937836e-35 4.806515674502979e-23 2.452974335448893e-35 8.17206234518714 9.241595693913637e-16 -6.016643843927111e-23 -1.7597457085772933e-15 16.789300378050836" Properties=species:S:1:pos:R:3 unique_starting_index=32 config_type=initial n_minim_iter=5 stress="0.00523207789687747 1.7591910740611901e-15 1.2566623057587398e-16 1.7591910740611901e-15 0.025035856569202517 4.2597757193528467e-16 1.2566623057587398e-16 4.2597757193528467e-16 0.022490664018154617" pbc="T T T"
Si       1.77405748       0.75340956       8.97865631
Si       3.84406059       7.41865279       8.97865631
Si       1.77405748       3.33262161       0.58400613
Si       3.84406059       4.83944073       0.58400613
Si       5.26713177       2.67422117      15.82863544
Si       0.35098630       5.49784118      15.82863544
Si       5.26713177       1.41181000       7.43398525
Si       0.35098630       6.76025234       7.43398525
Si       4.05151594       2.83018592      12.21949524
Si       1.56660213       5.34187642      12.21949524
Si       4.05151594       1.25584525       3.82484505
Si       1.56660213       6.91621710       3.82484505
Si       1.92122866       4.85779202      10.16889302
Si       3.69688941       3.31427032      10.16889302
Si       1.92122866       7.40030149       1.77424283
Si       3.69688941       0.77176085       1.77424283
Si       2.11894914       0.80737334       3.18257945
Si       3.49916894       7.36468901       3.18257945
Si       2.11894914       3.27865784      11.57722964
Si       3.49916894       4.89340451      11.57722964
Si       2.80905904       4.08603117       2.68051052
Si       2.80905904      -0.00000000      11.07516071
22
Lattice="5.702326832896807 -1.7389462342155814e-35 5.857153519518812e-23 2.490826629946489e-35 8.22490490217445 1.1743079091949366e-15 -2.4832175388555902e-23 -1.2060331049999476e-15 16.395592518612546" Properties=species:S:1:pos:R:3 unique_starting_index=32 config_type=initial n_minim_iter=6 stress="0.012402000212201739 1.9014543253008432e-16 -4.269822470744618e-17 1.9014543253008432e-16 0.018617129827720204 2.38616720874429e-16 -4.269822470744618e-17 2.38616720874429e-16 -0.015222806753193237" pbc="T T T"
Si       1.77382613       0.72937889       8.75761269
Si       3.92850071       7.49552601       8.75761269
Si       1.77382613       3.38307356       0.55981643
Si       3.92850071       4.84183134       0.55981643
Si       5.36656341       2.72543320      15.45756237
Si       0.33576342       5.49947170      15.45756237
Si       5.36656341       1.38701925       7.25976611
Si       0.33576342       6.83788565       7.25976611
Si       4.10837649       2.87019415      11.93763121
Si       1.59395034       5.35471075      11.93763121
Si       4.10837649       1.24225830       3.73983495
Si       1.59395034       6.98264660       3.73983495
Si       1.98335135       4.87538473       9.92462936
Si       3.71897549       3.34952017       9.92462936
Si       1.98335135       7.46197262       1.72683310
Si       3.71897549       0.76293228       1.72683310
Si       2.15000867       0.80584906       3.12311030
Si       3.55231817       7.41905585       3.12311030
Si       2.15000867       3.30660339      11.32090656
Si       3.55231817       4.91830151      11.32090656
Si       2.85116342       4.11245245       2.61034684
Si       2.85116342      -0.00000000      10.80814310
22
Lattice="5.81276559827908 -1.7342439540477522e-35 6.502407206884577e-23 2.568263173898116e-35 8.292362287001836 1.9323583018236626e-15 -8.012582263570779e-25 4.2514726170614927e-16 16.046277089278878" Properties=species:S:1:pos:R:3 unique_starting_index=32 config_type=initial n_minim_iter=7 stress="-0.000206945091156736 1.3277508774300807e-16 -1.1268500584463835e-16 1.3277508774300807e-16 -0.01497121384099313 1.9497303931883748e-16 -1.1268500584463835e-16 1.9497303931883748e-16 -0.01398227384142827" pbc="T T T"
Si       1.72788383       0.64787969       8.53705346
Si       4.08488177       7.64448259       8.53705346
Si       1.72788383       3.49830145       0.51391492
Si       4.08488177       4.79406084       0.51391492
Si       5.53211694       2.84620365      15.13391740
Si       0.28064865       5.44615864      15.13391740
Si       5.53211694       1.29997749       7.11077885
Si       0.28064865       6.99238479       7.11077885
Si       4.18102471       2.97234884      11.69220951
Si       1.63174088       5.32001345      11.69220951
Si       4.18102471       1.17383231       3.66907097
Si       1.63174088       7.11852998       3.66907097
Si       2.09510114       4.89834204       9.68676799
Si       3.71766446       3.39402025       9.68676799
Si       2.09510114       7.54020139       1.66362944
Si       3.71766446       0.75216089       1.66362944
Si       2.19092380       0.77712259       3.11220393
Si       3.62184180       7.51523970       3.11220393
Si       2.19092380       3.36905856      11.13534248
Si       3.62184180       4.92330373      11.13534248
Si       2.90638280       4.14618114       2.53504024
Si       2.90638280      -0.00000000      10.55817878
22
Lattice="5.649010751175317 -1.701117466667988e-35 6.575558481833307e-23 2.5114988234416404e-35 8.19157373174495 2.4571355676085255e-15 -8.103848380034993e-26 1.4821129705427258e-15 16.172284320803737" Properties=species:S:1:pos:R:3 unique_starting_index=32 config_type=initial n_minim_iter=8 stress="0.002524058125356623 7.009724166454321e-16 7.697599708360781e-18 7.009724166454321e-16 -0.017061597229510148 2.218909177041193e-15 7.697599708360781e-18 2.218909177041193e-15 0.002654346350514086" pbc="T T T"
Si       1.66734859       0.58316582       8.58025131
Si       3.98166216       7.60840791       8.58025131
Si       1.66734859       3.51262104       0.49410915
Si       3.98166216       4.67895269       0.49410915
Si       5.39118829       2.86957615      15.27828436
Si       0.25782246       5.32199758      15.27828436
Si       5.39118829       1.22621071       7.19214220
Si       0.25782246       6.96536302       7.19214220
Si       4.09095818       2.95186837      11.80252878
Si       1.55805257       5.23970536      11.80252878
Si       4.09095818       1.14391849       3.71638662
Si       1.55805257       7.04765524       3.71638662
Si       2.02121280       4.84642751       9.75451005
Si       3.62779795       3.34514622       9.75451005
Si       2.02121280       7.44093308       1.66836789
Si       3.62779795       0.75064065       1.66836789
Si       2.10372476       0.77911136       3.13266289
Si       3.54528600       7.41246237       3.13266289
Si       2.10372476       3.31667551      11.21880505
Si       3.54528600       4.87489822      11.21880505
Si       2.82450538       4.09578687       2.53918672
Si       2.82450538      -0.00000000      10.62532888
22
Lattice="5.431417688291165 -1.608773999785829e-35 6.624264521806476e-23 2.5806201843783965e-35 8.295026324729527 2.9559383793317184e-15 -8.074077101844643e-27 2.5097835171693486e-15 16.286605873999616" Properties=species:S:1:pos:R:3 unique_starting_index=32 config_type=initial n_minim_iter=9 stress="-0.01333466287059622 -3.029093961326754e-16 -1.923657175595025e-16 -3.029093961326754e-16 -0.00843419982303041 7.898462742658482e-16 -1.923657175595025e-16 7.898462742658482e-16 0.023815196847325415" pbc="T T T"
Si       1.58962740       0.48384784       8.59820638
Si       3.84179028       7.81117849       8.59820638
Si       1.58962740       3.66366532       0.45490344
Si       3.84179028       4.63136100       0.45490344
Si       5.20147502       3.01386638      15.43554840
Si       0.22994267       5.28115995      15.43554840
Si       5.20147502       1.13364679       7.29224546
Si       0.22994267       7.16137954       7.29224546
Si       3.98172718       3.00593192      11.91562783
Si       1.44969050       5.28909441      11.91562783
Si       3.98172718       1.14158124       3.77232490
Si       1.44969050       7.15344508       3.77232490
Si       1.89846308       4.92090387       9.81912096
Si       3.53295461       3.37412246       9.81912096
Si       1.89846308       7.52163562       1.67581802
Si       3.53295461       0.77339071       1.67581802
Si       2.00095577       0.78061945       3.13930805
Si       3.43046192       7.51440688       3.13930805
Si       2.00095577       3.36689371      11.28261098
Si       3.43046192       4.92813261      11.28261098
Si       2.71570884       4.14751316       2.52436077
Si       2.71570884      -0.00000000      10.66766371
22
Lattice="5.294915416461488 -1.6520940573465671e-35 6.606002121993982e-23 2.52684758088272e-35 8.538581047422678 3.7300930836084905e-15 -4.795836146779362e-28 4.249536492828316e-15 16.24112658855538" Properties=species:S:1:pos:R:3 unique_starting_index=32 config_type=initial n_minim_iter=10 stress="0.017839301273188113 -1.6798225441063283e-16 2.5994736477485904e-16 -1.6798225441063283e-16 0.03304980580897714 6.960263819959919e-16 2.5994736477485904e-16 6.960263819959919e-16 0.03287798989727176" pbc="T T T"
Si       1.54447186       0.34264389       8.51951971
Si       3.75044355       8.19593716       8.51951971
Si       1.54447186       3.92664664       0.39895641
Si       3.75044355       4.61193441       0.39895641
Si       5.08869021       3.24565358      15.46156917
Si       0.20622521       5.29292746      15.46156917
Si       5.08869021       1.02363694       7.34100587
Si       0.20622521       7.51494411       7.34100587
Si       3.93402701       3.12041238      11.93757288
Si       1.36088841       5.41816867      11.93757288
Si       3.93402701       1.14887814       3.81700959
Si       1.36088841       7.38970291       3.81700959
Si       1.79705532       5.09293140       9.79458919
Si       3.49786010       3.44564965       9.79458919
Si       1.79705532       7.71494017       1.67402589
Si       3.49786010       0.82364088       1.67402589
Si       1.94088397       0.78329246       3.08405897
Si       3.35403145       7.75528859       3.08405897
Si       1.94088397       3.48599807      11.20462226
Si       3.35403145       5.05258298      11.20462226
Si       2.64745771       4.26929052       2.46517131
Si       2.64745771      -0.00000000      10.58573460
22
Lattice="5.294816865385962 -1.8407269971053027e-35 6.547517717076453e-23 2.2771200389578477e-35 8.640066945720129 2.7026341367493692e-15 -5.356157072708321e-29 2.199344298247799e-15 16.097307109501685" Properties=species:S:1:pos:R:3 unique_starting_index=32 config_type=initial n_minim_iter=11 stress="0.04131593378762637 -7.476236949167484e-16 2.6102791233287016e-16 -7.476236949167484e-16 0.0070951830136722046 -2.4076528348095325e-16 2.6102791233287016e-16 -2.4076528348095325e-16 0.03865347421370731" pbc="T T T"
Si       1.52356820       0.27084569       8.41808879
Si       3.77124866       8.36922126       8.41808879
Si       1.52356820       4.04918778       0.36943524
Si       3.77124866       4.59087916       0.36943524
Si       5.11184913       3.35868433      15.34692266
Si       0.18296774       5.28138261      15.34692266
Si       5.11184913       0.96134914       7.29826910
Si       0.18296774       7.67871781       7.29826910
Si       3.93591299       3.19250180      11.85049072
Si       1.35890388       5.44756515      11.85049072
Si       3.93591299       1.12753167       3.80183716
Si       1.35890388       7.51253527       3.80183716
Si       1.80644294       5.14717747       9.70113792
Si       3.48837393       3.49288947       9.70113792
Si       1.80644294       7.81292295       1.65248437
Si       3.48837393       0.82714400       1.65248437
Si       1.93680785       0.77984088       3.06061550
Si       3.35800902       7.86022607       3.06061550
Si       1.93680785       3.54019259      11.10926906
Si       3.35800902       5.09987435      11.10926906
Si       2.64740843       4.32003347       2.41922398
Si       2.64740843      -0.00000000      10.46787754
22
Lattice="5.284013337180776 -2.1008116292012414e-35 6.533325081367933e-23 1.8956110013106806e-35 8.684176023798555 2.2894014530494395e-15 -4.03649491492792e-30 1.3573427364319951e-15 16.062410159773624" Properties=species:S:1:pos:R:3 unique_starting_index=32 config_type=initial n_minim_iter=12 stress="0.03201156227292658 -1.358668581965326e-16 7.841181455465694e-16 -1.358668581965326e-16 -0.008295071478907559 -5.514083761681132e-16 7.841181455465694e-16 -5.514083761681132e-16 0.02990103833886948" pbc="T T T"
Si       1.51728788       0.25240672       8.39293960
Si       3.76672545       8.43176931       8.39293960
Si       1.51728788       4.08968129       0.36173452
Si       3.76672545       4.59449473       0.36173452
Si       5.10658010       3.39151080      15.32090771
Si       0.17743323       5.29266522      15.32090771
Si       5.10658010       0.95057721       7.28970263
Si       0.17743323       7.73359881       7.28970263
Si       3.92674706       3.21753239      11.83020499
Si       1.35726628       5.46664363      11.83020499
Si       3.92674706       1.12455562       3.79899991
Si       1.35726628       7.55962040       3.79899991
Si       1.80218240       5.17003005       9.67849040
Si       3.48183094       3.51414597       9.67849040
Si       1.80218240       7.85623398       1.64728532
Si       3.48183094       0.82794204       1.64728532
Si       1.93021887       0.77903966       3.05352611
Si       3.35379447       7.90513637       3.05352611
Si       1.93021887       3.56304835      11.08473119
Si       3.35379447       5.12112767      11.08473119
Si       2.64200667       4.34208801       2.40660128
Si       2.64200667      -0.00000000      10.43780636
22
Lattice="5.332243814668497 -2.5188388901552587e-35 6.444628940693569e-23 1.4240792076348497e-35 9.039600183744856 2.6846868128778474e-15 -8.066035042896955e-32 2.286717909119727e-15 15.844347258728702" Properties=species:S:1:pos:R:3 unique_starting_index=32 config_type=initial n_minim_iter=13 stress="0.03590724630841354 -6.036515182560423e-16 2.05707042913401e-15 -6.036515182560423e-16 -0.016970658430986624 -1.8338958564477855e-16 2.05707042913401e-15 -1.8338958564477855e-16 0.011830225583994455" pbc="T T T"
Si       1.53663589       0.21200075       8.26634182
Si       3.79560792       8.82759943       8.26634182
Si       1.53663589       4.30779934       0.34416819
Si       3.79560792       4.73180085       0.34416819
Si       5.17978213       3.53830231      15.12819739
Si       0.15246169       5.50129788      15.12819739
Si       5.17978213       0.98149779       7.20602376
Si       0.15246169       8.05810240       7.20602376
Si       3.90212685       3.40458154      11.67888635
Si       1.43011697       5.63501865      11.67888635
Si       3.90212685       1.11521855       3.75671272
Si       1.43011697       7.92438163       3.75671272
Si       1.83533942       5.33079121       9.54419901
Si       3.49690440       3.70880897       9.54419901
Si       1.83533942       8.22860906       1.62202538
Si       3.49690440       0.81099112       1.62202538
Si       1.94238881       0.77135331       3.01873199
Si       3.38985500       8.26824687       3.01873199
Si       1.94238881       3.74844678      10.94090562
Si       3.38985500       5.29115340      10.94090562
Si       2.66612191       4.51980009       2.34256427
Si       2.66612191      -0.00000000      10.26473790
22
Lattice="5.175342433736647 -3.0004270063094055e-35 6.442700816667296e-23 7.31222548131562e-36 9.170164889225475 3.3318468736855637e-15 -1.1976129830328665e-33 3.671869662911738e-15 15.839606891896082" Properties=species:S:1:pos:R:3 unique_starting_index=32 config_type=initial n_minim_iter=14 stress="-0.03741773132521434 -1.4760826226852309e-15 4.689663459552429e-16 -1.4760826226852309e-15 -0.011854758670204552 -1.5971464680366e-16 4.689663459552429e-16 -1.5971464680366e-16 -0.002013587889534028" pbc="T T T"
Si       1.56113116       0.17895290       8.25934281
Si       3.61421127       8.99121199       8.25934281
Si       1.56113116       4.40612955       0.33953936
Si       3.61421127       4.76403534       0.33953936
Si       5.05396636       3.58497046      15.15756760
Si       0.12137608       5.58519443      15.15756760
Si       5.05396636       1.00011199       7.23776415
Si       0.12137608       8.17005290       7.23776415
Si       3.74173580       3.49251940      11.69130335
Si       1.43360664       5.67764549      11.69130335
Si       3.74173580       1.09256304       3.77149990
Si       1.43360664       8.07760185       3.77149990
Si       1.74649530       5.40047940       9.54261518
Si       3.42884713       3.76968549       9.54261518
Si       1.74649530       8.35476793       1.62281174
Si       3.42884713       0.81539696       1.62281174
Si       1.84750836       0.76687932       2.99512721
Si       3.32783407       8.40328557       2.99512721
Si       1.84750836       3.81820312      10.91493066
Si       3.32783407       5.35196177      10.91493066
Si       2.58767122       4.58508244       2.29416022
Si       2.58767122      -0.00000000      10.21396367
22
Lattice="5.289368827557472 -3.370789545008873e-35 6.280383694036974e-23 2.8646480145252574e-36 9.36869520023207 2.6630768580368337e-15 -1.1593951238705223e-39 2.4741040453211257e-15 15.440544528446429" Properties=species:S:1:pos:R:3 unique_starting_index=32 config_type=initial n_minim_iter=15 stress="-0.0063431202802206885 9.293233273212752e-16 8.391178936973401e-16 9.293233273212752e-16 0.011164519108109436 -1.6097495888824906e-16 8.391178936973401e-16 -1.6097495888824906e-16 -0.004551245385842347" pbc="T T T"
Si       1.60646422       0.14854275       8.04698492
Si       3.68290461       9.22015245       8.04698492
Si       1.60646422       4.53580485       0.32671266
Si       3.68290461       4.83289035       0.32671266
Si       5.20182871       3.65489097      14.81730630
Si       0.08754012       5.71380423      14.81730630
Si       5.20182871       1.02945663       7.09703404
Si       0.08754012       8.33923857       7.09703404
Si       3.79443510       3.58501105      11.41775885
Si       1.49493373       5.78368415      11.41775885
Si       3.79443510       1.09933655       3.69748658
Si       1.49493373       8.26935865       3.69748658
Si       1.78662223       5.52591908       9.28281387
Si       3.50274660       3.84277612       9.28281387
Si       1.78662223       8.52712372       1.56254161
Si       3.50274660       0.84157148       1.56254161
Si       1.90743818       0.75840200       2.91675022
Si       3.38193064       8.61029320       2.91675022
Si       1.90743818       3.92594560      10.63702248
Si       3.38193064       5.44274960      10.63702248
Si       2.64468441       4.68434760       2.16426496
Si       2.64468441      -0.00000000       9.88453722
22
Lattice="5.325732795992341 -3.3870608192610854e-35 6.330866670694095e-23 1.659389594465077e-36 9.195106909138172 3.1118167749643663e-15 -4.937539613096175e-42 3.3293673306689607e-15 15.564658704741564" Properties=species:S:1:pos:R:3 unique_starting_index=32 config_type=initial n_minim_iter=16 stress="0.0009780125189300093 -2.5187188847817035e-15 4.795407016033359e-16 -2.5187188847817035e-15 0.008817475953924472 -3.8763246773798913e-16 4.795407016033359e-16 -3.8763246773798913e-16 0.013995572686147926" pbc="T T T"
Si       1.59458155       0.16097770       8.10266695
Si       3.73115125       9.03412921       8.10266695
Si       1.59458155       4.43657576       0.32033760
Si       3.73115125       4.75853115       0.32033760
Si       5.23558621       3.57051834      14.94649334
Si       0.09014659       5.62458857      14.94649334
Si       5.23558621       1.02703512       7.16416398
Si       0.09014659       8.16807179       7.16416398
Si       3.83149843       3.49299752      11.50316590
Si       1.49423437       5.70210939      11.50316590
Si       3.83149843       1.10455593       3.72083655
Si       1.49423437       8.09055098       3.72083655
Si       1.80008453       5.43783256       9.36418093
Si       3.52564827       3.75727435       9.36418093
Si       1.80008453       8.35482780       1.58185157
Si       3.52564827       0.84027911       1.58185157
Si       1.92997174       0.76666521       2.93495672
Si       3.39576106       8.42844170       2.93495672
Si       1.92997174       3.83088825      10.71728607
Si       3.39576106       5.36421866      10.71728607
Si       2.66286640       4.59755345       2.18921935
Si       2.66286640      -0.00000000       9.97154871
22
Lattice="5.358049561224231 -3.369960078704203e-35 6.32974774115293e-23 1.1344619720303682e-36 9.05385410053341 2.7295936259432603e-15 -1.8934432449677161e-44 2.4921509844944643e-15 15.561907777052074" Properties=species:S:1:pos:R:3 unique_starting_index=32 config_type=initial n_minim_iter=17 stress="0.0007490306261139439 -6.37229486066602e-16 2.3678154754088034e-15 -6.37229486066602e-16 0.005121442062231279 -1.238568396381436e-15 2.3678154754088034e-15 -1.238568396381436e-15 -0.003517130844716568" pbc="T T T"
Si       1.60904057       0.14624623       8.09920550
Si       3.74900899       8.90760787       8.09920550
Si       1.60904057       4.38068082       0.31825162
Si       3.74900899       4.67317328       0.31825162
Si       5.26561331       3.49966392      14.96923803
Si       0.09243626       5.55419018      14.96923803
Si       5.26561331       1.02726313       7.18828414
Si       0.09243626       8.02659097       7.18828414
Si       3.85660110       3.42522131      11.50503748
Si       1.50144846       5.62863280      11.50503748
Si       3.85660110       1.10170575       3.72408359
Si       1.50144846       7.95214836       3.72408359
Si       1.80848791       5.36935064       9.36238019
Si       3.54956165       3.68450346       9.36238019
Si       1.80848791       8.21143051       1.58142630
Si       3.54956165       0.84242359       1.58142630
Si       1.94677942       0.77161775       2.92548777
Si       3.41127015       8.28223635       2.92548777
Si       1.94677942       3.75530930      10.70644166
Si       3.41127015       5.29854480      10.70644166
Si       2.67902478       4.52692705       2.15250094
Si       2.67902478      -0.00000000       9.93345483
22
Lattice="5.382329077132459 -3.369118938992198e-35 6.369850572685482e-23 8.534366731045592e-37 9.000113473340443 2.22205375825044e-15 -3.227914634485898e-46 1.383093569897296e-15 15.660502000934136" Properties=species:S:1:pos:R:3 unique_starting_index=32 config_type=initial n_minim_iter=18 stress="-0.0017275677183487123 -1.9350111465578564e-15 2.05453617184301e-15 -1.9350111465578564e-15 0.0010069107277846452 -1.135839890082665e-15 2.05453617184301e-15 -1.135839890082665e-15 -0.013669165572141182" pbc="T T T"
Si       1.62462824       0.13486542       8.14060295
Si       3.75770083       8.86524805       8.14060295
Si       1.62462824       4.36519132       0.31035195
Si       3.75770083       4.63492216       0.31035195
Si       5.29479111       3.46881629      15.08909463
Si       0.08753797       5.53129718      15.08909463
Si       5.29479111       1.03124044       7.25884363
Si       0.08753797       7.96887303       7.25884363
Si       3.87639527       3.39864227      11.57986377
Si       1.50593381       5.60147121      11.57986377
Si       3.87639527       1.10141447       3.74961277
Si       1.50593381       7.89869900       3.74961277