6
Lattice="4.962017355775583 -1.6116532355904199e-99 5.009694312849987e-51 1.6065993406284914e-99 4.962017355775583 5.0057973499560294e-51 -9.366676089863968e-51 -9.359389898954417e-51 9.277534001349542" Properties=species:S:1:pos:R:3 unique_starting_index=46 config_type=initial n_minim_iter=1 energy=-970.3954844354771 free_energy=-970.3954844354771 pbc="T T T"
Si       3.86797050       1.09404686       7.24964974
Si       1.09404686       3.86797050       7.24964974
Si       3.86797050       3.86797050       2.02788427
Si       1.09404686       1.09404686       2.02788427
Si       2.48100868       2.48100868       8.11267968
Si       2.48100868       2.48100868       1.16485433
6
Lattice="4.931364245034991 -1.6016971670070477e-99 4.942805799454846e-51 1.596575756974535e-99 4.931364245034991 5.037116806491909e-51 -9.491805678450811e-51 -9.301571799083588e-51 9.335580163149912" Properties=species:S:1:pos:R:3 unique_starting_index=46 config_type=initial n_minim_iter=2 stress="-0.0045173471326796074 5.58226782504745e-16 1.816039353173135e-16 5.58226782504745e-16 -0.004517347132679603 1.899114166170189e-16 1.816039353173135e-16 1.899114166170189e-16 -0.005807701428124943" pbc="T T T"
Si       3.84552207       1.08584217       7.29471543
Si       1.08584217       3.84552207       7.29471543
Si       3.84552207       3.84552207       2.04086474
Si       1.08584217       1.08584217       2.04086474
Si       2.46568212       2.46568212       8.16404531
Si       2.46568212       2.46568212       1.17153485
6
Lattice="4.897397640282054 -4.856244190245986e-64 5.258648826667989e-51 -2.9640971619707737e-64 4.897397640282054 -7.74558373026708e-17 -9.079240023214583e-51 -1.4448295920302215e-16 9.585577787110658" Properties=species:S:1:pos:R:3 unique_starting_index=46 config_type=initial n_minim_iter=3 stress="-0.0012194798905001186 3.254775927069797e-16 1.1828026531168631e-16 3.254775927069797e-16 -0.0012194798905001108 1.2151583888561708e-16 1.1828026531168631e-16 1.2151583888561708e-16 0.0006760220030000143" pbc="T T T"
Si       3.82558061       1.07181703       7.48781849
Si       1.07181703       3.82558061       7.48781849
Si       3.82558061       3.82558061       2.09775930
Si       1.07181703       1.07181703       2.09775930
Si       2.44869882       2.44869882       8.38701854
Si       2.44869882       2.44869882       1.19855925
6
Lattice="4.886435666620897 4.944066164397402e-64 5.753819222366666e-51 -1.2754009905946287e-63 4.886435666620896 4.847868595043832e-17 -8.136170450699384e-51 9.123362590022277e-17 9.585540222979759" Properties=species:S:1:pos:R:3 unique_starting_index=46 config_type=initial n_minim_iter=4 stress="0.00046271153875898565 1.2684722139655006e-16 6.71295946089576e-17 1.2684722139655006e-16 0.00046271153875895074 5.644130973935544e-17 6.71295946089576e-17 5.644130973935544e-17 -0.0004812043429795991" pbc="T T T"
Si       3.82183657       1.06459910       7.48625193
Si       1.06459910       3.82183657       7.48625193
Si       3.82183657       3.82183657       2.09928829
Si       1.06459910       1.06459910       2.09928829
Si       2.44321783       2.44321783       8.39970790
Si       2.44321783       2.44321783       1.18583233
6
Lattice="4.879637677991917 4.322685081297459e-64 6.04684967988635e-51 -1.2739560131590273e-63 4.879637677991915 1.5023479072860086e-16 -7.618053580402557e-51 2.8055554587969704e-16 9.617458185758386" Properties=species:S:1:pos:R:3 unique_starting_index=46 config_type=initial n_minim_iter=5 stress="0.00031350143017566965 1.1320396954694424e-16 8.635214771199881e-17 1.1320396954694424e-16 0.00031350143017556107 1.2993081913291338e-16 8.635214771199881e-17 1.2993081913291338e-16 9.222663473545508e-05" pbc="T T T"
Si       3.81762484       1.06201284       7.51141836
Si       1.06201284       3.81762484       7.51141836
Si       3.81762484       3.81762484       2.10603982
Si       1.06201284       1.06201284       2.10603982
Si       2.43981884       2.43981884       8.42894015
Si       2.43981884       2.43981884       1.18851804
6
Lattice="4.86911912477576 4.31121237492357e-64 6.60004053861822e-51 -1.2716714202331176e-63 4.869119124775759 3.5482173650916097e-16 -6.614253389090558e-51 6.609655835437471e-16 9.650767867812625" Properties=species:S:1:pos:R:3 unique_starting_index=46 config_type=initial n_minim_iter=6 stress="-9.572126888618055e-05 4.658207106358392e-17 1.7820694457621993e-16 4.658207106358392e-17 -9.572126888618831e-05 1.7372105866144898e-16 1.7820694457621993e-16 1.7372105866144898e-16 0.00032978623399693917" pbc="T T T"
Si       3.81136864       1.05775049       7.53945135
Si       1.05775049       3.81136864       7.53945135
Si       3.81136864       3.81136864       2.11131652
Si       1.05775049       1.05775049       2.11131652
Si       2.43455956       2.43455956       8.46106970
Si       2.43455956       2.43455956       1.18969817
6
Lattice="4.864584365532033 -1.8746635261928237e-64 7.306139448699143e-51 -1.0867695242668018e-63 4.864584365532033 3.6944009438138857e-16 -5.2593025442643435e-51 6.891198839457796e-16 9.629921582895902" Properties=species:S:1:pos:R:3 unique_starting_index=46 config_type=initial n_minim_iter=7 stress="-0.0016572901825753785 4.165451810363859e-17 2.826442521502426e-16 4.165451810363859e-17 -0.0016572901825753863 3.567431542217051e-16 2.826442521502426e-16 3.567431542217051e-16 -0.0012923198714245186" pbc="T T T"
Si       3.81031914       1.05426523       7.53738766
Si       1.05426523       3.81031914       7.53738766
Si       3.81031914       3.81031914       2.09253392
Si       1.05426523       1.05426523       2.09253392
Si       2.43229218       2.43229218       8.44559350
Si       2.43229218       2.43229218       1.18432808
6
Lattice="4.85409809925486 -5.657229515981144e-62 8.383228607307915e-51 -2.8032764785854903e-62 4.854098099254861 5.196481681331378e-16 -3.586087353915347e-51 9.573133156890928e-16 9.851775130804475" Properties=species:S:1:pos:R:3 unique_starting_index=46 config_type=initial n_minim_iter=8 stress="-0.0010945866439250364 5.787140306295362e-17 4.308851838729556e-16 5.787140306295362e-17 -0.001094586643924956 6.285519926014372e-16 4.308851838729556e-16 6.285519926014372e-16 0.0015204057489792062" pbc="T T T"
Si       3.82837384       1.02572426       7.82665204
Si       1.02572426       3.82837384       7.82665204
Si       3.82837384       3.82837384       2.02512309
Si       1.02572426       1.02572426       2.02512309
Si       2.42704905       2.42704905       8.65764084
Si       2.42704905       2.42704905       1.19413429
6
Lattice="4.835822597909448 -5.537762086983919e-62 9.586600685812047e-51 -2.9335796833492475e-62 4.835822597909448 8.101826661031671e-16 -1.677261189239813e-51 1.4657094119427264e-15 10.053417998070932" Properties=species:S:1:pos:R:3 unique_starting_index=46 config_type=initial n_minim_iter=9 stress="0.0028843885635056517 4.250091485398289e-17 5.372763667800133e-16 4.250091485398289e-17 0.0028843885635056856 6.590000353423007e-16 5.372763667800133e-16 6.590000353423007e-16 0.00040255713413570813" pbc="T T T"
Si       3.84314604       0.99267656       8.10851294
Si       0.99267656       3.84314604       8.10851294
Si       3.84314604       3.84314604       1.94490505
Si       0.99267656       0.99267656       1.94490505
Si       2.41791130       2.41791130       8.86031888
Si       2.41791130       2.41791130       1.19309911
6
Lattice="4.707912648071829 -3.0313829763835544e-62 1.1358171594688451e-50 -5.000481897666328e-62 4.707912648071829 -1.031189429171023e-15 -8.750893406030927e-56 -2.1116779021109378e-15 10.909865442386364" Properties=species:S:1:pos:R:3 unique_starting_index=46 config_type=initial n_minim_iter=10 stress="0.0074229491075863754 3.3516364377321675e-17 2.465819526989182e-16 3.3516364377321675e-17 0.0074229491075863754 2.185560823555966e-16 2.465819526989182e-16 2.185560823555966e-16 -0.0030662707967535627" pbc="T T T"
Si       3.83638919       0.87152346       9.18856851
Si       0.87152346       3.83638919       9.18856851
Si       3.83638919       3.83638919       1.72129693
Si       0.87152346       0.87152346       1.72129693
Si       2.35395632       2.35395632       9.72141701
Si       2.35395632       2.35395632       1.18844843
6
Lattice="4.689208191985678 -2.970598348492859e-62 1.1480654920617665e-50 -5.029604525995868e-62 4.689208191985679 -2.3159027721590183e-15 -1.1771887302286869e-57 -4.489828213166759e-15 11.027469648604981" Properties=species:S:1:pos:R:3 unique_starting_index=46 config_type=initial n_minim_iter=11 stress="0.003937700330364653 -2.374018447583757e-16 1.5700798314790677e-16 -2.374018447583757e-16 0.003937700330364642 1.765775752288082e-16 1.5700798314790677e-16 1.765775752288082e-16 -0.0017936446804002679" pbc="T T T"
Si       3.83242429       0.85678390       9.33072399
Si       0.85678390       3.83242429       9.33072399
Si       3.83242429       3.83242429       1.69674566
Si       0.85678390       0.85678390       1.69674566
Si       2.34460410       2.34460410       9.83980058
Si       2.34460410       2.34460410       1.18766907
6
Lattice="4.729565248265273 -3.6345501221952546e-62 1.108431033013147e-50 -4.240644625352047e-62 4.729565248265274 -3.3934863786312587e-16 -7.919101885790842e-63 -9.563992007037032e-16 10.646769707403774" Properties=species:S:1:pos:R:3 unique_starting_index=46 config_type=initial n_minim_iter=12 stress="0.014791788001058945 -2.104784716820601e-16 2.7559854673627476e-16 -2.104784716820601e-16 0.014791788001058966 3.4144340806885126e-17 2.7559854673627476e-16 3.4144340806885126e-17 -0.007085576627035826" pbc="T T T"
Si       3.81981422       0.90975103       8.80933379
Si       0.90975103       3.81981422       8.80933379
Si       3.81981422       3.81981422       1.83743592
Si       0.90975103       0.90975103       1.83743592
Si       2.36478262       2.36478262       9.45613622
Si       2.36478262       2.36478262       1.19063348
6
Lattice="4.73656662557998 -3.6705540067893774e-62 1.1008095294559996e-50 -4.24079855051459e-62 4.73656662557998 -3.654300801405528e-16 -1.37736172365471e-63 -1.0067488682567537e-15 10.573563174219446" Properties=species:S:1:pos:R:3 unique_starting_index=46 config_type=initial n_minim_iter=13 stress="0.015122825426891473 -3.1333733518915274e-16 2.607884777310304e-16 -3.1333733518915274e-16 0.015122825426891457 -4.6600106624592586e-17 2.607884777310304e-16 -4.6600106624592586e-17 -0.006232476024772471" pbc="T T T"
Si       3.81592588       0.92064074       8.70611615
Si       0.92064074       3.81592588       8.70611615
Si       3.81592588       3.81592588       1.86744703
Si       0.92064074       0.92064074       1.86744703
Si       2.36828331       2.36828331       9.38225591
Si       2.36828331       2.36828331       1.19130726
6
Lattice="4.6332581636528625 -5.143174242528291e-62 1.1423512628614625e-50 -1.041895365801578e-61 4.6332581636528625 6.534944864786886e-16 -1.8618899019424996e-66 9.06650960645987e-16 10.972582378518585" Properties=species:S:1:pos:R:3 unique_starting_index=46 config_type=initial n_minim_iter=14 stress="0.0018952306646709154 -1.3237845422724163e-15 6.052120442362988e-16 -1.3237845422724163e-15 0.0018952306646709115 -1.6745742775369671e-16 6.052120442362988e-16 -1.6745742775369671e-16 -0.014104335316935274" pbc="T T T"
Si       3.76127534       0.87198283       9.13210925
Si       0.87198283       3.76127534       9.13210925
Si       3.76127534       3.76127534       1.84047313
Si       0.87198283       0.87198283       1.84047313
Si       2.31662908       2.31662908       9.77239526
Si       2.31662908       2.31662908       1.20018712
6
Lattice="4.377749958935507 -8.800522807819659e-62 1.2374943497999802e-50 -6.709059077811197e-62 4.377749958935507 1.2945015968368253e-15 -1.032683434036643e-67 1.8068645488670836e-15 11.886456589647326" Properties=species:S:1:pos:R:3 unique_starting_index=46 config_type=initial n_minim_iter=15 stress="-0.02084092256532388 -9.333073676877602e-16 7.412042541831463e-16 -9.333073676877602e-16 -0.020840922565323942 -1.193999955407638e-16 7.412042541831463e-16 -1.193999955407638e-16 -0.02632521167912824" pbc="T T T"
Si       3.58631210       0.79143786       9.88974620
Si       0.79143786       3.58631210       9.88974620
Si       3.58631210       3.58631210       1.99671039
Si       0.79143786       0.79143786       1.99671039
Si       2.18887498       2.18887498      10.65921228
Si       2.18887498       2.18887498       1.22724431
6
Lattice="3.9753869471673946 -7.602778565750282e-62 1.3774715795264185e-50 -5.9848142892881555e-62 3.975386947167397 8.45545538293101e-15 3.5044827356829705e-63 1.3789693474475041e-14 13.23097445750595" Properties=species:S:1:pos:R:3 unique_starting_index=46 config_type=initial n_minim_iter=16 stress="0.0031276188284564597 1.662692738081007e-15 -2.008929069163097e-18 1.662692738081007e-15 0.003127618828456434 -8.888070228660135e-17 -2.008929069163097e-18 -8.888070228660135e-17 -0.00073633468461298" pbc="T T T"
Si       3.27296801       0.70241894      10.78393777
Si       0.70241894       3.27296801      10.78393777
Si       3.27296801       3.27296801       2.44703669
Si       0.70241894       0.70241894       2.44703669
Si       1.98769347       1.98769347      11.96259173
Si       1.98769347       1.98769347       1.26838272
6
Lattice="3.8720773845030614 -8.764431203294826e-62 1.3967905484561455e-50 -6.623368319314916e-62 3.8720773845030605 2.016593427911564e-14 -3.9589402169085916e-59 3.479930221272903e-14 13.416538222505048" Properties=species:S:1:pos:R:3 unique_starting_index=46 config_type=initial n_minim_iter=17 stress="-0.027002107871223632 1.6119030301443176e-15 1.3762063146147952e-17 1.6119030301443176e-15 -0.027002107871223553 -4.3177252920477506e-16 1.3762063146147952e-17 -4.3177252920477506e-16 0.008232386230568024" pbc="T T T"
Si       3.18007450       0.69200288      10.82132969
Si       0.69200288       3.18007450      10.82132969
Si       3.18007450       3.18007450       2.59520853
Si       0.69200288       0.69200288       2.59520853
Si       1.93603869       1.93603869      12.13724128
Si       1.93603869       1.93603869       1.27929694
6
Lattice="3.8680407708551527 -1.0308404554940344e-61 1.359589210524734e-50 -3.474476378328803e-63 3.8680407708551527 9.012144935812202e-14 2.861646757332733e-52 1.6857011169296207e-13 12.912216345423966" Properties=species:S:1:pos:R:3 unique_starting_index=46 config_type=initial n_minim_iter=18 stress="-0.0020558960060386372 1.1410304673728224e-15 1.3217075230973937e-16 1.1410304673728224e-15 -0.002055896006038653 1.6060081784592057e-16 1.3217075230973937e-16 1.6060081784592057e-16 0.011999296043917527" pbc="T T T"
Si       3.13953943       0.72850134      10.21267904
Si       0.72850134       3.13953943      10.21267904
Si       3.13953943       3.13953943       2.69953730
Si       0.72850134       0.72850134       2.69953730
Si       1.93402039       1.93402039      11.62793350
Si       1.93402039       1.93402039       1.28428284
6
Lattice="3.8250444456172543 1.099882226227575e-60 -4.253824796566486e-47 1.2515734883537105e-60 3.8250444456172548 3.4722490728892483e-13 -7.958132289907796e-47 6.602370366672726e-13 12.33203455194551" Properties=species:S:1:pos:R:3 unique_starting_index=46 config_type=initial n_minim_iter=19 stress="0.009562432381224903 3.3683501811545547e-15 1.8893986449905998e-16 3.3683501811545547e-15 0.009562432381225339 -6.440655867967252e-15 1.8893986449905998e-16 -6.440655867967252e-15 0.009839441352325805" pbc="T T T"
Si       3.07232357       0.75272088       9.55625763
Si       0.75272088       3.07232357       9.55625763
Si       3.07232357       3.07232357       2.77577692
Si       0.75272088       0.75272088       2.77577692
Si       1.91252222       1.91252222      11.08834973
Si       1.91252222       1.91252222       1.24368482
6
Lattice="3.8118886418996984 -1.0512922428345035e-58 1.3837902921952726e-45 2.64926343811355e-60 3.8118886418997 5.357410787188205e-13 2.5877339411625593e-45 1.016317393013549e-12 12.226554479419864" Properties=species:S:1:pos:R:3 unique_starting_index=46 config_type=initial n_minim_iter=20 stress="-0.013116172299212029 6.3060867195291775e-15 1.6839763615703116e-16 6.3060867195291775e-15 -0.013116172299211425 1.2504980103612759e-15 1.6839763615703116e-16 1.2504980103612759e-15 0.010477214332004867" pbc="T T T"
Si       3.06320706       0.74868158       9.47033363
Si       0.74868158       3.06320706       9.47033363
Si       3.06320706       3.06320706       2.75622085
Si       0.74868158       0.74868158       2.75622085
Si       1.90594432       1.90594432      11.01193550
Si       1.90594432       1.90594432       1.21461898
6
Lattice="3.799450392263281 8.734047011708258e-56 -4.527958681142739e-43 -2.6810178926434215e-58 3.7994503922632794 1.3400028922030652e-12 -8.471226917946056e-43 2.55111887040576e-12 11.850497615721503" Properties=species:S:1:pos:R:3 unique_starting_index=46 config_type=initial n_minim_iter=21 stress="-0.022533423142116187 6.078763104836861e-15 3.311195528994716e-16 6.078763104836861e-15 -0.022533423142115688 7.805991066392111e-15 3.311195528994716e-16 7.805991066392111e-15 -0.00031598392761457363" pbc="T T T"
Si       3.05114783       0.74830257       9.15179195
Si       0.74830257       3.05114783       9.15179195
Si       3.05114783       3.05114783       2.69870567
Si       0.74830257       0.74830257       2.69870567
Si       1.89972520       1.89972520      10.70669719
Si       1.89972520       1.89972520       1.14380043
