16
Lattice="7.060487505181426 0.0599811355443129 0.05187874767648715 1.2479366073658988 6.949585294925184 0.0518787476760124 1.2479366073654954 1.0528464161015434 6.869566332746481" Properties=species:S:1:pos:R:3 unique_starting_index=52 config_type=initial n_minim_iter=1 energy=-2603.205587557211 free_energy=-2603.205587557211 pbc="T T T"
Si       5.11255706       2.53772301       2.89321725
Si       4.04346124       4.49592652       2.09428979
Si       3.36232025       3.52769455       4.14718670
Si       1.43948850       2.98969142       2.06033876
Si       2.67679307       1.00310398       2.66156701
Si       3.18938180       2.17077210       0.60907302
Si       6.65738891       5.90297606       7.18523501
Si       8.96819587       5.22191964       4.80588948
Si       6.93963900       7.91270192       4.47483123
Si       7.58991059       6.08104149       3.16263303
Si       5.22672325       6.80704385       5.56179594
Si       7.27217581       4.06023650       5.93447508
Si       7.44916855       1.72863529       5.71537138
Si       7.07477936       6.34858940       0.88694522
Si       2.95821161       6.67194517       6.15450191
Si       5.69546070       4.80508814       4.15600592
16
Lattice="7.059669115377275 0.05995147577195913 0.051853094413472266 1.247769574404262 6.948783583279167 0.051853094412997125 1.2477695744038588 1.0527054954377923 6.868776686610677" Properties=species:S:1:pos:R:3 unique_starting_index=52 config_type=initial n_minim_iter=2 stress="-3.865643314432927e-05 1.9082874879188854e-05 1.6505116847016812e-05 1.9082874879188854e-05 -4.517567891255642e-05 1.3924868472507232e-05 1.6505116847016812e-05 1.3924868472507232e-05 -4.923145831545244e-05" pbc="T T T"
Si       5.11192018       2.53740461       2.89287267
Si       4.04297267       4.49536387       2.09402437
Si       3.36189916       3.52727083       4.14666817
Si       1.43930915       2.98932929       2.06009882
Si       2.67647738       1.00297595       2.66124324
Si       3.18899464       2.17051798       0.60899299
Si       6.65658442       5.90226617       7.18435503
Si       8.96710121       5.22129049       4.80531382
Si       6.93880379       7.91173407       4.47429160
Si       7.58901777       6.08030449       3.16225614
Si       5.22610060       6.80624446       5.56112095
Si       7.27129901       4.05975461       5.93378130
Si       7.44828258       1.72839000       5.71472822
Si       7.07396798       6.34782919       0.88679518
Si       2.95782064       6.67118883       6.15377126
Si       5.69477466       4.80450935       4.15550532
16
Lattice="7.059013855279884 0.0582486381843359 0.0503802799904047 1.245980718671293 6.94842439417622 0.05038027998992949 1.2459807186708896 1.0511962918963123 6.86863349510654" Properties=species:S:1:pos:R:3 unique_starting_index=52 config_type=initial n_minim_iter=3 stress="-5.586609962742939e-05 -0.00013480284709562195 -0.00011659337268408348 -0.00013480284709562195 -9.813662770274357e-06 -9.836630630661903e-05 -0.00011659337268408348 -9.836630630661903e-05 1.8836664511966626e-05" pbc="T T T"
Si       5.10978475       2.53552196       2.89158255
Si       4.04108725       4.49351956       2.09234730
Si       3.35968384       3.52573651       4.14508480
Si       1.43783749       2.98853365       2.05952857
Si       2.67556033       1.00163962       2.66053809
Si       3.18796258       2.16976393       0.60777222
Si       6.65323638       5.89947715       7.18157092
Si       8.96342558       5.21852181       4.80295513
Si       6.93549086       7.90857110       4.47189173
Si       7.58659743       6.07771783       3.16016861
Si       5.22328938       6.80426926       5.55886213
Si       7.26834175       4.05740781       5.93215225
Si       7.44600905       1.72544098       5.71384925
Si       7.07230887       6.34580613       0.88400361
Si       2.95453092       6.67006762       6.15217161
Si       5.69223839       4.80236958       4.15365459
16
Lattice="7.059581974966079 0.05946404098631501 0.0514315034245122 1.2472744264504962 6.948779758961934 0.05143150342403906 1.247274426450095 1.052287754067369 6.868833657961475" Properties=species:S:1:pos:R:3 unique_starting_index=52 config_type=initial n_minim_iter=4 stress="8.76955899938692e-06 2.2503394844959535e-05 1.9463585215289978e-05 2.2503394844959535e-05 1.0817675873041393e-06 1.6420838861141197e-05 1.9463585215289978e-05 1.6420838861141197e-05 -3.700992132329895e-06" pbc="T T T"
Si       5.11066351       2.53658598       2.89274676
Si       4.04252197       4.49416598       2.09323243
Si       3.36088062       3.52698758       4.14559692
Si       1.43861872       2.98896177       2.06020171
Si       2.67640928       1.00228715       2.66086473
Si       3.18851612       2.17053063       0.60836592
Si       6.65590978       5.90170177       7.18258938
Si       8.96518516       5.22093336       4.80500975
Si       6.93813385       7.90990471       4.47398202
Si       7.58905104       6.07937178       3.16232687
Si       5.22604269       6.80628809       5.56018779
Si       7.27038521       4.05985195       5.93395897
Si       7.44773763       1.72741219       5.71576467
Si       7.07474831       6.34714306       0.88567821
Si       2.95676504       6.67216077       6.15325326
Si       5.69409964       4.80393986       4.15501275
16
Lattice="7.059137821138872 0.058410352553701646 0.05052014961587495 1.2461609970288825 6.9485193614613205 0.05052014961540087 1.24616099702848 1.0513483873004918 6.868707314381772" Properties=species:S:1:pos:R:3 unique_starting_index=52 config_type=initial n_minim_iter=5 stress="6.380357401535829e-06 4.019513944553227e-07 3.476548875516167e-07 4.019513944553227e-07 6.2430395208069035e-06 2.9330592599184526e-07 3.476548875516167e-07 2.9330592599184526e-07 6.157610769923726e-06" pbc="T T T"
Si       5.10887970       2.53371767       2.89288504
Si       4.04194905       4.49245421       2.09037414
Si       3.35775292       3.52694062       4.14431492
Si       1.43740872       2.98773462       2.06003646
Si       2.67587004       1.00115174       2.65967421
Si       3.18710276       2.17022500       0.60741393
Si       6.65398415       5.90049060       7.18026564
Si       8.96242223       5.21945179       4.80414611
Si       6.93661575       7.90736107       4.47264037
Si       7.58834443       6.07730247       3.16091242
Si       5.22425006       6.80587746       5.55834392
Si       7.26822648       4.05840210       5.93381834
Si       7.44579362       1.72675517       5.71640189
Si       7.07494922       6.34513658       0.88493622
Si       2.95579008       6.67253113       6.15137465
Si       5.69238851       4.80249622       4.15376413
16
Lattice="7.0590583829718945 0.05811294204382507 0.05026291399240641 1.2458544572343806 6.948491134025297 0.050262913991932195 1.2458544572339785 1.0510897689362833 6.86871645198647" Properties=species:S:1:pos:R:3 unique_starting_index=52 config_type=initial n_minim_iter=6 stress="-2.5875505260444065e-06 -6.174531702770432e-06 -5.340461953075945e-06 -6.174531702770432e-06 -4.781571608493904e-07 -4.5055864167457765e-06 -5.340461953075945e-06 -4.5055864167457765e-06 8.341471268640675e-07" pbc="T T T"
Si       5.10798410       2.53269350       2.89320180
Si       4.04196175       4.49154346       2.08931500
Si       3.35659257       3.52715170       4.14356632
Si       1.43691842       2.98721172       2.06005998
Si       2.67573616       1.00067721       2.65915337
Si       3.18650477       2.17019132       0.60701941
Si       6.65363616       5.90044320       7.17948172
Si       8.96159224       5.21924054       4.80421218
Si       6.93651043       7.90653705       4.47242181
Si       7.58841046       6.07659855       3.16050620
Si       5.22376495       6.80602731       5.55770588
Si       7.26754372       4.05802658       5.93405857
Si       7.44511981       1.72697780       5.71701013
Si       7.07546069       6.34436564       0.88506887
Si       2.95589607       6.67303190       6.15059264
Si       5.69188825       4.80207417       4.15339909
16
Lattice="7.059202041038251 0.05811690032296239 0.05026633757821819 1.2458825474735309 6.948632074603091 0.05026633757774342 1.2458825474731283 1.051113467822463 6.868855427992317" Properties=species:S:1:pos:R:3 unique_starting_index=52 config_type=initial n_minim_iter=7 stress="-7.2490687407149274e-06 -7.764052755724506e-06 -6.7152668957850816e-06 -7.764052755724506e-06 -4.59665036110677e-06 -5.665467814960325e-06 -6.7152668957850816e-06 -5.665467814960325e-06 -2.9465171678352653e-06" pbc="T T T"
Si       5.10724004       2.53223789       2.89380152
Si       4.04235673       4.49072116       2.08877773
Si       3.35601819       3.52765052       4.14283002
Si       1.43659479       2.98685831       2.06020051
Si       2.67576854       1.00034336       2.65878340
Si       3.18610191       2.17029298       0.60674236
Si       6.65409196       5.90111980       7.17932407
Si       8.96161133       5.21969968       4.80490443
Si       6.93725411       7.90642938       4.47277639
Si       7.58898619       6.07639763       3.16056332
Si       5.22388906       6.80659018       5.55749883
Si       7.26744261       4.05816977       5.93464540
Si       7.44492854       1.72777722       5.71793424
Si       7.07644345       6.34400373       0.88572677
Si       2.95665187       6.67389980       6.15013970
Si       5.69193240       4.80211142       4.15343131
16
Lattice="7.059502680503113 0.05838816893172141 0.05050096260788061 1.2462005634346505 6.948882746887965 0.05050096260740544 1.2462005634342475 1.051381768281758 6.86906967169115" Properties=species:S:1:pos:R:3 unique_starting_index=52 config_type=initial n_minim_iter=8 stress="-6.042437394511784e-06 -4.751029305383603e-06 -4.109249488903844e-06 -4.751029305383603e-06 -4.419352409679862e-06 -3.466849655392829e-06 -4.109249488903844e-06 -3.466849655392829e-06 -3.409592248214464e-06" pbc="T T T"
Si       5.10692950       2.53242209       2.89444092
Si       4.04295430       4.49030404       2.08886786
Si       3.35614747       3.52823466       4.14240427
Si       1.43650927       2.98676419       2.06036922
Si       2.67590533       1.00023324       2.65866596
Si       3.18599474       2.17045006       0.60665031
Si       6.65511380       5.90223928       7.17985534
Si       8.96246062       5.22059125       4.80593566
Si       6.93852967       7.90707310       4.47351004
Si       7.58978516       6.07672702       3.16107779
Si       5.22457222       6.80728403       5.55775064
Si       7.26790183       4.05878438       5.93529573
Si       7.44526487       1.72873853       5.71881099
Si       7.07749185       6.34416585       0.88655170
Si       2.95765609       6.67479185       6.15018124
Si       5.69249060       4.80258236       4.15383863
