16
Lattice="8.352771861948344 0.6563387791085566 -0.0312170487837995 2.334384680801403 7.96654166336491 0.834582449083614 2.65100705156234 3.300032601768015 9.622876999333013" Properties=species:S:1:pos:R:3 unique_starting_index=30 config_type=initial n_minim_iter=1 energy=-2618.5172747469805 free_energy=-2618.5172747469805 pbc="T T T"
Si       7.85788057       6.65050174       6.62334342
Si       5.48028302       5.27241131       3.80289898
Si       3.66627988       5.86469191       2.90391827
Si       9.67188372       6.05822113       7.52232413
Si       7.84500683       5.76845424       8.55124518
Si       5.49315677       6.15445880       1.87499722
Si       5.66850026       5.22793746      -0.01845872
Si       7.66966334       6.69497558      10.44470112
Si       4.09624504       6.45438586       4.89267355
Si       9.24191855       5.46852719       5.53356885
Si      10.49698342       6.57803385       4.24065134
Si       2.84118018       5.34487920       6.18559106
Si       3.63909933       4.43347881       4.45376496
Si       9.69906427       7.48943423       5.97247744
Si       6.01719868       8.20176142       1.75209691
Si       7.32096492       3.72115162       8.67414549
16
Lattice="8.352076471343741 0.6562814546549229 -0.030835426562364265 2.33415179489453 7.966827048891958 0.834696436573004 2.6511945311974423 3.3001483524498667 9.622950694549429" Properties=species:S:1:pos:R:3 unique_starting_index=30 config_type=initial n_minim_iter=2 stress="-0.0002810232647507413 -9.309255441633342e-06 6.615593803377016e-05 -9.309255441633342e-06 -0.00013576670319778963 2.2174423902548336e-05 6.615593803377016e-05 2.2174423902548336e-05 -0.0003029074997041828" pbc="T T T"
Si       7.85747288       6.65069778       6.62368144
Si       5.47994992       5.27255907       3.80313027
Si       3.66607250       5.86488678       2.90406809
Si       9.67135030       6.05837008       7.52274361
Si       7.84473518       5.76862319       8.55155735
Si       5.49268762       6.15463367       1.87525435
Si       5.66797274       5.22808545      -0.01820099
Si       7.66945006       6.69517141      10.44501269
Si       4.09607237       6.45459750       4.89284409
Si       9.24135042       5.46865936       5.53396761
Si      10.49624311       6.57818909       4.24112318
Si       2.84117969       5.34506776       6.18568852
Si       3.63896768       4.43362104       4.45392473
Si       9.69845512       7.48963581       5.97288697
Si       6.01670488       8.20202008       1.75237239
Si       7.32071792       3.72123677       8.67443932
16
Lattice="8.352126634110725 0.6562816773925831 -0.030757708686971207 2.3341518557271015 7.967107975648774 0.8347334556643546 2.651294790397909 3.300235741112228 9.623373936046555" Properties=species:S:1:pos:R:3 unique_starting_index=30 config_type=initial n_minim_iter=3 stress="2.384951547833842e-05 2.1509563355476455e-05 0.00010389035383047108 2.1509563355476455e-05 0.00040504340767686785 -7.297000298805125e-06 0.00010389035383047108 -7.297000298805125e-06 0.00021380137572213896" pbc="T T T"
Si       7.85756246       6.65091071       6.62403205
Si       5.48001082       5.27271468       3.80331764
Si       3.66612360       5.86508121       2.90420428
Si       9.67144968       6.05854418       7.52314540
Si       7.84489568       5.76879600       8.55197620
Si       5.49267760       6.15482940       1.87537349
Si       5.66798094       5.22826224      -0.01817252
Si       7.66959234       6.69536316      10.44552220
Si       4.09613856       6.45480360       4.89307623
Si       9.24143472       5.46882180       5.53427345
Si      10.49631791       6.57838360       4.24139571
Si       2.84125537       5.34524180       6.18595397
Si       3.63902879       4.43376075       4.45415493
Si       9.69854449       7.48986464       5.97319475
Si       6.01673271       8.20228881       1.75249252
Si       7.32084057       3.72133658       8.67485716
16
Lattice="8.352155116293021 0.6559372670205986 -0.030900669370218015 2.3338805758278625 7.9662973926720975 0.8346894904146285 2.6510434024765104 3.2997560338177694 9.624082382402278" Properties=species:S:1:pos:R:3 unique_starting_index=30 config_type=initial n_minim_iter=4 stress="5.0231914385992746e-05 -0.00028295598364909126 -1.2497032979903904e-05 -0.00028295598364909126 -0.0006810897011645076 7.69967236598153e-05 -1.2497032979903904e-05 7.69967236598153e-05 0.000589431033215922" pbc="T T T"
Si       7.85722884       6.65006785       6.62450928
Si       5.47985026       5.27192285       3.80336192
Si       3.66603618       5.86439070       2.90431464
Si       9.67104291       6.05759999       7.52355656
Si       7.84499690       5.76795687       8.55247355
Si       5.49208219       6.15403382       1.87539765
Si       5.66770832       5.22758659      -0.01840941
Si       7.66937077       6.69440410      10.44628062
Si       4.09595480       6.45395485       4.89333224
Si       9.24112429       5.46803585       5.53453897
Si      10.49601004       6.57732200       4.24164729
Si       2.84106905       5.34466869       6.18622391
Si       3.63888199       4.43323850       4.45459545
Si       9.69819710       7.48875219       5.97327575
Si       6.01642750       8.20121028       1.75253529
Si       7.32065159       3.72078042       8.67533592
16
Lattice="8.352564335849554 0.6563686491261755 -0.031277166825159804 2.3343266122513846 7.9668153587521315 0.8343025383905692 2.650902989464463 3.2997973342465787 9.623084177035297" Properties=species:S:1:pos:R:3 unique_starting_index=30 config_type=initial n_minim_iter=5 stress="0.0005577017487455888 0.00014891284652894778 -0.00033206977883813206 0.00014891284652894778 8.926513199062054e-06 -4.551995447466259e-05 -0.00033206977883813206 -4.551995447466259e-05 -0.00032418894409914803" pbc="T T T"
Si       7.85756779       6.65069377       6.62355881
Si       5.48022615       5.27228757       3.80255074
Si       3.66644976       5.86479532       2.90378279
Si       9.67134417       6.05818603       7.52232676
Si       7.84558071       5.76844539       8.55127055
Si       5.49221323       6.15453595       1.87483900
Si       5.66809892       5.22814240      -0.01888459
Si       7.66969502       6.69483894      10.44499413
Si       4.09631435       6.45430743       4.89254336
Si       9.24147959       5.46867391       5.53356619
Si      10.49655703       6.57799495       4.24078606
Si       2.84123691       5.34498639       6.18532349
Si       3.63909803       4.43355035       4.45410549
Si       9.69869590       7.48943099       5.97200406
Si       6.01700999       8.20180599       1.75192529
Si       7.32078395       3.72117535       8.67418426
16
Lattice="8.352322743537794 0.6571005870303716 -0.03139775454809288 2.3349478991406407 7.966767408852662 0.8340332063494739 2.6510047732501967 3.299497892396426 9.624336257109153" Properties=species:S:1:pos:R:3 unique_starting_index=30 config_type=initial n_minim_iter=6 stress="0.0010817120631919444 0.0005257830342596865 -0.00010022837103212434 0.0005257830342596865 -0.00026444593486690956 -0.000402705886427838 -0.00010022837103212434 -0.000402705886427838 -2.664398508678426e-05" pbc="T T T"
Si       7.85772086       6.65117609       6.62448716
Si       5.48055456       5.27218980       3.80248455
Si       3.66677976       5.86473388       2.90418183
Si       9.67149566       6.05863201       7.52278988
Si       7.84651603       5.76853863       8.55243204
Si       5.49175938       6.15482726       1.87453967
Si       5.66792393       5.22841321      -0.01942219
Si       7.67035149       6.69495268      10.44639390
Si       4.09687419       6.45420262       4.89280529
Si       9.24140122       5.46916326       5.53416642
Si      10.49667502       6.57846450       4.24097218
Si       2.84160039       5.34490139       6.18599953
Si       3.63939527       4.43350132       4.45496456
Si       9.69888015       7.48986457       5.97200715
Si       6.01770937       8.20168392       1.75138746
Si       7.32056604       3.72168197       8.67558424
16
Lattice="8.35167118587786 0.6568364896732625 -0.032087028164896114 2.334410377966864 7.967225024029726 0.8343773558919371 2.649846638229897 3.3002001820972 9.62494206158917" Properties=species:S:1:pos:R:3 unique_starting_index=30 config_type=initial n_minim_iter=7 stress="0.0009911034315871214 0.00012939153367000637 -0.0004989045064254809 0.00012939153367000637 7.019606576559858e-05 -0.0001883164044552836 -0.0004989045064254809 -0.0001883164044552836 -5.263066561970445e-06" pbc="T T T"
Si       7.85627175       6.65184998       6.62483041
Si       5.47965645       5.27241172       3.80240198
Si       3.66598283       5.86508206       2.90457172
Si       9.66994537       6.05917963       7.52266067
Si       7.84535366       5.76911582       8.55279891
Si       5.49057454       6.15514588       1.87443348
Si       5.66707835       5.22848597      -0.01971393
Si       7.66884985       6.69577572      10.44694632
Si       4.09595996       6.45472507       4.89311992
Si       9.23996824       5.46953662       5.53411247
Si      10.49526962       6.57870721       4.24075847
Si       2.84065858       5.34555449       6.18647392
Si       3.63863379       4.43386358       4.45543000
Si       9.69729442       7.49039812       5.97180239
Si       6.01688946       8.20189562       1.75134123
Si       7.31903874       3.72236608       8.67589116
16
Lattice="8.350664002391042 0.6577093437205208 -0.03198985347935508 2.3349330796333576 7.9677662464115135 0.835583693225688 2.649855284788131 3.301903340235753 9.626369971352961" Properties=species:S:1:pos:R:3 unique_starting_index=30 config_type=initial n_minim_iter=8 stress="0.0006713229638851349 0.00037615313222693535 -0.00037925177974449943 0.00037615313222693535 4.5109936717454374e-05 0.0005368294373261447 -0.00037925177974449943 0.0005368294373261447 0.0006483808517181739" pbc="T T T"
Si       7.85600078       6.65388745       6.62668389
Si       5.47945159       5.27349148       3.80327992
Si       3.66589474       5.86586826       2.90594847
Si       9.66955763       6.06151067       7.52401534
Si       7.84544302       5.77125960       8.55470753
Si       5.49000935       6.15611933       1.87525628
Si       5.66655386       5.22920824      -0.01917016
Si       7.66889851       6.69817069      10.44913397
Si       4.09623852       6.45588187       4.89449304
Si       9.23921384       5.47149706       5.53547077
Si      10.49454728       6.58042777       4.24215617
Si       2.84090509       5.34695116       6.18780764
Si       3.63875487       4.43486042       4.45679743
Si       9.69669750       7.49251851       5.97316638
Si       6.01700153       8.20267881       1.75264393
Si       7.31845084       3.72470012       8.67731988
16
Lattice="8.347659946843123 0.6581768717052611 -0.03178165775261568 2.3344855876743082 7.968735110901551 0.8359805493123887 2.6492744845860767 3.302639564067138 9.627952236404498" Properties=species:S:1:pos:R:3 unique_starting_index=30 config_type=initial n_minim_iter=9 stress="0.00021703743744437218 -0.00026164111411869237 -6.396943521251572e-05 -0.00026164111411869237 0.00011983951476129024 -0.00012752802029281538 -6.396943521251572e-05 -0.00012752802029281538 0.0002997230949607757" pbc="T T T"
Si       7.85382158       6.65560707       6.62886941
Si       5.47759843       5.27394447       3.80328172
Si       3.66407886       5.86625841       2.90751220
Si       9.66734115       6.06329313       7.52463893
Si       7.84472056       5.77255346       8.55726424
Si       5.48669946       6.15699809       1.87488689
Si       5.66359903       5.23021381      -0.01945808
Si       7.66782099       6.69933774      10.45160920
Si       4.09558915       6.45647032       4.89535625
Si       9.23583086       5.47308123       5.53679488
Si      10.49090577       6.58149733       4.24323595
Si       2.84051425       5.34805422       6.18891518
Si       3.63831128       4.43519216       4.45867966
Si       9.69310874       7.49435939       5.97347146
Si       6.01531902       8.20295744       1.75329176
Si       7.31610100       3.72659411       8.67885937
16
Lattice="8.345013195061536 0.6598177244651269 -0.032061986634144155 2.3352979144130948 7.968583589722157 0.8368231402874803 2.648670274015858 3.303860804454127 9.62968125176043" Properties=species:S:1:pos:R:3 unique_starting_index=30 config_type=initial n_minim_iter=10 stress="-0.000801251220505699 0.0003320032617824473 -0.00010844256962637979 0.0003320032617824473 -6.642679658869451e-07 -0.00011998180444376701 -0.00010844256962637979 -0.00011998180444376701 0.0004983650530657982" pbc="T T T"
Si       7.85228170       6.65762254       6.63129179
Si       5.47669969       5.27463958       3.80315062
Si       3.66302563       5.86618493       2.90880945
Si       9.66595576       6.06607718       7.52563295
Si       7.84458930       5.77508346       8.55985592
Si       5.48439208       6.15717866       1.87458648
Si       5.66157636       5.23108334      -0.01937002
Si       7.66740503       6.70117878      10.45381243
Si       4.09558468       6.45685447       4.89667850
Si       9.23339671       5.47540765       5.53776390
Si      10.48860500       6.58332645       4.24401897
Si       2.84037639       5.34893566       6.19042344
Si       3.63822235       4.43562236       4.46066153
Si       9.69075904       7.49663976       5.97378088
Si       6.01506679       8.20309861       1.75418377
Si       7.31391460       3.72916351       8.68025863
16
Lattice="8.345275483569695 0.6597080779303922 -0.03155715769363718 2.335338594117551 7.968344409436226 0.8375504682444342 2.6492437705701004 3.3044762569870696 9.62977200024665" Properties=species:S:1:pos:R:3 unique_starting_index=30 config_type=initial n_minim_iter=11 stress="-0.0002478553353006424 5.0532167752329975e-05 0.0003127516926699677 5.0532167752329975e-05 -4.127627704424474e-05 0.00025936990293893176 0.0003127516926699677 0.00025936990293893176 0.00013566015626858524" pbc="T T T"
Si       7.85281669       6.65788911       6.63226023
Si       5.47704116       5.27463963       3.80350508
Si       3.66304692       5.86603693       2.90943306
Si       9.66681093       6.06649182       7.52633225
Si       7.84560612       5.77559237       8.56064913
Si       5.48425173       6.15693638       1.87511619
Si       5.66145362       5.23089874      -0.01871070
Si       7.66840423       6.70163000      10.45447601
Si       4.09598124       6.45690200       4.89727095
Si       9.23387660       5.47562674       5.53849436
Si      10.48908987       6.58330220       4.24494051
Si       2.84076798       5.34922654       6.19082480
Si       3.63863301       4.43566968       4.46126981
Si       9.69122483       7.49685907       5.97449550
Si       6.01532119       8.20277214       1.75507869
Si       7.31453666       3.72975660       8.68068663
16
Lattice="8.34473910465124 0.6599034804275844 -0.031710650465855895 2.3354509752101795 7.96720548300117 0.838021589392842 2.6489641414613803 3.3046293251028622 9.630378660441623" Properties=species:S:1:pos:R:3 unique_starting_index=30 config_type=initial n_minim_iter=12 stress="-0.0003316825411589069 5.47671448999407e-05 0.00024882677591670844 5.47671448999407e-05 -4.380323719637368e-05 0.00020359592313586342 0.00024882677591670844 0.00020359592313586342 0.00020528788122030288" pbc="T T T"
Si       7.85231622       6.65753638       6.63330411
Si       5.47683800       5.27420191       3.80338549
Si       3.66254400       5.86508643       2.90979826
Si       9.66661022       6.06665186       7.52689134
Si       7.84589299       5.77562862       8.56154925
Si       5.48326123       6.15610967       1.87514035
Si       5.66082234       5.23072594      -0.01889432
Si       7.66833188       6.70101235      10.45558392
Si       4.09591845       6.45616788       4.89774110
Si       9.23323577       5.47557041       5.53894850
Si      10.48858480       6.58287171       4.24526850
Si       2.84056943       5.34886658       6.19142110
Si       3.63860336       4.43497591       4.46207907
Si       9.69055086       7.49676238       5.97461053
Si       6.01530296       8.20150624       1.75543169
Si       7.31385126       3.73023205       8.68125791
16
Lattice="8.344289128278373 0.6603696736476261 -0.032577544119699944 2.335854212565501 7.965066017119389 0.8387871864468638 2.647981725637617 3.3049926121714535 9.631307411191896" Properties=species:S:1:pos:R:3 unique_starting_index=30 config_type=initial n_minim_iter=13 stress="-0.00017468636106692095 2.9738056935867088e-05 4.3420055313349076e-05 2.9738056935867088e-05 5.406771297904635e-05 0.00013144506855803056 4.3420055313349076e-05 0.00013144506855803056 0.00016765693643069484" pbc="T T T"
Si       7.85165264       6.65691633       6.63421040
Si       5.47647243       5.27351197       3.80330666
Si       3.66198834       5.86347720       2.91024882
Si       9.66613673       6.06695110       7.52726824
Si       7.84629231       5.77585530       8.56254155
Si       5.48183276       6.15457300       1.87497550
Si       5.66004122       5.22979332      -0.01944284
Si       7.66808384       6.70063498      10.45695989
Si       4.09589494       6.45499675       4.89784573
Si       9.23223013       5.47543156       5.53967132
Si      10.48803115       6.58218748       4.24510367
Si       2.84009391       5.34824083       6.19241339
Si       3.63847695       4.43349922       4.46300727
Si       9.68964812       7.49692908       5.97450978
Si       6.01557302       8.19957628       1.75596946
Si       7.31255204       3.73085203       8.68154759
16
Lattice="8.344944604681382 0.6598551623134332 -0.033313147701550735 2.3357977945338826 7.960995274477169 0.8400567024533604 2.647154582651839 3.3048785865136905 9.633071776614164" Properties=species:S:1:pos:R:3 unique_starting_index=30 config_type=initial n_minim_iter=14 stress="8.789806639743496e-05 2.4339655903276738e-05 -0.0001847354658237713 2.4339655903276738e-05 0.0002470917180718349 -5.278451203925422e-05 -0.0001847354658237713 -5.278451203925422e-05 0.0002590945630772497" pbc="T T T"
Si       7.85155254       6.65498849       6.63573939
Si       5.47634444       5.27074053       3.80407594
Si       3.66116409       5.86012367       2.91109824
Si       9.66673290       6.06560535       7.52871709
Si       7.84797617       5.77472273       8.56506964
Si       5.47992081       6.15100629       1.87474569
Si       5.65920845       5.22754673      -0.02003338
Si       7.66868854       6.69818230      10.45984871
Si       4.09581234       6.45241672       4.89832352
Si       9.23208464       5.47331230       5.54149181
Si      10.48830566       6.57874310       4.24586334
Si       2.83959132       5.34698593       6.19395199
Si       3.63867607       4.43098179       4.46441870
Si       9.68922091       7.49474724       5.97539663
Si       6.01613308       8.19566752       1.75701414
Si       7.31176390       3.73006150       8.68280119
16
Lattice="8.344924263126856 0.6598607201433204 -0.03348613929858065 2.3360155708102033 7.958052913446342 0.8411917869328993 2.6469232350493592 3.3052131638932627 9.63267019509492" Properties=species:S:1:pos:R:3 unique_starting_index=30 config_type=initial n_minim_iter=15 stress="0.0003371780035919054 -1.989295489481621e-05 -0.00019546830197991099 -1.989295489481621e-05 8.794622098187858e-05 0.00017055034058438117 -0.00019546830197991099 0.00017055034058438117 -2.1796708181703166e-07" pbc="T T T"
Si       7.85136120       6.65427144       6.63618179
Si       5.47650187       5.26885536       3.80419405
Si       3.66079425       5.85789160       2.91152365
Si       9.66706882       6.06523519       7.52885220
Si       7.84927031       5.77444447       8.56569254
Si       5.47859276       6.14868232       1.87468331
Si       5.65850460       5.22618451      -0.02004504
Si       7.66935847       6.69694228      10.46042089
Si       4.09560910       6.45115253       4.89808986
Si       9.23225397       5.47197426       5.54228599
Si      10.48803049       6.57659885       4.24580769
Si       2.83983258       5.34652795       6.19456815
Si       3.63864528       4.42936027       4.46476777
Si       9.68921779       7.49376653       5.97560807
Si       6.01643999       8.19290550       1.75822857
Si       7.31142308       3.73022129       8.68214727
16
Lattice="8.34477826598524 0.6610548030520332 -0.034007565846403506 2.337239573489354 7.955749097172511 0.8403911626152476 2.646844366836716 3.3039036769592296 9.63093765513262" Properties=species:S:1:pos:R:3 unique_starting_index=30 config_type=initial n_minim_iter=16 stress="0.0001626466354337293 7.176805497794827e-05 -1.133861224189097e-05 7.176805497794827e-05 -5.5963640506753605e-05 0.00016706174914954432 -1.133861224189097e-05 0.00016706174914954432 9.94942628136169e-06" pbc="T T T"
Si       7.85206616       6.65349980       6.63428083
Si       5.47679604       5.26720778       3.80304042
Si       3.66082940       5.85569051       2.90952522
Si       9.66803281       6.06501707       7.52779603
Si       7.85030354       5.77357821       8.56398803
Si       5.47855867       6.14712937       1.87333322
Si       5.65842198       5.22549759      -0.02127451
Si       7.67044022       6.69520998      10.45859576
Si       4.09567419       6.45000163       4.89598930
Si       9.23318802       5.47070595       5.54133195
Si      10.48798825       6.57558568       4.24411641
Si       2.84087395       5.34512190       6.19320485
Si       3.63907827       4.42755820       4.46387921
Si       9.68978393       7.49314938       5.97344204
Si       6.01764108       8.19088764       1.75709897
Si       7.31122112       3.72981994       8.68022228
16
Lattice="8.344739846458527 0.6620476595282376 -0.035168779947382746 2.338236993096282 7.953485875907953 0.8402297420252943 2.6459116472905793 3.303520224488699 9.629564810870498" Properties=species:S:1:pos:R:3 unique_starting_index=30 config_type=initial n_minim_iter=17 stress="-0.0001358532768260112 -0.0001521696872794046 7.983567992304756e-05 -0.0001521696872794046 -8.376321099950769e-05 -0.00018181258294989812 7.983567992304756e-05 -0.00018181258294989812 3.169501615773048e-05" pbc="T T T"
Si       7.85232091       6.65321426       6.63264816
Si       5.47656758       5.26583950       3.80197762
Si       3.66039648       5.85361782       2.90792292
Si       9.66849200       6.06543594       7.52670285
Si       7.85062345       5.77366286       8.56218983
Si       5.47826504       6.14539089       1.87243595
Si       5.65826903       5.22474411      -0.02263254
Si       7.67061946       6.69430965      10.45725832
Si       4.09504222       6.44904310       4.89401046
Si       9.23384626       5.47001066       5.54061531
Si      10.48737729       6.57480019       4.24202029
Si       2.84151120       5.34425357       6.19260548
Si       3.63918298       4.42642618       4.46332272
Si       9.68970550       7.49262758       5.97130306
Si       6.01862212       8.18903412       1.75628829
Si       7.31026637       3.73001964       8.67833749
16
Lattice="8.34532632432344 0.6632915048986244 -0.03532391970189482 2.3395874368589524 7.95338794739828 0.8423740956151607 2.646179142673884 3.3064569333158254 9.629411283980355" Properties=species:S:1:pos:R:3 unique_starting_index=30 config_type=initial n_minim_iter=18 stress="-0.0003015303839958919 8.021457379600325e-05 0.00017710655119954917 8.021457379600325e-05 -2.708380341516672e-06 -7.982840684512989e-05 0.00017710655119954917 -7.982840684512989e-05 6.0036044957777375e-06" pbc="T T T"
Si       7.85398596       6.65614054       6.63331298
Si       5.47710695       5.26699584       3.80314848
Si       3.66065940       5.85381460       2.90833284
Si       9.67043351       6.06932178       7.52812862
Si       7.85220317       5.77733180       8.56306893
Si       5.47888973       6.14580458       1.87339253
Si       5.65874546       5.22559169      -0.02148679
Si       7.67234744       6.69754469      10.45794825
Si       4.09546197       6.45093719       4.89394077
Si       9.23563093       5.47219919       5.54252069
Si      10.48830432       6.57685441       4.24287436
Si       2.84278859       5.34628197       6.19358710
Si       3.63995632       4.42781029       4.46443346
Si       9.69113658       7.49532610       5.97202800
Si       6.02000208       8.18926413       1.75820825
Si       7.31109082       3.73387226       8.67825321
16
Lattice="8.346175554446019 0.6640033686662088 -0.034533498093069506 2.34056672245935 7.953713822825081 0.8449508841749735 2.647398908581218 3.309575900779292 9.630337285764124" Properties=species:S:1:pos:R:3 unique_starting_index=30 config_type=initial n_minim_iter=19 stress="-0.0005331561937308156 -9.187134872822463e-05 0.0004063270018435676 -9.187134872822463e-05 -8.221291579040622e-06 -6.794519418226292e-05 0.0004063270018435676 -6.794519418226292e-05 -0.0001879037872173199" pbc="T T T"
Si       7.85609132       6.65902998       6.63535261
Si       5.47804987       5.26826311       3.80540206
Si       3.66071398       5.85406022       2.90943423
Si       9.67342720       6.07323287       7.53132044
Si       7.85474348       5.78107183       8.56573338
Si       5.47939771       6.14622126       1.87502129
Si       5.65895237       5.22639088      -0.01970130
Si       7.67518882       6.70090222      10.46045597
Si       4.09576780       6.45282069       4.89451940
Si       9.23837338       5.47447240       5.54623527
Si      10.48946752       6.57849069       4.24550355
Si       2.84467366       5.34880240       6.19525112
Si       3.64080379       4.42927383       4.46674772
Si       9.69333740       7.49801926       5.97400695
Si       6.02115160       8.18963232       1.76096134
Si       7.31298959       3.73766077       8.67979333
16
Lattice="8.345600519847459 0.664138348795185 -0.03616384355973145 2.3403421740540886 7.954265631769299 0.8486109629392172 2.6449795985740203 3.3148307721114563 9.630613645124804" Properties=species:S:1:pos:R:3 unique_starting_index=30 config_type=initial n_minim_iter=20 stress="-0.00017454893946531724 7.442704526472515e-05 -1.5970970404837704e-05 7.442704526472515e-05 0.00011188812092844942 7.620254724043843e-05 -1.5970970404837704e-05 7.620254724043843e-05 -4.8508787274471746e-05" pbc="T T T"
Si       7.85455024       6.66310655       6.63627809
Si       5.47637206       5.27012821       3.80678267
Si       3.65848166       5.85414963       2.91042927
Si       9.67244064       6.07908512       7.53263149
Si       7.85331540       5.78665669       8.56700728
Si       5.47760689       6.14657807       1.87605349
Si       5.65781881       5.22708719      -0.01856798
Si       7.67310348       6.70614756      10.46162874
Si       4.09389176       6.45618500       4.89420531
Si       9.23703053       5.47704975       5.54885546
Si      10.48681142       6.58007867       4.24565213
Si       2.84411087       5.35315609       6.19740864
Si       3.63935644       4.43165695       4.46964723
Si       9.69156585       7.50157780       5.97341353
Si       6.01970075       8.18985681       1.76346605
Si       7.31122155       3.74337794       8.67959472
16
Lattice="8.344351950668418 0.658442352571138 -0.03890834307467902 2.334462348667444 7.952067964447941 0.8494851261537798 2.6391781563259062 3.3147344712122693 9.63047239575742" Properties=species:S:1:pos:R:3 unique_starting_index=30 config_type=initial n_minim_iter=21 stress="0.000629597783450437 1.685451433262511e-05 -0.0004519069228165897 1.685451433262511e-05 5.324002308844896e-06 -0.00020733936878330024 -0.0004519069228165897 -0.00020733936878330024 0.0004042922808853929" pbc="T T T"
Si       7.84787651       6.65858037       6.63505515
Si       5.47011595       5.26666442       3.80599403
Si       3.65074200       5.84769630       2.90918970
Si       9.66725046       6.07754849       7.53185948
Si       7.84603486       5.78385483       8.56647453
Si       5.47195760       6.14138995       1.87457464
Si       5.65431636       5.22246103      -0.02079337
Si       7.66367610       6.70278376      10.46184255
Si       4.08766017       6.45517542       4.89096756
Si       9.23033229       5.47006936       5.55008162
Si      10.47914033       6.57033745       4.24267036
Si       2.83885212       5.35490734       6.19837882
Si       3.63423362       4.42925494       4.47325737
Si       9.68375883       7.49598984       5.96779181
Si       6.01117338       8.18547474       1.76190504
Si       7.30681907       3.73977005       8.67914414
