22
Lattice="6.157779776009159 -0.12793677909377885 -0.7467289454253888 -0.844763719459759 9.614168755131939 -2.584712689978876 -3.248782262296341 -6.812677230017038 13.207120576681012" Properties=species:S:1:pos:R:3 unique_starting_index=51 config_type=initial n_minim_iter=1 energy=-3591.916671348002 free_energy=-3591.916671348002 pbc="T T T"
Si       3.09002115       7.88459551       0.61133268
Si      -2.10711690      -0.16250553       6.98651264
Si       0.48598219       8.18040674      -2.99305534
Si      -1.47984033       4.63776824       1.86509693
Si      -0.16471366      -0.85589404       6.42377943
Si       4.75943703      -0.03438101       4.22616466
Si      -0.10630138       1.26169330       1.63466789
Si       0.18641554       1.91232604      -0.36000342
Si       1.04590634      -2.50339410       5.90232509
Si       3.33110947      -0.47783146       8.23321450
Si      -1.92513990       1.51560750       8.27974131
Si       4.77694298       1.32719980       2.57216567
Si      -0.24901834       3.11769361       2.65421484
Si       1.57960644      -4.14298132      13.30946758
Si       2.41420185      -2.23950839      10.16302557
Si       4.38300504       6.30088745       2.21117099
Si       1.51327862       0.48849618       0.48076142
Si       3.07044743       2.98854997       8.30648892
Si       1.97624446      -0.72257755       6.62115633
Si      -0.16290632      -1.56650680       4.42731177
Si       3.43238777       1.29762430       0.92637830
Si       2.69649111      -1.10529580       1.19315026
22
Lattice="6.155526458804979 -0.12863167968587194 -0.7478335503942471 -0.8446767950245373 9.610070441604012 -2.580719445793721 -3.2506549089520216 -6.807939030672633 13.19425974529437" Properties=species:S:1:pos:R:3 unique_starting_index=51 config_type=initial n_minim_iter=2 stress="-0.0034174389013305263 3.421454015288257e-05 0.0011128678481506877 3.421454015288257e-05 -0.001990460346696895 -0.0018704345822334598 0.0011128678481506877 -0.0018704345822334598 -0.0016459315752775571" pbc="T T T"
Si       3.08767644       7.88117439       0.61080022
Si      -2.10827505      -0.16120728       6.98031297
Si       0.48584433       8.17681226      -2.98923782
Si      -1.48026294       4.63624435       1.86427907
Si      -0.16645092      -0.85474603       6.41731138
Si       4.75636745      -0.03437343       4.22057162
Si      -0.10695387       1.26136010       1.63343913
Si       0.18625616       1.91150221      -0.35956571
Si       1.04395828      -2.50184255       5.89589964
Si       3.32738340      -0.47686270       8.22405541
Si      -1.92701293       1.51599808       8.27234037
Si       4.77411414       1.32644261       2.56821449
Si      -0.25012850       3.11682640       2.65193667
Si       1.57544632      -4.13985121      13.29554307
Si       2.41048244      -2.23759879      10.15202687
Si       4.37992463       6.29825315       2.20853071
Si       1.51251118       0.48825277       0.47992189
Si       3.06643370       2.98800960       8.29787659
Si       1.97354661      -0.72162583       6.61403069
Si      -0.16396145      -1.56525120       4.42293172
Si       3.43064529       1.29689128       0.92460638
Si       2.69516073      -1.10503185       1.19103451
22
Lattice="6.161357756784067 -0.13005004367804535 -0.752084378498413 -0.8447191338472905 9.611174708405075 -2.5711131476008116 -3.262134293083926 -6.798834326585236 13.185649679602193" Properties=species:S:1:pos:R:3 unique_starting_index=51 config_type=initial n_minim_iter=3 stress="0.0020820173731455026 -0.0002793754557162024 -0.0031518138438105807 -0.0002793754557162024 0.002788907899198221 0.002465102923866172 -0.0031518138438105807 0.002465102923866172 -0.0017222408726022245" pbc="T T T"
Si       3.08839960       7.88383725       0.61477213
Si      -2.11489665      -0.15461041       6.97904703
Si       0.48756278       8.17737746      -2.98163946
Si      -1.48332281       4.63915625       1.86834829
Si      -0.17103486      -0.84971131       6.41405315
Si       4.75786752      -0.03160558       4.21524200
Si      -0.10865260       1.26279079       1.63474218
Si       0.18647367       1.91193866      -0.35863497
Si       1.04089855      -2.49840257       5.89079092
Si       3.32440457      -0.47009983       8.21795365
Si      -1.93502654       1.52240318       8.27155866
Si       4.77620787       1.32816035       2.56438006
Si      -0.25290810       3.12045139       2.65311402
Si       1.56761975      -4.13042671      13.28598929
Si       2.40561768      -2.23025565      10.14419391
Si       4.38119327       6.30206680       2.20991607
Si       1.51358185       0.48884466       0.47944521
Si       3.06260207       2.99530717       8.29480779
Si       1.97043076      -0.71638489       6.60956274
Si      -0.16696308      -1.56187285       4.42007513
Si       3.43277554       1.29773734       0.92261089
Si       2.69679425      -1.10497122       1.18774047
22
Lattice="6.165669557143002 -0.1309331410354226 -0.7488458062999764 -0.8480819513595245 9.596216172101165 -2.5688235142787823 -3.2562789708300883 -6.783677404627064 13.184760852299197" Properties=species:S:1:pos:R:3 unique_starting_index=51 config_type=initial n_minim_iter=4 stress="0.005014764185839288 -0.0027850403519331913 0.0032662106497963355 -0.0027850403519331913 -0.005238269850303967 0.0012462288593405113 0.0032662106497963355 0.0012462288593405113 2.800054439881951e-05" pbc="T T T"
Si       3.08799098       7.87196403       0.61927191
Si      -2.11125165      -0.14883301       6.98021582
Si       0.48586915       8.16591491      -2.97919512
Si      -1.48355138       4.63241701       1.86970427
Si      -0.16702678      -0.84622740       6.41528063
Si       4.76610752      -0.03168045       4.21821786
Si      -0.10904964       1.25992692       1.63973555
Si       0.18595819       1.90984768      -0.36095904
Si       1.04544084      -2.49525417       5.89278964
Si       3.33204565      -0.46417921       8.22200973
Si      -1.93321465       1.51783534       8.27287155
Si       4.78198669       1.32561244       2.56606375
Si      -0.25309183       3.11832510       2.65264053
Si       1.57649146      -4.12026066      13.28992792
Si       2.41411817      -2.22382274      10.14660491
Si       4.38472787       6.29449240       2.21583623
Si       1.51564582       0.48933041       0.48316584
Si       3.06880870       2.99274929       8.29911045
Si       1.97501646      -0.71216919       6.61301867
Si      -0.16443193      -1.55666543       4.42064284
Si       3.43522882       1.29604017       0.92351999
Si       2.70005189      -1.10438722       1.18953947
22
Lattice="6.1601347923469625 -0.1268472182079886 -0.7517840184550403 -0.8398989451771506 9.602768292173552 -2.5715043551591266 -3.2635985668906953 -6.793659842782721 13.191275679869301" Properties=species:S:1:pos:R:3 unique_starting_index=51 config_type=initial n_minim_iter=5 stress="6.350254142004305e-05 -2.0423623015414927e-05 -0.0004715214521701692 -2.0423623015414927e-05 -0.0006822040896986743 -0.0011564022502564804 -0.0004715214521701692 -0.0011564022502564804 0.0014842608802644306" pbc="T T T"
Si       3.08936723       7.87907583       0.61607656
Si      -2.11185851      -0.15116005       6.98286983
Si       0.49246995       8.17302414      -2.98197872
Si      -1.47983855       4.63399136       1.86984252
Si      -0.17016590      -0.84854831       6.41728918
Si       4.76068306      -0.03016377       4.21684534
Si      -0.10889589       1.25943379       1.64113024
Si       0.18699436       1.91168505      -0.36271020
Si       1.04011769      -2.49890237       5.89479341
Si       3.32508944      -0.46296513       8.22277227
Si      -1.93483333       1.51320065       8.27575000
Si       4.77710030       1.32848767       2.56345086
Si      -0.25237527       3.12049370       2.65173547
Si       1.56649130      -4.12536050      13.29372104
Si       2.40612017      -2.22638621      10.14826010
Si       4.38366408       6.30152450       2.21304545
Si       1.51432298       0.49120543       0.48349527
Si       3.06397211       2.99453522       8.29882705
Si       1.96936710      -0.71253931       6.61443458
Si      -0.16770107      -1.55838687       4.42215090
Si       3.43197725       1.29875764       0.92135291
Si       2.69642906      -1.10424806       1.18906301
22
Lattice="6.15734333520623 -0.12490962768362832 -0.7466092377940442 -0.8371893647393491 9.606507294911495 -2.5599934569242104 -3.2555258298119893 -6.786264863929504 13.170587366531059" Properties=species:S:1:pos:R:3 unique_starting_index=51 config_type=initial n_minim_iter=6 stress="-0.0012757226695441182 0.002545195562820565 0.003559076770816973 0.002545195562820565 0.0020431025632793136 0.0024743530321496648 0.003559076770816973 0.0024743530321496648 -0.001161936995250736" pbc="T T T"
Si       3.09159410       7.88669096       0.62626592
Si      -2.10475473      -0.14444254       6.97386566
Si       0.49471928       8.17672511      -2.96963460
Si      -1.47570219       4.63941608       1.87286139
Si      -0.16495939      -0.84293038       6.41125928
Si       4.76365962      -0.02394867       4.21605232
Si      -0.10570779       1.26038080       1.64097412
Si       0.18670774       1.91310608      -0.36110860
Si       1.04337835      -2.49609483       5.88884882
Si       3.33065625      -0.44961428       8.21771266
Si      -1.92895760       1.51810004       8.27092049
Si       4.77753171       1.33416932       2.56578842
Si      -0.24949980       3.12640495       2.65187892
Si       1.57422287      -4.11411848      13.27834440
Si       2.41267488      -2.21650666      10.13828871
Si       4.38638815       6.31038474       2.22085596
Si       1.51281382       0.49379058       0.48547861
Si       3.07069913       3.00680905       8.29745078
Si       1.97272836      -0.70445257       6.61044369
Si      -0.16586147      -1.55440120       4.41649737
Si       3.43182756       1.30223834       0.92340362
Si       2.69636719      -1.10382872       1.18945634
22
Lattice="6.1630100472066065 -0.13268893152484376 -0.7514247311369434 -0.8476667984042495 9.602509443031067 -2.5558076689388756 -3.260565212433585 -6.775793945129681 13.16608748001524" Properties=species:S:1:pos:R:3 unique_starting_index=51 config_type=initial n_minim_iter=7 stress="0.000711488249413694 -0.0037259005197005303 0.003464683909833136 -0.0037259005197005303 0.0035707358025249885 -0.0007305288225178322 0.003464683909833136 -0.0007305288225178322 -0.0034066594432643296" pbc="T T T"
Si       3.08212003       7.87958063       0.62610374
Si      -2.10956890      -0.13912926       6.96881267
Si       0.49000973       8.17346690      -2.96362645
Si      -1.48412385       4.64253406       1.87711993
Si      -0.16709056      -0.84201835       6.40959993
Si       4.76729759      -0.02949005       4.20816418
Si      -0.10538320       1.25717922       1.64055468
Si       0.18261621       1.91279844      -0.36266830
Si       1.04317297      -2.49941768       5.88711296
Si       3.32887687      -0.44167269       8.21109721
Si      -1.94407892       1.51230127       8.27540957
Si       4.77614839       1.32884824       2.55976551
Si      -0.25755482       3.12750939       2.65013452
Si       1.57006301      -4.11117975      13.26740885
Si       2.41081493      -2.21635666      10.12911843
Si       4.37961601       6.30230422       2.21707931
Si       1.50961373       0.49377727       0.48511182
Si       3.06311963       3.00444092       8.29278388
Si       1.96802903      -0.70318200       6.60801667
Si      -0.16970595      -1.55133648       4.41408476
Si       3.43107724       1.29720718       0.91800773
Si       2.70015711      -1.10958312       1.18776999
22
Lattice="6.164023579659161 -0.1302620569046506 -0.7543456154611571 -0.8425803269292408 9.591750030211024 -2.5522293125123956 -3.269467681122494 -6.764963883835268 13.169030618063701" Properties=species:S:1:pos:R:3 unique_starting_index=51 config_type=initial n_minim_iter=8 stress="-0.0009542324601574522 -0.0005020431154045489 0.0019785815859929483 -0.0005020431154045489 -0.0034099015556141284 0.0008554846220628125 0.0019785815859929483 0.0008554846220628125 -0.0027206582875838456" pbc="T T T"
Si       3.08517587       7.87358174       0.62854199
Si      -2.11227330      -0.13682429       6.97095458
Si       0.49540271       8.16491080      -2.96053089
Si      -1.48310173       4.63885162       1.88096250
Si      -0.16958128      -0.83901641       6.41169903
Si       4.76687185      -0.02575699       4.20703144
Si      -0.10508329       1.25644857       1.64151582
Si       0.18301035       1.91107029      -0.36249104
Si       1.03975692      -2.49495653       5.88811602
Si       3.32607820      -0.43370808       8.21212781
Si      -1.94856856       1.51126659       8.28136070
Si       4.77584563       1.33092798       2.55886159
Si      -0.25775826       3.12571031       2.65208726
Si       1.56321979      -4.10124580      13.26867235
Si       2.40634149      -2.20894192      10.12991292
Si       4.38169030       6.29903788       2.21850272
Si       1.50907546       0.49449600       0.48501094
Si       3.06146768       3.00652353       8.29558564
Si       1.96480183      -0.69841555       6.60965725
Si      -0.17261212      -1.54792181       4.41504719
Si       3.43132340       1.29767282       0.91672649
Si       2.69988367      -1.10760497       1.18700018
22
Lattice="6.164217082422642 -0.1302591291408231 -0.7537618768410876 -0.842635430811788 9.60023490602585 -2.5519356752259426 -3.2689484861305265 -6.771594401708632 13.164992289857054" Properties=species:S:1:pos:R:3 unique_starting_index=51 config_type=initial n_minim_iter=9 stress="6.73748318153358e-05 -0.0016494979428514727 0.0036809140269119804 -0.0016494979428514727 -0.00028896603631910716 0.0011282483275893115 0.0036809140269119804 0.0011282483275893115 -0.005377178943916475" pbc="T T T"
Si       3.08481356       7.88061203       0.62853255
Si      -2.11132948      -0.13794292       6.96682131
Si       0.49588109       8.17249985      -2.95846937
Si      -1.48292402       4.64276322       1.88033840
Si      -0.16841408      -0.84137310       6.40943443
Si       4.76797761      -0.02572567       4.20558809
Si      -0.10561769       1.25918001       1.64116084
Si       0.18152365       1.91322538      -0.36284902
Si       1.03977010      -2.49844726       5.88694286
Si       3.32731321      -0.43041419       8.20908831
Si      -1.95069131       1.50972709       8.28190815
Si       4.77602350       1.33281356       2.55693377
Si      -0.25777195       3.12769572       2.65053596
Si       1.56459400      -4.10663994      13.26322439
Si       2.40790988      -2.21151559      10.12559402
Si       4.38164160       6.30542812       2.21806543
Si       1.50895092       0.49484770       0.48465021
Si       3.06291457       3.00877271       8.29268998
Si       1.96520317      -0.69885289       6.60857537
Si      -0.17206756      -1.55016426       4.41499015
Si       3.43086424       1.29867809       0.91502049
Si       2.70115849      -1.10976697       1.18822147
22
Lattice="6.159127368786084 -0.13045105635423385 -0.7569452909303593 -0.8410365613683451 9.602440336023275 -2.5534345662119566 -3.27169881211078 -6.773303857993991 13.175014165748818" Properties=species:S:1:pos:R:3 unique_starting_index=51 config_type=initial n_minim_iter=10 stress="-0.0071292914058845875 -0.0052505900405120124 0.0034022597716396237 -0.0052505900405120124 -0.0017526536588678518 0.004399938352693544 0.0034022597716396237 0.004399938352693544 -0.0018244851682912059" pbc="T T T"
Si       3.08181276       7.88255224       0.62808401
Si      -2.11238920      -0.13933705       6.97084137
Si       0.49646615       8.17446684      -2.95927725
Si      -1.48251254       4.64240865       1.88156470
Si      -0.17082924      -0.84245217       6.41429322
Si       4.76221854      -0.02515563       4.20559234
Si      -0.10623576       1.26107339       1.64205504
Si       0.18039846       1.91350909      -0.36322187
Si       1.03632100      -2.49962328       5.89066969
Si       3.32046542      -0.42907595       8.21247491
Si      -1.95425602       1.51076056       8.29083046
Si       4.77021013       1.33368355       2.55562786
Si      -0.25864551       3.12736848       2.65205197
Si       1.55543144      -4.10770544      13.27063982
Si       2.40238231      -2.21243383      10.12959616
Si       4.37607217       6.30739561       2.21765482
Si       1.50772904       0.49366546       0.48411816
Si       3.05764716       3.00879812       8.29605455
Si       1.96092135      -0.69921112       6.61255622
Si      -0.17354164      -1.55237300       4.41846653
Si       3.42834062       1.30001547       0.91188519
Si       2.69904853      -1.11004141       1.18934335
22
Lattice="6.163392905528709 -0.12288679850211794 -0.7596714960956166 -0.8296311498333709 9.606337908358123 -2.5620505014889634 -3.288142979096626 -6.792277453043712 13.178447579478904" Properties=species:S:1:pos:R:3 unique_starting_index=51 config_type=initial n_minim_iter=11 stress="-0.0001949125578716252 -0.0002617419090267129 0.0028480102437354127 -0.0002617419090267129 -0.0011683845020661378 -0.0003379583140668959 0.0028480102437354127 -0.0003379583140668959 -0.004408528791587015" pbc="T T T"
Si       3.09237393       7.88745533       0.61883175
Si      -2.11748966      -0.15052250       6.96782861
Si       0.50716315       8.18001890      -2.96507305
Si      -1.47927830       4.63818441       1.87609736
Si      -0.17500444      -0.85055092       6.41327546
Si       4.76349968      -0.02323376       4.20065185
Si      -0.10557735       1.26159544       1.63976575
Si       0.18151663       1.91421871      -0.36503775
Si       1.03143105      -2.50565109       5.89085116
Si       3.31740211      -0.43243175       8.20738413
Si      -1.95991955       1.50168172       8.29010032
Si       4.77290412       1.33740072       2.54991000
Si      -0.25643133       3.12381372       2.64750968
Si       1.54252650      -4.12005178      13.26808256
Si       2.39755566      -2.22107348      10.12466586
Si       4.38391238       6.31187901       2.20797199
Si       1.50933270       0.49325957       0.48233838
Si       3.06024242       3.00362223       8.28735560
Si       1.95854418      -0.70424999       6.61023060
Si      -0.17710323      -1.55978336       4.41932320
Si       3.43259727       1.30445509       0.90568992
Si       2.69992013      -1.10828262       1.19063230
22
Lattice="6.162702539390683 -0.12111709418929341 -0.7627314472930856 -0.8252919947581369 9.610240241578246 -2.5610946224368134 -3.296503691450168 -6.796202145756813 13.177437047521225" Properties=species:S:1:pos:R:3 unique_starting_index=51 config_type=initial n_minim_iter=12 stress="3.217174564582102e-05 0.00013367044451861166 0.001398942627232615 0.00013367044451861166 -0.00031622068539665705 0.00017242720705213535 0.001398942627232615 0.00017242720705213535 -0.001496140420691444" pbc="T T T"
Si       3.09410482       7.89219474       0.61790604
Si      -2.12173914      -0.15148550       6.96839902
Si       0.50998363       8.18317516      -2.96391734
Si      -1.47897397       4.63979032       1.87675906
Si      -0.17864122      -0.85159128       6.41263261
Si       4.76073757      -0.02056279       4.19657262
Si      -0.10611493       1.26394412       1.63816841
Si       0.18134466       1.91428186      -0.36419829
Si       1.02763704      -2.50628991       5.88969052
Si       3.31196708      -0.43151995       8.20330039
Si      -1.96394707       1.50289819       8.29022521
Si       4.77173188       1.34063391       2.54701733
Si      -0.25692786       3.12371959       2.64764235
Si       1.53291578      -4.12004767      13.26313144
Si       2.39233681      -2.22147002      10.11955040
Si       4.38372277       6.31540725       2.20470805
Si       1.51063139       0.49388068       0.48195446
Si       3.05729960       3.00533571       8.28358341
Si       1.95504988      -0.70480450       6.60762093
Si      -0.17922915      -1.56286692       4.41894254
Si       3.43007287       1.30557566       0.90106510
Si       2.69978235      -1.10727922       1.19131767
22
Lattice="6.162532345204766 -0.11985985537831478 -0.7661297329591643 -0.8219310468308492 9.616146625604399 -2.5625333488088935 -3.3047117824340617 -6.803058828599308 13.181759114037417" Properties=species:S:1:pos:R:3 unique_starting_index=51 config_type=initial n_minim_iter=13 stress="0.0008755109724271705 0.00011823792338412174 0.00011574016945283786 0.00011823792338412174 0.0018861394803750394 -0.0003437835673353186 0.00011574016945283786 -0.0003437835673353186 0.0004520324962722223" pbc="T T T"
Si       3.09521642       7.89780800       0.61574463
Si      -2.12624176      -0.15262480       6.97180348
Si       0.51187932       8.18790406      -2.96508426
Si      -1.47948704       4.64293551       1.87774793
Si      -0.18256085      -0.85375040       6.41401240
Si       4.75843490      -0.02004956       4.19443349
Si      -0.10766218       1.26591322       1.63722767
Si       0.18136809       1.91462998      -0.36408195
Si       1.02397096      -2.50817848       5.89142360
Si       3.30712864      -0.43225829       8.20193127
Si      -1.96795474       1.50152640       8.29143956
Si       4.76994632       1.34278131       2.54310633
Si      -0.25746191       3.12481069       2.64827600
Si       1.52368471      -4.12433276      13.26326082
Si       2.38723336      -2.22413605      10.11795200
Si       4.38390965       6.31879440       2.20087282
Si       1.51000058       0.49433298       0.48124000
Si       3.05357776       3.00629345       8.28194646
Si       1.95144028      -0.70735789       6.60655279
Si      -0.18185888      -1.56605420       4.41965772
Si       3.43064396       1.30745929       0.89785939
Si       2.70012842      -1.10705444       1.19253855
22
Lattice="6.160815663478304 -0.11898694047199657 -0.7703629309229719 -0.8181583373583966 9.617085120107882 -2.5594166838052326 -3.3136735865317313 -6.8011968902251745 13.182904230848012" Properties=species:S:1:pos:R:3 unique_starting_index=51 config_type=initial n_minim_iter=14 stress="0.001010296951791663 -0.0003214135995738366 -0.0009109293125267288 -0.0003214135995738366 -0.00012110816571097926 -0.0005126273733934198 -0.0009109293125267288 -0.0005126273733934198 0.0015006501269528183" pbc="T T T"
Si       3.09413600       7.90128705       0.61757675
Si      -2.13047895      -0.15085955       6.97388954
Si       0.51286045       8.18902726      -2.96044077
Si      -1.48046672       4.64382760       1.88057680
Si      -0.18900006      -0.85369597       6.41406731
Si       4.75516671      -0.01807783       4.19176667
Si      -0.10968922       1.26737797       1.63635461
Si       0.18040702       1.91355937      -0.36374338
Si       1.01935084      -2.50641434       5.89480234
Si       3.30122325      -0.42712407       8.19979977
Si      -1.97271851       1.50135130       8.29350511
Si       4.76705884       1.34551019       2.53990027
Si      -0.25860212       3.12715558       2.64994249
Si       1.51232552      -4.11686147      13.25988344
Si       2.38179376      -2.22163040      10.11170388
Si       4.38428672       6.32139713       2.19945568
Si       1.50841091       0.49316204       0.48151426
Si       3.04840848       3.00888007       8.28118832
Si       1.94662302      -0.70944565       6.60265048
Si      -0.18517867      -1.56629426       4.42053257
Si       3.42961395       1.30880441       0.89225011
Si       2.69998896      -1.10403642       1.19471652
22
Lattice="6.157180404279324 -0.11689231136833358 -0.7745393768863512 -0.8116635402717478 9.625746510140255 -2.5528795672364137 -3.323963362677675 -6.803418600898113 13.175593351630862" Properties=species:S:1:pos:R:3 unique_starting_index=51 config_type=initial n_minim_iter=15 stress="-0.00013852585092657654 0.0005766976366417565 -0.001223065107872096 0.0005766976366417565 0.0009815108992376497 0.00046905588336426017 -0.001223065107872096 0.00046905588336426017 0.001085511898219466" pbc="T T T"
Si       3.09256321       7.91281771       0.62053231
Si      -2.13454068      -0.14886016       6.97067513
Si       0.51661979       8.19685659      -2.95128873
Si      -1.48044605       4.65032218       1.88438264
Si      -0.19504971      -0.85365828       6.41244947
Si       4.74977813      -0.01353993       4.18508179
Si      -0.11274951       1.27105074       1.63617893
Si       0.17949473       1.91460050      -0.36391384
Si       1.01449212      -2.50594598       5.89565578
Si       3.29307493      -0.42090611       8.19434025
Si      -1.97615044       1.50530537       8.29158744
Si       4.76361833       1.35090748       2.53522288
Si      -0.26019771       3.13168816       2.64926055
Si       1.49979220      -4.11114154      13.24955555
Si       2.37499636      -2.21857049      10.09830831
Si       4.38412933       6.32970236       2.19716345
Si       1.50633747       0.49416069       0.48207474
Si       3.04269264       3.01613565       8.27644873
Si       1.94096523      -0.71050394       6.59443690
Si      -0.18846868      -1.56665743       4.41751029
Si       3.42797746       1.31267249       0.88529364
Si       2.69816271      -1.10125860       1.19540999
22
Lattice="6.153312308364688 -0.11511954165597273 -0.7799227983915913 -0.8056653578154159 9.632800010627097 -2.5504594757841335 -3.33574612268252 -6.808615487166312 13.17387845228365" Properties=species:S:1:pos:R:3 unique_starting_index=51 config_type=initial n_minim_iter=16 stress="0.0003059985667079215 -0.0006156395469509291 -0.0025082900362584366 -0.0006156395469509291 0.0013971369865946443 -0.00029298584259111694 -0.0025082900362584366 -0.00029298584259111694 0.0023945911685368613" pbc="T T T"
Si       3.08918766       7.92183715       0.62009644
Si      -2.14071256      -0.14843142       6.96986198
Si       0.52059247       8.20351551      -2.94572968
Si      -1.48126937       4.65360944       1.88628434
Si      -0.20067574      -0.85762899       6.41193857
Si       4.74318558      -0.01138455       4.17713603
Si      -0.11467529       1.27353869       1.63454925
Si       0.17761562       1.91604473      -0.36574747
Si       1.00788492      -2.50837917       5.89829046
Si       3.28304241      -0.41847948       8.19033055
Si      -1.98103908       1.50558267       8.29063183
Si       4.75729498       1.35484102       2.53083371
Si      -0.26208144       3.13386372       2.64877925
Si       1.48406411      -4.11076501      13.24160525
Si       2.36693982      -2.21928070      10.08598169
Si       4.38205165       6.33577350       2.19246218
Si       1.50394416       0.49681230       0.48349373
Si       3.03519238       3.01800703       8.27096835
Si       1.93528473      -0.71310395       6.58750523
Si      -0.19195302      -1.56752180       4.41788978
Si       3.42649385       1.31604749       0.87680431
Si       2.69622254      -1.09944187       1.19638507
22
Lattice="6.14935082645415 -0.10914452400921247 -0.7857574224106385 -0.7923018879909463 9.63792803607289 -2.5427444001980355 -3.35414055617644 -6.810701856400807 13.163021112678706" Properties=species:S:1:pos:R:3 unique_starting_index=51 config_type=initial n_minim_iter=17 stress="-0.00011830695952634179 0.0007556221286513823 -0.002517651844484763 0.0007556221286513823 0.00021108861492323045 9.294970238011966e-05 -0.002517651844484763 9.294970238011966e-05 0.0038666202240677026" pbc="T T T"
Si       3.09168974       7.93390529       0.62316625
Si      -2.14822135      -0.14612128       6.96539549
Si       0.53107907       8.20980548      -2.93407424
Si      -1.47959246       4.65515175       1.88885866
Si      -0.20767823      -0.85992878       6.41053025
Si       4.73612609      -0.00473512       4.16645473
Si      -0.11673292       1.27692581       1.63395878
Si       0.17578241       1.91802661      -0.36801199
Si       0.99897930      -2.50926465       5.89840549
Si       3.27167534      -0.40963508       8.18218069
Si      -1.98577787       1.50677571       8.28653025
Si       4.75153047       1.36511771       2.52312456
Si      -0.26204576       3.13554411       2.64974374
Si       1.46264987      -4.10132364      13.22200471
Si       2.35755540      -2.21439024      10.06392314
Si       4.38322090       6.34561932       2.18833346
Si       1.50168435       0.50159808       0.48424764
Si       3.02964964       3.02408439       8.26292396
Si       1.92989053      -0.71147951       6.57598871
Si      -0.19792908      -1.56743173       4.41450080
Si       3.42590439       1.32191826       0.86693739
Si       2.69398354      -1.09470537       1.19748099
22
Lattice="6.148311864253848 -0.10149674394018723 -0.7932339881013641 -0.7753264178853417 9.647564662532423 -2.5299300749522105 -3.3822576072667827 -6.817081506633091 13.129739937401984" Properties=species:S:1:pos:R:3 unique_starting_index=51 config_type=initial n_minim_iter=18 stress="0.00030086716384340723 0.0006207823451811328 -0.0018171379028805086 0.0006207823451811328 -0.0019651592157760556 -0.0005666517544530397 -0.0018171379028805086 -0.0005666517544530397 0.0018429040181804793" pbc="T T T"
Si       3.09785737       7.95143653       0.62498949
Si      -2.15844150      -0.14315274       6.94844956
Si       0.54702502       8.21899430      -2.91701375
Si      -1.47974931       4.65888007       1.88950817
Si      -0.21876947      -0.86361608       6.40098064
Si       4.72945503       0.00218428       4.14834965
Si      -0.12069841       1.28229884       1.63013376
Si       0.17213431       1.92267449      -0.37236665
Si       0.98584992      -2.51386320       5.88909544
Si       3.25802469      -0.39821721       8.15942963
Si      -1.99554587       1.50520296       8.27100214
Si       4.74498969       1.37795256       2.51146428
Si      -0.26177970       3.13979686       2.64543687
Si       1.43160509      -4.09311396      13.17654133
Si       2.34651692      -2.21043338      10.01602158
Si       4.38554295       6.35800220       2.17650879
Si       1.50231109       0.50701589       0.48367592