22
Lattice="5.475062750899517 -0.14585013714897954 -0.0356094121959259 2.681172775046413 6.33416578810968 0.07239930730138704 0.8642758377226231 0.5484633711363797 15.83990325222781" Properties=species:S:1:pos:R:3 unique_starting_index=40 config_type=initial n_minim_iter=1 energy=-3597.0879996293493 free_energy=-3597.0879996293493 pbc="T T T"
Si       5.36231968       2.69585082      12.10782086
Si       1.64868215       3.75337185       4.84422127
Si       5.04461491       0.73081085       7.10972477
Si       3.86014529       3.80563371      13.10848709
Si       3.50722925       2.65878621      14.86195023
Si       7.33710159       5.22200815       6.21523609
Si       5.86119430       2.64074274       1.75142589
Si       4.95394090       4.62307084       9.09204987
Si       4.18317603       2.51838900       0.43013731
Si       4.28564519       4.61529809      15.03286544
Si       5.02031216       2.70726966      10.01837168
Si       4.47953882       4.38000688      11.16574638
Si       2.20322795       3.23330843       0.75340511
Si       0.66764444      -0.69182198       8.05128347
Si       1.52160882       2.69233449      15.62559314
Si       6.71042305       5.52786380       8.23026260
Si       3.40931871       2.62378192       4.31029149
Si       3.79235173       6.22839599       6.13435704
Si       5.47724018       2.65053997       3.84408215
Si       5.45499996       0.81008562       9.17254735
Si       5.48222377       3.06182900      14.19854708
Si       5.12776643       0.90768340       5.00075712
22
Lattice="5.475110272898005 -0.14555792235632173 -0.035544842200182336 2.6815459910830683 6.334588553781511 0.07236264101651219 0.8644985726689751 0.5483616552884649 15.840189675589642" Properties=species:S:1:pos:R:3 unique_starting_index=40 config_type=initial n_minim_iter=2 stress="0.0003041437465695752 0.00021049128114946652 2.6477288618502603e-05 0.00021049128114946652 0.0003743749534626141 -0.00018705490183041604 2.6477288618502603e-05 -0.00018705490183041604 0.0004987106714968302" pbc="T T T"
Si       5.36267328       2.69612376      12.10813854
Si       1.64896683       3.75358068       4.84430795
Si       5.04477028       0.73105638       7.10982829
Si       3.86058942       3.80586358      13.10870165
Si       3.50756020       2.65895899      14.86226206
Si       7.33748936       5.22256982       6.21539870
Si       5.86144234       2.64115212       1.75150398
Si       4.95432040       4.62348129       9.09216798
Si       4.18332356       2.51874149       0.43021208
Si       4.28611537       4.61555043      15.03315161
Si       5.02062406       2.70753533      10.01857755
Si       4.47991300       4.38032698      11.16596718
Si       2.20345414       3.23354924       0.75340028
Si       0.66768179      -0.69194585       8.05146049
Si       1.52202074       2.69234039      15.62583984
Si       6.71095226       5.52835834       8.23042582
Si       3.40955882       2.62399998       4.31039584
Si       3.79280253       6.22883024       6.13440212
Si       5.47747620       2.65088659       3.84417319
Si       5.45518043       0.81036953       9.17278670
Si       5.48260677       3.06212415      14.19869954
Si       5.12793171       0.90795903       5.00096262
22
Lattice="5.4749691361890385 -0.14551665009466117 -0.03552661193728249 2.68152345596147 6.334513607767376 0.07245296480432636 0.8645345301378654 0.5485701122668011 15.83954504384922" Properties=species:S:1:pos:R:3 unique_starting_index=40 config_type=initial n_minim_iter=3 stress="-0.00038883637330961867 0.00026330506237859223 0.00010273136731906719 0.00026330506237859223 9.443237535202536e-06 -8.338401520527175e-05 0.00010273136731906719 -8.338401520527175e-05 -0.00023404715637912905" pbc="T T T"
Si       5.36260661       2.69627753      12.10772983
Si       1.64897168       3.75360506       4.84417810
Si       5.04465519       0.73117680       7.10951609
Si       3.86059063       3.80600646      13.10821341
Si       3.50753219       2.65916416      14.86171551
Si       7.33734325       5.22263666       6.21525320
Si       5.86133418       2.64117333       1.75148999
Si       4.95424114       4.62359090       9.09183730
Si       4.18321543       2.51875156       0.43026724
Si       4.28609024       4.61569733      15.03261855
Si       5.02054780       2.70765585      10.01821873
Si       4.47984109       4.38044476      11.16559119
Si       2.20343212       3.23351727       0.75341352
Si       0.66767121      -0.69184653       8.05112520
Si       1.52209641       2.69250450      15.62522085
Si       6.71089061       5.52842102       8.23017982
Si       3.40951414       2.62401722       4.31027567
Si       3.79276155       6.22885174       6.13422316
Si       5.47736276       2.65091565       3.84406335
Si       5.45506027       0.81055274       9.17245022
Si       5.48253400       3.06231696      14.19809347
Si       5.12782760       0.90806261       5.00082529
22
Lattice="5.475201104021449 -0.14572823821222403 -0.03560976174345572 2.681386402908708 6.3343012311405 0.07259083461476054 0.8643198837540743 0.5489688810322856 15.839524996484716" Properties=species:S:1:pos:R:3 unique_starting_index=40 config_type=initial n_minim_iter=4 stress="0.00016339307579884535 3.1419349101474384e-05 1.87760511229919e-06 3.1419349101474384e-05 -2.313632590901316e-05 5.5942509113992515e-05 1.87760511229919e-06 5.5942509113992515e-05 -0.0001685895871925868" pbc="T T T"
Si       5.36256808       2.69634499      12.10774481
Si       1.64882576       3.75361634       4.84427207
Si       5.04470568       0.73116260       7.10940747
Si       3.86044066       3.80615750      13.10824158
Si       3.50735819       2.65942861      14.86174062
Si       7.33734110       5.22245237       6.21530251
Si       5.86147037       2.64094138       1.75147847
Si       4.95411704       4.62359698       9.09184000
Si       4.18326732       2.51856843       0.43030414
Si       4.28586821       4.61585266      15.03267830
Si       5.02050216       2.70768709      10.01821257
Si       4.47965734       4.38051100      11.16564403
Si       2.20339017       3.23338511       0.75346430
Si       0.66759843      -0.69166057       8.05108367
Si       1.52187291       2.69281780      15.62523188
Si       6.71087305       5.52828026       8.23022693
Si       3.40949850       2.62392326       4.31031060
Si       3.79256938       6.22876309       6.13430939
Si       5.47742773       2.65073299       3.84404923
Si       5.45509667       0.81062603       9.17239679
Si       5.48243384       3.06245978      14.19799315
Si       5.12793075       0.90801355       5.00080755
22
Lattice="5.475081974232513 -0.1458076681203768 -0.03562931426559554 2.6812344384126536 6.33425161590153 0.07256743013473888 0.8642377969513084 0.5489153794325924 15.839935232737956" Properties=species:S:1:pos:R:3 unique_starting_index=40 config_type=initial n_minim_iter=5 stress="-0.00016995274663499668 -7.631240085190586e-05 -1.1268909081486693e-06 -7.631240085190586e-05 -3.697688922568102e-06 1.3837933755136271e-05 -1.1268909081486693e-06 1.3837933755136271e-05 0.0001248505571183797" pbc="T T T"
Si       5.36237754       2.69622300      12.10804124
Si       1.64871812       3.75357623       4.84439426
Si       5.04454972       0.73106899       7.10956575
Si       3.86026814       3.80606298      13.10856390
Si       3.50719867       2.65935362      14.86212152
Si       7.33708105       5.22232876       6.21543053
Si       5.86130819       2.64084281       1.75149424
Si       4.95390337       4.62350534       9.09202891
Si       4.18314257       2.51850338       0.43029857
Si       4.28565348       4.61573629      15.03304860
Si       5.02031518       2.70758464      10.01845722
Si       4.47943735       4.38041280      11.16591027
Si       2.20329205       3.23333972       0.75346632
Si       0.66755823      -0.69169051       8.05128996
Si       1.52175073       2.69274735      15.62561658
Si       6.71062731       5.52814346       8.23041147
Si       3.40937699       2.62383827       4.31041433
Si       3.79235816       6.22867402       6.13443286
Si       5.47725258       2.65062853       3.84412118
Si       5.45492046       0.81053971       9.17261976
Si       5.48221716       3.06234648      14.19832245
Si       5.12778182       0.90793802       5.00092838
22
Lattice="5.4752656434923255 -0.1457003175233575 -0.03572488163833766 2.6814436209929284 6.33420811253162 0.07217782076607099 0.8639781495119575 0.5480767603872286 15.839847779561548" Properties=species:S:1:pos:R:3 unique_starting_index=40 config_type=initial n_minim_iter=6 stress="5.171754222077695e-06 -5.5352328856235484e-05 -0.0001439862998996141 -5.5352328856235484e-05 -3.580994949317826e-05 -0.0002893502031047334 -0.0001439862998996141 -0.0002893502031047334 -0.00011937116790024599" pbc="T T T"
Si       5.36248504       2.69553458      12.10773121
Si       1.64876035       3.75332650       4.84429305
Si       5.04453054       0.73077759       7.10938192
Si       3.86040839       3.80538911      13.10830218
Si       3.50723420       2.65882816      14.86199125
Si       7.33724338       5.22208365       6.21502549
Si       5.86168158       2.64075448       1.75118751
Si       4.95393636       4.62316002       9.09142651
Si       4.18349095       2.51851763       0.43004567
Si       4.28560422       4.61483436      15.03270218
Si       5.02033029       2.70714385      10.01832535
Si       4.47923410       4.37985137      11.16555304
Si       2.20342714       3.23322596       0.75323538
Si       0.66736715      -0.69201396       8.05118284
Si       1.52149751       2.69186435      15.62523482
Si       6.71085615       5.52761642       8.23006813
Si       3.40954075       2.62336469       4.31032786
Si       3.79234049       6.22822626       6.13395768
Si       5.47741717       2.65037621       3.84379465
Si       5.45480598       0.81033185       9.17246464
Si       5.48218784       3.06174809      14.19799381
Si       5.12779653       0.90792032       5.00086855
22
Lattice="5.4752929400607835 -0.14558306183244157 -0.03558201508752632 2.681598887910573 6.334280975091253 0.0725491232025162 0.8644309431793937 0.548835489316214 15.840339741209943" Properties=species:S:1:pos:R:3 unique_starting_index=40 config_type=initial n_minim_iter=7 stress="-2.8727721879000916e-05 3.071093035530168e-05 3.363330690027594e-06 3.071093035530168e-05 6.281739967143094e-06 8.388562507074877e-05 3.363330690027594e-06 8.388562507074877e-05 1.6616991782101407e-06" pbc="T T T"
Si       5.36295175       2.69618321      12.10832768
Si       1.64898641       3.75360244       4.84471157
Si       5.04473173       0.73123256       7.10977061
Si       3.86096000       3.80609223      13.10897257
Si       3.50777858       2.65971413      14.86267637
Si       7.33752370       5.22253038       6.21565062
Si       5.86189635       2.64093488       1.75149757
Si       4.95429330       4.62373517       9.09193509
Si       4.18366083       2.51863375       0.43027315
Si       4.28614200       4.61559238      15.03347356
Si       5.02068216       2.70776595      10.01891876
Si       4.47956087       4.38047310      11.16618978
Si       2.20354281       3.23328004       0.75345946
Si       0.66755926      -0.69157793       8.05134436
Si       1.52197760       2.69261427      15.62575897
Si       6.71126615       5.52810612       8.23077993
Si       3.40977627       2.62351589       4.31072607
Si       3.79260326       6.22856238       6.13449470
Si       5.47761382       2.65063159       3.84414067
Si       5.45504284       0.81095904       9.17290827
Si       5.48267869       3.06257988      14.19867977
Si       5.12794515       0.90834138       5.00123238
22
Lattice="5.475407899235517 -0.14569326069247887 -0.03523339411599172 2.6815227568099624 6.3339462399275055 0.0724522706923421 0.865429620287236 0.5481279898760761 15.840619719548373" Properties=species:S:1:pos:R:3 unique_starting_index=40 config_type=initial n_minim_iter=8 stress="9.634125018916902e-05 -0.00014470619464871545 0.0003910064150502146 -0.00014470619464871545 -7.696739411222453e-05 -0.0001337633303745993 0.0003910064150502146 -0.0001337633303745993 -4.620827607664958e-05" pbc="T T T"
Si       5.36386418       2.69542266      12.10871827
Si       1.64920519       3.75315189       4.84487714
Si       5.04502245       0.73082534       7.11032285
Si       3.86204063       3.80529926      13.10930895
Si       3.50879748       2.65921031      14.86319358
Si       7.33773407       5.22183344       6.21604656
Si       5.86227668       2.64048524       1.75168461
Si       4.95479717       4.62298805       9.09203557
Si       4.18395087       2.51842773       0.43041654
Si       4.28703976       4.61462682      15.03386267
Si       5.02129663       2.70741948      10.01933570
Si       4.47999288       4.37961986      11.16642830
Si       2.20360824       3.23288977       0.75338994
Si       0.66811992      -0.69173054       8.05151734
Si       1.52305754       2.69180658      15.62579283
Si       6.71185404       5.52732233       8.23114130
Si       3.41018524       2.62273985       4.31108982
Si       3.79278049       6.22786358       6.13439743
Si       5.47799804       2.65022313       3.84425612
Si       5.45553362       0.81054884       9.17326525
Si       5.48369145       3.06183961      14.19908976
Si       5.12820621       0.90811621       5.00174284
22
Lattice="5.47535006227109 -0.1455842004051236 -0.03554829834640543 2.6816152135061864 6.333929039815589 0.07233372489202626 0.8645242718861681 0.5482234971295548 15.840829074539418" Properties=species:S:1:pos:R:3 unique_starting_index=40 config_type=initial n_minim_iter=9 stress="2.5532087151234853e-05 8.306165472893363e-06 -4.513590689257626e-05 8.306165472893363e-06 -0.00014451311100437892 -1.278223107285527e-05 -4.513590689257626e-05 -1.278223107285527e-05 2.842278700424885e-05" pbc="T T T"
Si       5.36323405       2.69556074      12.10859685
Si       1.64895596       3.75312328       4.84496381
Si       5.04442597       0.73097757       7.11024863
Si       3.86148039       3.80541133      13.10936089
Si       3.50801282       2.65952117      14.86335562
Si       7.33726425       5.22192372       6.21579262
Si       5.86228769       2.64048799       1.75132621
Si       4.95426319       4.62304100       9.09182781
Si       4.18406945       2.51849833       0.43018944
Si       4.28620211       4.61472513      15.03394264
Si       5.02068520       2.70773801      10.01925718
Si       4.47923075       4.37964442      11.16635214
Si       2.20364661       3.23278885       0.75323646
Si       0.66766838      -0.69155667       8.05159370
Si       1.52227760       2.69189330      15.62584648
Si       6.71144320       5.52739986       8.23095426
Si       3.41003552       2.62253787       4.31110167
Si       3.79239857       6.22785257       6.13419971
Si       5.47783317       2.65031942       3.84390721
Si       5.45485059       0.81077482       9.17304125
Si       5.48294976       3.06204974      14.19900329
Si       5.12780016       0.90831139       5.00163790
22
Lattice="5.475298932914358 -0.14561666754128547 -0.0355400277694925 2.681566127247416 6.334428885536506 0.07234740566839036 0.8645366740346329 0.5482926336756712 15.840514852301519" Properties=species:S:1:pos:R:3 unique_starting_index=40 config_type=initial n_minim_iter=10 stress="-2.7758955174008533e-05 -0.00011167190635975771 -2.0039021876095217e-05 -0.00011167190635975771 0.00028757471991157997 1.2071074863583142e-05 -2.0039021876095217e-05 1.2071074863583142e-05 -0.00014309009117183027" pbc="T T T"
Si       5.36324080       2.69580097      12.10834807
Si       1.64891352       3.75336109       4.84490425
Si       5.04429465       0.73104852       7.11011716
Si       3.86151755       3.80574303      13.10915349
Si       3.50804324       2.65984777      14.86310204
Si       7.33711910       5.22235126       6.21573202
Si       5.86229063       2.64060776       1.75126292
Si       4.95418365       4.62338420       9.09161838
Si       4.18408816       2.51870693       0.43019071
Si       4.28614773       4.61513789      15.03370937
Si       5.02061818       2.70805983      10.01906870
Si       4.47910048       4.37993250      11.16612358
Si       2.20368777       3.23297310       0.75319785
Si       0.66772966      -0.69153204       8.05141216
Si       1.52232066       2.69213214      15.62548408
Si       6.71135032       5.52779937       8.23084675
Si       3.41006679       2.62257540       4.31110018
Si       3.79221506       6.22831496       6.13406729
Si       5.47780511       2.65051260       3.84378528
Si       5.45473132       0.81088760       9.17282514
Si       5.48296075       3.06232569      14.19871582
Si       5.12769497       0.90844082       5.00160995
22
Lattice="5.475372373840458 -0.14532995931604661 -0.03543525255879199 2.681935241238817 6.334437504305502 0.07232253361169448 0.864879883576281 0.5481290140598942 15.84114969407267" Properties=species:S:1:pos:R:3 unique_starting_index=40 config_type=initial n_minim_iter=11 stress="4.9400360558515405e-05 1.224860981911867e-05 2.2309168282077732e-05 1.224860981911867e-05 -5.5656709455992445e-05 -5.587370059938799e-06 2.2309168282077732e-05 -5.587370059938799e-06 2.7914446327341585e-05" pbc="T T T"
Si       5.36379189       2.69595011      12.10885719
Si       1.64918645       3.75314500       4.84512182
Si       5.04436297       0.73117819       7.11046108
Si       3.86214313       3.80574279      13.10979307
Si       3.50864242       2.65996987      14.86375719
Si       7.33747766       5.22263912       6.21616441
Si       5.86267709       2.64067209       1.75132810
Si       4.95461527       4.62337544       9.09194441
Si       4.18440754       2.51892584       0.43025749
Si       4.28670910       4.61515877      15.03444595
Si       5.02097763       2.70832679      10.01948765
Si       4.47944676       4.37977444      11.16654956
Si       2.20408453       3.23287353       0.75317042
Si       0.66794749      -0.69141638       8.05171810
Si       1.52287180       2.69195836      15.62600510
Si       6.71185268       5.52786629       8.23131589
Si       3.41047761       2.62229934       4.31145559
Si       3.79242219       6.22825577       6.13426417
Si       5.47814624       2.65065301       3.84391979
Si       5.45486811       0.81114756       9.17319337
Si       5.48358274       3.06242160      14.19930202
Si       5.12779015       0.90880123       5.00198865
22
Lattice="5.4753943572472075 -0.1451376063815517 -0.035479996298813134 2.682185733977202 6.335171577557726 0.07205017595396732 0.8647589149834871 0.5475970270134595 15.841136158166227" Properties=species:S:1:pos:R:3 unique_starting_index=40 config_type=initial n_minim_iter=12 stress="5.5784459874493e-05 -7.950833194121946e-06 -6.651670850063104e-06 -7.950833194121946e-06 4.525384854363599e-05 -4.964356468561849e-06 -6.651670850063104e-06 -4.964356468561849e-06 1.5854958996627577e-05" pbc="T T T"
Si       5.36405457       2.69615021      12.10856826
Si       1.64922051       3.75298630       4.84502160
Si       5.04393870       0.73109609       7.11040970
Si       3.86233924       3.80592542      13.10983442
Si       3.50898303       2.66005582      14.86360778
Si       7.33716210       5.22322643       6.21606587
Si       5.86304691       2.64071850       1.75101329
Si       4.95464683       4.62360852       9.09162172
Si       4.18477951       2.51946019       0.43005297
Si       4.28675265       4.61542022      15.03448219
Si       5.02095007       2.70859749      10.01926446
Si       4.47922785       4.37959189      11.16625742
Si       2.20452126       3.23296960       0.75296229
Si       0.66776020      -0.69141446       8.05177000
Si       1.52306375       2.69169401      15.62582248
Si       6.71218546       5.52828879       8.23121281
Si       3.41084101       2.62181656       4.31163045
Si       3.79219937       6.22877369       6.13389910
Si       5.47833556       2.65080804       3.84366086
Si       5.45448977       0.81132618       9.17294809
Si       5.48380067       3.06248319      14.19910373
Si       5.12751897       0.90940607       5.00195866
22
Lattice="5.4753805679254315 -0.1448329308232468 -0.03552401950049838 2.6825408014477037 6.335637228844682 0.07166810514752213 0.8646377320346575 0.5467824578924498 15.841064784296785" Properties=species:S:1:pos:R:3 unique_starting_index=40 config_type=initial n_minim_iter=13 stress="3.5899954418744953e-05 2.6512313237323984e-05 -1.937280042400665e-05 2.6512313237323984e-05 -2.6337806783287044e-05 -7.880108401981526e-06 -1.937280042400665e-05 -7.880108401981526e-06 4.193681794144914e-05" pbc="T T T"
Si       5.36438292       2.69630516      12.10820954
Si       1.64935995       3.75238507       4.84489961
Si       5.04324020       0.73098122       7.11036935
Si       3.86268110       3.80592491      13.10963442
Si       3.50940667       2.65970591      14.86328809
Si       7.33680599       5.22341402       6.21561599
Si       5.86358065       2.64055315       1.75074255
Si       4.95471724       4.62368238       9.09113560
Si       4.18539436       2.52004167       0.42966185
Si       4.28701715       4.61529517      15.03445164
Si       5.02097035       2.70846742      10.01887386
Si       4.47891780       4.37898166      11.16585892
Si       2.20488122       3.23287151       0.75284894
Si       0.66776675      -0.69147594       8.05194185
Si       1.52353893       2.69106517      15.62552791
Si       6.71240912       5.52849333       8.23120106
Si       3.41123773       2.62093207       4.31186352
Si       3.79163891       6.22900960       6.13332306
Si       5.47866463       2.65084509       3.84320320
Si       5.45391237       0.81159962       9.17265305
Si       5.48411014       3.06239361      14.19883139
Si       5.12716780       0.91011549       5.00196158
22
Lattice="5.475406301241871 -0.14462646855419958 -0.03560306352251458 2.6828092849419063 6.336375823933064 0.07142100214058265 0.864421451333541 0.5463585053942237 15.84090345350908" Properties=species:S:1:pos:R:3 unique_starting_index=40 config_type=initial n_minim_iter=14 stress="5.501105294342568e-05 4.0522371907307985e-05 -1.6832576765597607e-05 4.0522371907307985e-05 2.838180739034521e-05 4.687561515834293e-06 -1.6832576765597607e-05 4.687561515834293e-06 4.957930816041308e-05" pbc="T T T"
Si       5.36459884       2.69666951      12.10789720
Si       1.64952179       3.75216398       4.84483878
Si       5.04260969       0.73073656       7.11026583
Si       3.86283995       3.80632083      13.10940058
Si       3.50957934       2.65963383      14.86285376
Si       7.33651280       5.22395334       6.21523461
Si       5.86400364       2.64057440       1.75063578
Si       4.95478796       4.62405731       9.09084255
Si       4.18589888       2.52065822       0.42943895
Si       4.28719971       4.61556492      15.03430178
Si       5.02094955       2.70865873      10.01851237
Si       4.47855490       4.37906838      11.16534149
Si       2.20518620       3.23310901       0.75291367
Si       0.66753829      -0.69135291       8.05186871
Si       1.52372833       2.69084535      15.62506374
Si       6.71259747       5.52912581       8.23110786
Si       3.41151586       2.62046499       4.31199069
Si       3.79112965       6.22960814       6.13295734
Si       5.47888138       2.65119646       3.84271073
Si       5.45343394       0.81187982       9.17234164
Si       5.48437332       3.06271680      14.19844560
Si       5.12682808       0.91063322       5.00199471
22
Lattice="5.475059357464895 -0.14450732386272558 -0.035799334452675045 2.6827860932687773 6.336899005875579 0.07104081715853201 0.8637919102929809 0.5457196545162099 15.84061760089522" Properties=species:S:1:pos:R:3 unique_starting_index=40 config_type=initial n_minim_iter=15 stress="5.175900068629366e-06 1.8686260875404084e-05 -1.0501655122968955e-05 1.8686260875404084e-05 1.1221161980156447e-05 7.70641328038706e-06 -1.0501655122968955e-05 7.70641328038706e-06 4.460563737675443e-05" pbc="T T T"
Si       5.36414659       2.69684920      12.10729919
Si       1.64956477       3.75159900       4.84476686
Si       5.04114759       0.73036281       7.10989869
Si       3.86246964       3.80644336      13.10896590
Si       3.50934724       2.65922393      14.86204646
Si       7.33523451       5.22404553       6.21462545
Si       5.86404536       2.64026779       1.75036039
Si       4.95423328       4.62410555       9.09043581
Si       4.18607250       2.52120318       0.42913888
Si       4.28682425       4.61534172      15.03390480
Si       5.02034908       2.70874463      10.01802202
Si       4.47743140       4.37897073      11.16442465
Si       2.20541629       3.23328130       0.75303203
Si       0.66728398      -0.69141152       8.05189158
Si       1.52346500       2.69028589      15.62430718
Si       6.71182821       5.52930916       8.23082812
Si       3.41154766       2.61967476       4.31199700
Si       3.79019626       6.22989430       6.13232990
Si       5.47841674       2.65129315       3.84216069
Si       5.45228838       0.81189257       9.17183461
Si       5.48398592       3.06287907      14.19775693
Si       5.12582472       0.91120474       5.00179133
22
Lattice="5.474881628179425 -0.14431691107485736 -0.03607403071498062 2.6829293665331693 6.3374848912553405 0.07073986369563717 0.8629780926330748 0.5453838683968218 15.840438058540192" Properties=species:S:1:pos:R:3 unique_starting_index=40 config_type=initial n_minim_iter=16 stress="-4.721509944997323e-06 8.373005875700552e-06 -9.540899315517387e-06 8.373005875700552e-06 1.89889135618396e-05 9.356779529468854e-06 -9.540899315517387e-06 9.356779529468854e-06 2.2188347886683218e-05" pbc="T T T"
Si       5.36360756       2.69748790      12.10667933
Si       1.64980954       3.75112777       4.84483239
Si       5.03988172       0.73030959       7.10952532
Si       3.86213698       3.80688210      13.10841232
Si       3.50909575       2.65912767      14.86133559
Si       7.33433809       5.22433952       6.21417367
Si       5.86432676       2.64003778       1.74990674
Si       4.95374186       4.62442464       9.09019281
Si       4.18638629       2.52166599       0.42880339
Si       4.28640413       4.61544281      15.03358476
Si       5.01982554       2.70921709      10.01761801
Si       4.47634759       4.37924411      11.16374738
Si       2.20577358       3.23358070       0.75311409
Si       0.66665405      -0.69132728       8.05184938
Si       1.52324429       2.69005861      15.62390841
Si       6.71126966       5.52947292       8.23052562
Si       3.41124369       2.61912897       4.31202378
Si       3.78922501       6.23024473       6.13184654
Si       5.47833352       2.65162926       3.84177882
Si       5.45125620       0.81200644       9.17140110
Si       5.48355800       3.06350717      14.19710108
Si       5.12487793       0.91187296       5.00147055
22
Lattice="5.474461473353163 -0.14399192020889484 -0.03653329241113858 2.683120684438776 6.338588085039541 0.07039693354970568 0.8616101696330137 0.545229321168548 15.840230848845016" Properties=species:S:1:pos:R:3 unique_starting_index=40 config_type=initial n_minim_iter=17 stress="-4.7612205959677967e-05 -2.8854261066040637e-05 3.075540026096698e-05 -2.8854261066040637e-05 4.2344849696521504e-05 2.3574057329444545e-05 3.075540026096698e-05 2.3574057329444545e-05 -5.4531423834273914e-05" pbc="T T T"
Si       5.36304854       2.69944145      12.10578994
Si       1.65093117       3.74989771       4.84559229
Si       5.03685451       0.72984748       7.10896235
Si       3.86134552       3.80849655      13.10780861
Si       3.50900594       2.65959708      14.85989099
Si       7.33195157       5.22472103       6.21408598
Si       5.86525951       2.63908078       1.74923291
Si       4.95234680       4.62586056       9.08990362
Si       4.18751342       2.52202863       0.42780158
Si       4.28554908       4.61630836      15.03328076
Si       5.01890358       2.71034495      10.01651287
Si       4.47392772       4.38046704      11.16272815
Si       2.20680296       3.23422300       0.75320380
Si       0.66561698      -0.69107452       8.05183537
Si       1.52342905       2.69025549      15.62342746
Si       6.71001808       5.52959078       8.22997202
Si       3.41076281       2.61780830       4.31217142
Si       3.78684526       6.23123909       6.13090572
Si       5.47783463       2.65275547       3.84141729
Si       5.44900570       0.81261656       9.17102911
Si       5.48350595       3.06549120      14.19642537
Si       5.12263911       0.91314417       5.00114639
22
Lattice="5.4743599745295795 -0.14400805036802058 -0.036820189261094594 2.6830403934727225 6.338432429603698 0.06978424179702798 0.8607285699803303 0.5440503468757099 15.839841296557607" Properties=species:S:1:pos:R:3 unique_starting_index=40 config_type=initial n_minim_iter=18 stress="-5.510210443220545e-05 -6.118472110547674e-05 2.22058426766525e-05 -6.118472110547674e-05 1.3314106410160555e-05 -2.557080510962044e-05 2.22058426766525e-05 -2.557080510962044e-05 -8.4787112038545e-05" pbc="T T T"
Si       5.36262537       2.69936173      12.10487678
Si       1.65135528       3.74856295       4.84575830
Si       5.03537248       0.72902130       7.10860524
Si       3.86066320       3.80800729      13.10707585
Si       3.50871815       2.65859912      14.85884417
Si       7.33068308       5.22341280       6.21321302
Si       5.86575821       2.63798683       1.74892089
Si       4.95142713       4.62548540       9.08926848
Si       4.18792008       2.52170043       0.42717115
Si       4.28472555       4.61525123      15.03261074
Si       5.01833195       2.70976904      10.01562909
Si       4.47254664       4.37979753      11.16175403
Si       2.20747568       3.23405281       0.75280237
Si       0.66489790      -0.69125116       8.05159064
Si       1.52341318       2.68905709      15.62265372
Si       6.70909044       5.52825520       8.22933080