14
Lattice="8.89373987661242 -0.3406694789353146 2.5140892898887444 -0.345861333141859 8.77083988072304 -0.7048378011553693 -1.8135783447993892 -0.47263593516333985 5.682890569261904" Properties=species:S:1:pos:R:3 unique_starting_index=20 config_type=initial n_minim_iter=1 energy=-2275.2509092854116 free_energy=-2275.2509092854116 pbc="T T T"
Si       5.20336808       4.71802007       6.89413689
Si       6.78825506       3.10937124       2.08250473
Si       1.53093212       3.23951440       0.59800516
Si      -0.05395486       4.84816323       5.40963733
Si       6.39652011       5.17525976       5.16529642
Si       6.97413030       2.50473744       4.19208980
Si       0.33778008       2.78227470       2.32684563
Si      -0.23983010       5.45279702       3.30005226
Si       1.74605120       4.97447814       1.79846710
Si       0.94579377       3.13698377       4.57966324
Si       4.98824900       2.98305632       5.69367496
Si       5.78850643       4.82055070       2.91247882
Si       4.09669972       5.38577418       1.13517999
Si       2.63760048       2.57176029       6.35696207
14
Lattice="8.800513691898736 -0.2981133993015067 2.6102965597203425 -0.2936420999000948 8.822382970046922 -0.7482649569210168 -1.7377173937063923 -0.5111047470102545 5.686033706549" Properties=species:S:1:pos:R:3 unique_starting_index=20 config_type=initial n_minim_iter=2 stress="-0.005278784644564811 -0.005249061439134744 0.009159243827158815 -0.005249061439134744 -0.008531112566119223 0.0059690400955907585 0.009159243827158815 0.0059690400955907585 -0.00526985709321999" pbc="T T T"
Si       5.23010136       4.75168403       6.94678785
Si       6.73745782       3.15851446       2.14856868
Si       1.53905284       3.26148080       0.60127746
Si       0.03169638       4.85465036       5.39949663
Si       6.39499644       5.22260856       5.22271565
Si       6.93858982       2.54504569       4.26274946
Si       0.37415776       2.79055626       2.32534966
Si      -0.16943562       5.46811914       3.28531585
Si       1.77135343       5.00720929       1.80510730
Si       0.99582153       3.14146611       4.59215967
Si       4.99780077       3.00595554       5.74295801
Si       5.77333267       4.87169872       2.95590564
Si       4.08951654       5.43508942       1.15654928
Si       2.67963766       2.57807541       6.39151603
14
Lattice="8.787023681070174 -0.2780374890112468 2.6086366920655775 -0.26334828030394825 8.86270422234504 -0.7776079585520804 -1.7433454656663627 -0.5372835512637971 5.70460108092046" Properties=species:S:1:pos:R:3 unique_starting_index=20 config_type=initial n_minim_iter=3 stress="0.001444712260893941 -0.0021202795426706984 -0.00014789140021797338 -0.0021202795426706984 -0.0034515237327439946 -0.0018468987020324537 -0.00014789140021797338 -0.0018468987020324537 0.031284470736615756" pbc="T T T"
Si       5.23227491       4.77023364       6.94265592
Si       6.73717971       3.18640767       2.13925217
Si       1.54805503       3.27714954       0.59297390
Si       0.04315022       4.86097551       5.39637764
Si       6.39942634       5.25073785       5.21316395
Si       6.93395787       2.56642318       4.25837167
Si       0.38090359       2.79664533       2.32246587
Si      -0.15362794       5.48096000       3.27725815
Si       1.78362512       5.02972328       1.79346924
Si       1.00098469       3.14378975       4.59245098
Si       4.99670481       3.01765990       5.74216057
Si       5.77934524       4.90359343       2.94317884
Si       4.10276822       5.46750695       1.13889223
Si       2.67756171       2.57987623       6.39673759
14
Lattice="8.689785181442343 -0.13174044902839585 2.5112378949974876 -0.06206809903309687 9.137423068579073 -0.9013569223630988 -1.7684511309239785 -0.6835994372728162 5.596066985521658" Properties=species:S:1:pos:R:3 unique_starting_index=20 config_type=initial n_minim_iter=4 stress="-0.003110103533170791 0.007457210660876038 -0.00635289231244634 0.007457210660876038 -0.004957671684550828 -0.007698732741490715 -0.00635289231244634 -0.007698732741490715 -0.010915343127065899" pbc="T T T"
Si       5.25107470       4.93507916       6.67134502
Si       6.72923815       3.38387906       2.01587704
Si       1.60819125       3.38700402       0.53460294
Si       0.13002780       4.93820412       5.19007092
Si       6.42898144       5.46995766       4.98120698
Si       6.90021868       2.73323462       4.08655774
Si       0.43028451       2.85212552       2.22474098
Si      -0.04095273       5.58884856       3.11939022
Si       1.86546125       5.19457040       1.66535479
Si       1.04269031       3.18424075       4.42898491
Si       4.99380471       3.12751279       5.54059317
Si       5.81657564       5.13784244       2.77696305
Si       4.18867548       5.69242369       1.01143854
Si       2.67059047       2.62965950       6.19450942
14
Lattice="8.714914550603588 -0.12954777477434898 2.5138595677223905 -0.06274628854409554 9.25432484907636 -0.8796596128837596 -1.7658658478708025 -0.6772781980402248 5.575164339346781" Properties=species:S:1:pos:R:3 unique_starting_index=20 config_type=initial n_minim_iter=5 stress="0.0034733645947825497 -0.0007203740538225129 -0.006110297531874942 -0.0007203740538225129 0.013386351991630721 0.0002666659715197882 -0.006110297531874942 0.0002666659715197882 -0.010583430326053434" pbc="T T T"
Si       5.26743436       5.01781499       6.66543880
Si       6.74738251       3.42214619       2.02895959
Si       1.61886806       3.42968389       0.54392550
Si       0.13891990       5.02535269       5.18040470
Si       6.45124192       5.55362339       4.98369087
Si       6.91968824       2.77821084       4.08697816
Si       0.43506049       2.89387548       2.22567343
Si      -0.03338583       5.66928804       3.12238614
Si       1.87049421       5.26530611       1.67557004
Si       1.05217153       3.23141998       4.42133516
Si       5.01580821       3.18219277       5.53379425
Si       5.83413089       5.21607890       2.78802914
Si       4.20406239       5.76042647       1.02837335
Si       2.68224002       2.68707241       6.18099094
14
Lattice="8.824559019580972 -0.06741425429938336 2.531539783279369 -0.023178975546848626 9.062688171763492 -0.8488756877724517 -1.7714837920465905 -0.6576812894774428 5.546883706521167" Properties=species:S:1:pos:R:3 unique_starting_index=20 config_type=initial n_minim_iter=6 stress="-0.000612962656119147 -0.0020566945303381844 0.0031349000884787807 -0.0020566945303381844 0.0027429213231452915 -0.0009989830058794826 0.0031349000884787807 -0.0009989830058794826 -0.009925303391698352" pbc="T T T"
Si       5.34327254       4.96242215       6.67181943
Si       6.84073800       3.37480947       2.06770142
Si       1.68662371       3.37517048       0.55772837
Si       0.18915826       4.96278316       5.16184639
Si       6.57001415       5.50134934       4.99141691
Si       7.01333976       2.77639090       4.09868328
Si       0.45988211       2.83624329       2.23813089
Si       0.01655649       5.56120173       3.13086452
Si       1.91180617       5.16451299       1.69891294
Si       1.09286859       3.16939880       4.41196746
Si       5.11809009       3.17307964       5.53063486
Si       5.93702766       5.16819382       2.81758034
Si       4.29559853       5.63483674       1.06842909
Si       2.73429772       2.70275589       6.16111871
14
Lattice="8.820132125927728 0.04278801489859646 2.6762326392105034 0.0242566113801471 8.848610947037171 -0.7011867379719521 -1.7050267235426713 -0.5504911367796474 5.6358547571698026" Properties=species:S:1:pos:R:3 unique_starting_index=20 config_type=initial n_minim_iter=7 stress="-0.005950624237165743 -0.004151866782198806 0.0052382371931118 -0.004151866782198806 0.007897055431329108 0.0066203178455831405 0.0052382371931118 0.0066203178455831405 0.011087424260933237" pbc="T T T"
Si       5.40565853       5.01971351       6.94947301
Si       6.84684459       3.37944016       2.22661957
Si       1.73370348       3.32119432       0.66142764
Si       0.29251742       4.96146767       5.38428109
Si       6.63524599       5.52702242       5.26122069
Si       7.03928647       2.83779600       4.31929180
Si       0.50411603       2.81388541       2.34967997
Si       0.10007554       5.50311183       3.29160886
Si       1.94969542       5.09834226       1.84052663
Si       1.16037543       3.18283910       4.55782470
Si       5.18966659       3.24256557       5.77037403
Si       5.97898658       5.15806872       3.05307596
Si       4.33524172       5.52597509       1.25479919
Si       2.80412030       2.81493274       6.35610147
14
Lattice="8.929615365947 0.11096515285664402 2.802724480916083 0.06525375885775972 8.708750988567978 -0.67784447827348 -1.6562188929627293 -0.5324611710044255 5.659767195726432" Properties=species:S:1:pos:R:3 unique_starting_index=20 config_type=initial n_minim_iter=8 stress="-0.003520403842110829 -0.0009870091310197708 0.0013287223615483924 -0.0009870091310197708 -0.006445135853028503 -0.0015907283048469335 0.0013287223615483924 -0.0015907283048469335 0.023995104723284262" pbc="T T T"
Si       5.54090462       5.00815376       7.07030464
Si       6.93860035       3.36791345       2.32986010
Si       1.79774561       3.27910121       0.71434256
Si       0.40004988       4.91934152       5.45478709
Si       6.78351560       5.50951648       5.39559271
Si       7.15654180       2.85476740       4.45033937
Si       0.55513464       2.77773849       2.38905449
Si       0.18210843       5.43248757       3.33430783
Si       2.01033844       5.04016814       1.88767054
Si       1.24191752       3.14872459       4.60304170
Si       5.32831180       3.24708683       5.89697665
Si       6.09673271       5.13853038       3.18160550
Si       4.42400333       5.43718396       1.34779702
Si       2.91464690       2.85007101       6.43685018
14
Lattice="9.037538385094809 0.20268441015783392 2.8010235114945345 0.1552828194100095 8.788400319261857 -0.6799261552800148 -1.6783464745744885 -0.5595455855192907 5.635435136743573" Properties=species:S:1:pos:R:3 unique_starting_index=20 config_type=initial n_minim_iter=9 stress="0.007795100419942755 0.00173005862982511 0.004136085696253434 0.00173005862982511 0.00468366004107713 0.003331280982068336 0.004136085696253434 0.003331280982068336 0.01369805539094701" pbc="T T T"
Si       5.64675618       5.11006461       7.04208303
Si       7.04402390       3.46599754       2.32650955
Si       1.86771855       3.32147454       0.71444946
Si       0.47045083       4.96554161       5.43002295
Si       6.92377324       5.62728431       5.37350618
Si       7.26816419       2.95111917       4.44015452
Si       0.59070149       2.80425483       2.38302631
Si       0.24631054       5.48041998       3.31637798
Si       2.08284745       5.11146715       1.87576687
Si       1.28435764       3.18481787       4.58322258
Si       5.43162728       3.32007199       5.88076563
Si       6.23011709       5.24672127       3.17330992
Si       4.53141750       5.52013414       1.35652198
Si       2.98305723       2.91140500       6.40001051
14
Lattice="8.9250161387126 0.18715806237521287 2.683688498542511 0.1685849174336289 8.88425147466838 -0.7197861954682617 -1.7231739884516883 -0.5972791094647887 5.607764587499335" Properties=species:S:1:pos:R:3 unique_starting_index=20 config_type=initial n_minim_iter=10 stress="-0.003925432044107239 0.0012866637549377592 -0.0025589505846234334 0.0012866637549377592 0.003427791841119138 0.004481176133724855 -0.0025589505846234334 0.004481176133724855 -0.008469204162202539" pbc="T T T"
Si       5.50602336       5.12681625       6.89140034
Si       6.94182827       3.48195504       2.22302422
Si       1.86440371       3.34731418       0.68026655
Si       0.42859880       4.99217538       5.34864268
Si       6.80947076       5.65517133       5.22474155
Si       7.15369366       2.95682124       4.31495264
Si       0.56095630       2.81895910       2.34692534
Si       0.21673341       5.51730919       3.25671425
Si       2.04216357       5.16041321       1.81023635
Si       1.21750603       3.18873559       4.51408550
Si       5.32826350       3.31371722       5.76143054
Si       6.15292104       5.28539483       3.05758139
Si       4.47491560       5.55859685       1.28919794
Si       2.89551147       2.91553358       6.28246895
14
Lattice="8.977896171652969 0.09478060277078859 2.676267513993434 0.0983651718534702 8.928150346528584 -0.792900272434672 -1.7260342918383598 -0.635228696096387 5.575186870129817" Properties=species:S:1:pos:R:3 unique_starting_index=20 config_type=initial n_minim_iter=11 stress="0.0024625561723282314 0.0012400200747198044 -0.0024123617921165057 0.0012400200747198044 -0.004220789375726238 -0.007490383573696263 -0.0024123617921165057 -0.007490383573696263 -0.00667864870612879" pbc="T T T"
Si       5.48961319       5.04833753       6.79455750
Si       6.94218773       3.42217348       2.19633061
Si       1.86061386       3.33936472       0.66399662
Si       0.40803932       4.96552877       5.26222350
Si       6.80601779       5.57860420       5.15053964
Si       7.17404132       2.87805338       4.27239926
Si       0.54420927       2.80909806       2.30801447
Si       0.17618574       5.50964887       3.18615485
Si       2.00652107       5.15375548       1.75399239
Si       1.19075656       3.15492554       4.45476304
Si       5.34370598       3.23394678       5.70456172
Si       6.15947049       5.23277672       3.00379107
Si       4.44931484       5.53973498       1.25837176
Si       2.90091221       2.84796728       6.20018235
14
Lattice="9.027285390320698 0.10406147496566491 2.6488407622317838 0.0815748644313981 8.898315083198812 -0.7042736280621293 -1.7419853701513535 -0.576161863719233 5.540250198564168" Properties=species:S:1:pos:R:3 unique_starting_index=20 config_type=initial n_minim_iter=12 stress="0.0073361246991528704 0.0026279476787641302 -0.007496047224119379 0.0026279476787641302 0.007948006734653465 0.000162698233512456 -0.007496047224119379 0.000162698233512456 -0.002712468387980252" pbc="T T T"
Si       5.48269070       5.10274389       6.77017844
Si       6.94730960       3.41739019       2.22433383
Si       1.88418419       3.32347081       0.71463889
Si       0.41956529       5.00882451       5.26048351
Si       6.82493569       5.59847546       5.16261602
Si       7.20092169       2.90364296       4.26512589
Si       0.54193919       2.82773924       2.32220131
Si       0.16595319       5.52257173       3.21969144
Si       1.99238698       5.16360086       1.79204615
Si       1.16856436       3.18917071       4.44274151
Si       5.37448790       3.26261383       5.69277118
Si       6.19831052       5.23704399       3.04207583
Si       4.45130056       5.51969096       1.33318953
Si       2.91557432       2.90652373       6.15162781
14
Lattice="9.14357755801871 0.07456733982478046 2.7302480827284445 0.010479952257412474 8.73465010334755 -0.6166650712642439 -1.7120661502838503 -0.4938148796786747 5.551237584931063" Properties=species:S:1:pos:R:3 unique_starting_index=20 config_type=initial n_minim_iter=13 stress="0.008945267687373122 -0.0001381431552969484 -0.00452013178157569 -0.0001381431552969484 0.009866532342355494 -0.0021188007365354226 -0.00452013178157569 -0.0021188007365354226 0.0192633201066218" pbc="T T T"
Si       5.50570848       5.06724254       6.86426816
Si       6.96386531       3.32433014       2.32628368
Si       1.93628288       3.24816002       0.80055243
Si       0.47812605       4.99107242       5.33853691
Si       6.89279857       5.50823249       5.28452526
Si       7.28171887       2.85970278       4.38910936
Si       0.54919279       2.80717008       2.38029534
Si       0.16027249       5.45569979       3.27571124
Si       1.96341670       5.09509213       1.86351322
Si       1.15660772       3.16229865       4.48400834
Si       5.47857466       3.22031043       5.80130738
Si       6.28538364       5.15310392       3.18081226
Si       4.45217904       5.37315038       1.49670405
Si       2.98981232       2.94225219       6.16811654
14
Lattice="9.238535986579114 0.0838475819147517 2.7627438842932057 -0.02593560109690306 8.51996622099594 -0.5067314212622446 -1.702928728866437 -0.4044938025682843 5.534226444577621" Properties=species:S:1:pos:R:3 unique_starting_index=20 config_type=initial n_minim_iter=14 stress="0.00883151815846716 -0.0014811605074021132 -0.004712352687815294 -0.0014811605074021132 0.0029083902313266335 -0.003344101965761648 -0.004712352687815294 -0.003344101965761648 0.017787318418361047" pbc="T T T"
Si       5.52556621       5.03598882       6.91401942
Si       6.98290416       3.24137103       2.39982793
Si       1.98410545       3.16333118       0.87621949
Si       0.52676750       4.95794897       5.39041098
Si       6.95429583       5.41668959       5.35849816
Si       7.34988903       2.83975995       4.46992636
Si       0.55537583       2.78263041       2.43174075
Si       0.15978263       5.35956005       3.32031255
Si       1.94050351       5.00691628       1.93258982
Si       1.13709416       3.12811574       4.50019367
Si       5.56916815       3.19240372       5.85764909
Si       6.37257749       5.07120426       3.29004524
Si       4.46210458       5.22478519       1.64895261
Si       3.04756707       2.97453481       6.14128629
14
Lattice="9.231671555237309 0.17403586496300125 2.8212009423734394 0.03419830937725481 8.365197483177468 -0.4412373098546582 -1.6660172693380033 -0.3651069857613718 5.529121212793483" Properties=species:S:1:pos:R:3 unique_starting_index=20 config_type=initial n_minim_iter=15 stress="-0.0036128130903329927 -0.0020402196565408896 0.005801801032044469 -0.0020402196565408896 -0.0032549392551806007 0.00048032144211002423 0.005801801032044469 0.00048032144211002423 -0.0013854764238521685" pbc="T T T"
Si       5.59244269       5.05259066       6.99406832
Si       6.99945632       3.23788910       2.46490319
Si       2.00740990       3.12153571       0.91501652
Si       0.60039628       4.93623726       5.44418166
Si       7.01335485       5.40367230       5.43876694
Si       7.37686747       2.89328336       4.55951494
Si       0.58649775       2.77045406       2.47031791
Si       0.22298512       5.28084300       3.34956990
Si       1.96641559       4.95175428       1.98827507
Si       1.17640816       3.10340410       4.52872931
Si       5.63343701       3.22237209       5.92080978
Si       6.42344443       5.07072226       3.38035553
Si       4.49670565       5.16464315       1.74563924
Si       3.10314695       3.00948321       6.16344560
14
Lattice="9.24605831763793 0.2237347387891667 2.827507416719071 0.07030373395562717 8.255720199128223 -0.41416103421320233 -1.6619328360488903 -0.35040895880146117 5.511197939711251" Properties=species:S:1:pos:R:3 unique_starting_index=20 config_type=initial n_minim_iter=16 stress="-0.008944891774017241 -0.0006684802514316758 0.0049678637866466405 -0.0006684802514316758 0.0013595589692683042 0.001622450393502761 0.0049678637866466405 0.001622450393502761 -0.004571923538290687" pbc="T T T"
Si       5.62592425       5.05258798       6.99467302
Si       7.02003881       3.22018497       2.47864376
Si       2.02850496       3.07645799       0.92987130
Si       0.63439041       4.90886101       5.44590056
Si       7.05615904       5.36721514       5.43950630
Si       7.39446741       2.92092608       4.58552858
Si       0.59827017       2.76183084       2.48503802
Si       0.25996181       5.20811990       3.33901574
Si       1.96763129       4.91351471       2.00509960
Si       1.18400819       3.07379443       4.51873948
Si       5.68679792       3.21553126       5.91944472
Si       6.47042102       5.05525154       3.40580484
Si       4.52097033       5.11018491       1.79836949
Si       3.13345889       3.01886107       6.12617483
14
Lattice="9.2943437336679 0.26361509331514965 2.820695506265098 0.09300466113463704 8.070494743246293 -0.3851689705562742 -1.6781485468770458 -0.32674771338903563 5.514041658500076" Properties=species:S:1:pos:R:3 unique_starting_index=20 config_type=initial n_minim_iter=17 stress="-0.011653533643482426 0.00381916827121154 0.009143195390500748 0.00381916827121154 -0.012761054768422295 -0.001411878723036608 0.009143195390500748 -0.001411878723036608 -0.009779633825796047" pbc="T T T"
Si       5.68583576       5.01002463       7.01893743
Si       7.09093485       3.17028920       2.48213152
Si       2.02336408       2.99733749       0.93063077
Si       0.61826500       4.83707292       5.46743667
Si       7.11451711       5.27232681       5.45355181
Si       7.42734264       2.92476694       4.60260226
Si       0.59468273       2.73503532       2.49601639
Si       0.28185720       5.08259519       3.34696593
Si       1.97022593       4.82822897       2.02394753
Si       1.19948173       3.02727248       4.54097022
Si       5.73897392       3.17913316       5.92562067
Si       6.50971812       4.98008964       3.40859798
Si       4.55566640       5.02034392       1.82884846
Si       3.15353345       2.98701821       6.12071974
14
Lattice="9.357194174391044 0.3049430855419283 2.824802709200491 0.11394344273837724 7.891114144950926 -0.3491658016136506 -1.6875189626991327 -0.29900877331995246 5.507125175208661" Properties=species:S:1:pos:R:3 unique_starting_index=20 config_type=initial n_minim_iter=18 stress="-0.01934542536126012 0.004784310173724227 0.011214169855783749 0.004784310173724227 -0.006039452912736916 0.0009957287913199549 0.011214169855783749 0.0009957287913199549 -0.0048535100114513756" pbc="T T T"
Si       5.75363117       4.97898986       7.03656301
Si       7.16832193       3.11425696       2.49866602
Si       2.02998748       2.91805859       0.94619907
Si       0.61529672       4.78279150       5.48409607
Si       7.18723093       5.17924190       5.47042903
Si       7.46905323       2.93907465       4.62871774
Si       0.59638773       2.71780656       2.51233306
Si       0.31456543       4.95797380       3.35404435
Si       1.97233057       4.74766366       2.04482930
Si       1.21655558       2.98128784       4.55310094
Si       5.81128808       3.14938480       5.93793278
Si       6.56706307       4.91576062       3.42966114
Si       4.59406515       4.93012195       1.88711192
Si       3.18955350       2.96692650       6.09565017
14
Lattice="9.437278238974347 0.31869699441905086 2.793107236866506 0.11913774938563555 7.741677589529395 -0.3419384399501919 -1.7225770770892723 -0.2892649418654888 5.500465092838597" Properties=species:S:1:pos:R:3 unique_starting_index=20 config_type=initial n_minim_iter=19 stress="-0.01939409909780622 0.005879421512318553 0.008730732075713277 0.005879421512318553 -0.01056582976934528 0.0007372352510392108 0.008730732075713277 0.0007372352510392108 -0.008534124478467364" pbc="T T T"
Si       5.80652129       4.92854958       7.01658662
Si       7.25990882       3.04926494       2.47675322
Si       2.02731762       2.84256006       0.93504727
Si       0.57393009       4.72184471       5.47488067
Si       7.24743262       5.07079687       5.43877470
Si       7.51412064       2.93116541       4.60570582
Si       0.58640629       2.70031277       2.51285919
Si       0.31971828       4.83994423       3.34592807
Si       1.97609086       4.67170340       2.03922391
Si       1.21787100       2.92962720       4.55033364
Si       5.85774805       3.09940624       5.91240998
Si       6.61596791       4.84148244       3.40130025
Si       4.63094084       4.84445030       1.89412716
Si       3.20289807       2.92665934       6.05750673
14
Lattice="9.443645487578612 0.29629158943222217 2.768280968793988 0.10686515161766466 7.769811864951067 -0.3667920247605333 -1.738804293179135 -0.30508611686383846 5.499227260126836" Properties=species:S:1:pos:R:3 unique_starting_index=20 config_type=initial n_minim_iter=20 stress="0.00019770807002955198 0.002897776604942521 -0.007335339849604844 0.002897776604942521 -0.0027532250128811733 0.0038286097049660284 -0.007335339849604844 0.0038286097049660284 -0.002959479010309166" pbc="T T T"
Si       5.79912946       4.91749794       6.98373883
Si       7.27265509       3.03923288       2.44978044
Si       2.01257689       2.84351940       0.91697738
Si       0.53905125       4.72178446       5.45093577
Si       7.23501957       5.05555699       5.40314822
Si       7.50924916       2.91922265       4.56739043
Si       0.57668677       2.70546035       2.49756798
Si       0.30245719       4.84179469       3.33332577
Si       1.97363048       4.67750166       2.01588476
Si       1.20861249       2.92636580       4.53899265
Si       5.83807587       3.08351567       5.88483145
Si       6.60309385       4.83465154       3.36172356
Si       4.62630023       4.85293639       1.85975235
Si       3.18540612       2.90808095       6.04096385
14
Lattice="9.51077098738412 0.25811075807509903 2.8165308729661565 0.07657822446295542 7.818269738285416 -0.40904599710418793 -1.7130053800402036 -0.329949911041653 5.472413593188062" Properties=species:S:1:pos:R:3 unique_starting_index=20 config_type=initial n_minim_iter=21 stress="-0.006988532179386907 0.0016412321868096594 0.003991477855803776 0.0016412321868096594 0.003248417060352582 -0.0010943972728126978 0.003991477855803776 -0.0010943972728126978 -0.02466236619850641" pbc="T T T"
Si       5.84041209       4.89927102       6.95808555
Si       7.30417383       3.01614397       2.47536665
Si       2.03393174       2.84715957       0.92181292
Si       0.57017000       4.73028662       5.40453182
Si       7.27496599       5.03778157       5.39840776
Si       7.56082874       2.89379266       4.57807976
Si       0.59937784       2.70864902       2.48149071
Si       0.31351509       4.85263793       3.30181871
Si       1.98588220       4.69067214       1.99764925
Si       1.23216197       2.91545206       4.51177585
Si       5.88846163       3.05575845       5.88224922
Si       6.64218186       4.83097852       3.36812262
Si       4.64648091       4.84262343       1.86313320
Si       3.22786292       2.90380715       6.01676527
