16
Lattice="8.351433998839296 0.5844663274099191 -0.04188554875692907 2.2623294420459086 7.996327633139224 0.8960226312957426 2.6037460492716624 3.376951308348364 9.619819426710889" Properties=species:S:1:pos:R:3 unique_starting_index=30 config_type=initial n_minim_iter=1 energy=-2618.5269613363257 free_energy=-2618.5269613363257 pbc="T T T"
Si       7.80483570       6.68856897       6.64245629
Si       5.41267379       5.26917630       3.83150022
Si       3.58463743       5.78529468       2.91194248
Si       9.63287206       6.17245059       7.56201403
Si       7.81104406       5.81386083       8.57315843
Si       5.40646543       6.14388444       1.90079808
Si       5.62196303       5.21272622       0.01264497
Si       7.59554646       6.74501904      10.46131154
Si       4.02385413       6.50270793       4.85583042
Si       9.19365536       5.45503734       5.61812609
Si      10.42495706       6.49319930       4.24573116
Si       2.79255243       5.46454596       6.22822535
Si       3.58772519       4.45263807       4.55107308
Si       9.62978430       7.50510720       5.92288343
Si       5.94414464       8.18937961       1.80751445
Si       7.27336485       3.76836566       8.66644206
16
Lattice="8.351551448448687 0.5845363585003469 -0.041920394240028844 2.262415787165405 7.996450270687552 0.8959821441262911 2.6037720781801843 3.376949872641865 9.620044953321775" Properties=species:S:1:pos:R:3 unique_starting_index=30 config_type=initial n_minim_iter=2 stress="7.61113797200856e-06 -5.853228856153358e-05 2.587857502134002e-05 -5.853228856153358e-05 6.443136608131018e-05 0.00011200999143466096 2.587857502134002e-05 0.00011200999143466096 -3.1183338828333035e-05" pbc="T T T"
Si       7.80496799       6.68867228       6.64255970
Si       5.41277132       5.26926422       3.83154701
Si       3.58471951       5.78537726       2.91196800
Si       9.63301981       6.17255925       7.56213870
Si       7.81116155       5.81393788       8.57332212
Si       5.40657776       6.14399862       1.90078459
Si       5.62207994       5.21284010       0.01258750
Si       7.59565938       6.74509641      10.46151920
Si       4.02394143       6.50279463       4.85590122
Si       9.19379789       5.45514188       5.61820548
Si      10.42513117       6.49333918       4.24575644
Si       2.79260814       5.46459732       6.22835027
Si       3.58779145       4.45269222       4.55115188
Si       9.62994787       7.50524428       5.92295482
Si       5.94427816       8.18952522       1.80748615
Si       7.27346115       3.76841128       8.66662055
16
Lattice="8.351545146193589 0.5846389424203934 -0.04198405393637538 2.2625120289080285 7.996341643461137 0.8957737495000627 2.603756091885133 3.376692813096692 9.62001229805215" Properties=species:S:1:pos:R:3 unique_starting_index=30 config_type=initial n_minim_iter=3 stress="-5.823730281360355e-05 1.624943084777266e-05 1.1815425067268518e-05 1.624943084777266e-05 -9.338374001835665e-05 -5.081945557549305e-05 1.1815425067268518e-05 -5.081945557549305e-05 -5.632568724928775e-05" pbc="T T T"
Si       7.80501114       6.68850498       6.64239281
Si       5.41280213       5.26916842       3.83140918
Si       3.58477899       5.78525072       2.91182982
Si       9.63303428       6.17242268       7.56197217
Si       7.81117086       5.81373387       8.57320033
Si       5.40664241       6.14393953       1.90060166
Si       5.62214572       5.21283075       0.01242772
Si       7.59566755       6.74484265      10.46137427
Si       4.02399514       6.50262442       4.85574393
Si       9.19381813       5.45504897       5.61805806
Si      10.42518453       6.49328044       4.24554897
Si       2.79262874       5.46439296       6.22825302
Si       3.58782270       4.45255599       4.55105232
Si       9.62999056       7.50511741       5.92274968
Si       5.94436538       8.18943433       1.80725804
Si       7.27344789       3.76823907       8.66654395
16
Lattice="8.351709025002823 0.5846563615023186 -0.04219813444955129 2.262541588089358 7.996457896942171 0.8956923906671724 2.6035654550016294 3.3767175680813755 9.619923264733561" Properties=species:S:1:pos:R:3 unique_starting_index=30 config_type=initial n_minim_iter=4 stress="0.00010536072999178347 -6.132702551091816e-05 -0.00014809061797219664 -6.132702551091816e-05 -2.0108398753885256e-05 -0.00016628906665712228 -0.00014809061797219664 -0.00016628906665712228 0.0001869117020156686" pbc="T T T"
Si       7.80505336       6.68855274       6.64219786
Si       5.41276271       5.26927908       3.83121966
Si       3.58483571       5.78517463       2.91177691
Si       9.63298036       6.17265719       7.56164061
Si       7.81108215       5.81374962       8.57301810
Si       5.40673392       6.14408220       1.90039943
Si       5.62231605       5.21280786       0.01229395
Si       7.59550002       6.74502397      10.46112358
Si       4.02397433       6.50268711       4.85561595
Si       9.19384174       5.45514472       5.61780157
Si      10.42537287       6.49342187       4.24518250
Si       2.79244320       5.46440996       6.22823502
Si       3.58785264       4.45254800       4.55094954
Si       9.62996343       7.50528383       5.92246798
Si       5.94446528       8.18952619       1.80704761
Si       7.27335079       3.76830564       8.66636991
16
Lattice="8.351691770578658 0.5851488090038528 -0.04192282466407679 2.2630133476015764 7.9968253525366135 0.8959123634435414 2.6040461955600627 3.377150755366086 9.619961008232986" Properties=species:S:1:pos:R:3 unique_starting_index=30 config_type=initial n_minim_iter=5 stress="8.270852020341155e-06 0.00023073011456527953 5.627236475355266e-05 0.00023073011456527953 0.00012654555462219324 -0.0001263769370455838 5.627236475355266e-05 -0.0001263769370455838 0.00012269303616477004" pbc="T T T"
Si       7.80564473       6.68927911       6.64252661
Si       5.41310658       5.26984580       3.83142394
Si       3.58528646       5.78544944       2.91201407
Si       9.63346485       6.17367548       7.56193648
Si       7.81161625       5.81449044       8.57332588
Si       5.40713507       6.14463448       1.90062467
Si       5.62264564       5.21321417       0.01258399
Si       7.59610567       6.74591074      10.46136656
Si       4.02448501       6.50315331       4.85585154
Si       9.19426630       5.45597161       5.61809901
Si      10.42587805       6.49428610       4.24555221
Si       2.79287327       5.46483882       6.22839834
Si       3.58827878       4.45292900       4.55110691
Si       9.63047253       7.50619592       5.92284364
Si       5.94497057       8.19011135       1.80736018
Si       7.27378074       3.76901356       8.66659037
16
Lattice="8.352038924662608 0.585433003298833 -0.041775979175176434 2.2633947655629014 7.996870210936787 0.8964409627973231 2.604397768406112 3.3777707637157737 9.620492765979899" Properties=species:S:1:pos:R:3 unique_starting_index=30 config_type=initial n_minim_iter=6 stress="-0.0002912412606281202 -2.656735996980827e-05 0.00014221841871006217 -2.656735996980827e-05 -0.0006434140818497516 0.00029825910296188115 0.00014221841871006217 0.00029825910296188115 0.0006748637508493523" pbc="T T T"
Si       7.80638690       6.68977630       6.64333520
Si       5.41344456       5.27029767       3.83182255
Si       3.58584634       5.78518123       2.91264029
Si       9.63398512       6.17489275       7.56251746
Si       7.81216736       5.81507251       8.57421168
Si       5.40766409       6.14500147       1.90094607
Si       5.62330101       5.21323667       0.01297081
Si       7.59653045       6.74683731      10.46218694
Si       4.02487850       6.50330266       4.85661789
Si       9.19495296       5.45677132       5.61853986
Si      10.42674612       6.49480141       4.24615592
Si       2.79308534       5.46527257       6.22900183
Si       3.58880717       4.45319540       4.55160665
Si       9.63102429       7.50687858       5.92355110
Si       5.94551791       8.19026729       1.80801616
Si       7.27431355       3.76980669       8.66714159
16
Lattice="8.352884136841562 0.5858223369856909 -0.04186917190627518 2.263922273716796 7.9977882014501915 0.8964433205413709 2.6046672621784084 3.3783447196406193 9.619708147730345" Properties=species:S:1:pos:R:3 unique_starting_index=30 config_type=initial n_minim_iter=7 stress="-4.575422371298912e-05 -3.585211173435271e-05 -5.250458573949626e-06 -3.585211173435271e-05 -0.00013711437927677167 0.00014997189412920334 -5.250458573949626e-06 0.00014997189412920334 5.85340536525356e-05" pbc="T T T"
Si       7.80744722       6.69075509       6.64289987
Si       5.41402645       5.27120016       3.83138243
Si       3.58659685       5.78539049       2.91261054
Si       9.63487683       6.17656477       7.56167176
Si       7.81297858       5.81596228       8.57368260
Si       5.40849510       6.14599297       1.90059970
Si       5.62435325       5.21388479       0.01297296
Si       7.59712042       6.74807047      10.46130933
Si       4.02539388       6.50395311       4.85644471
Si       9.19607979       5.45800215       5.61783759
Si      10.42816673       6.49589689       4.24571338
Si       2.79330694       5.46605836       6.22856892
Si       3.58947170       4.45376214       4.55130424
Si       9.63200197       7.50819312       5.92297805
Si       5.94641129       8.19130279       1.80794297
Si       7.27506238       3.77065247       8.66633932
16
Lattice="8.353048467898795 0.5856987032663364 -0.041494125517717854 2.263858552552019 7.998217689418813 0.8964350322242735 2.6050987812639486 3.378370941045886 9.619729130273113" Properties=species:S:1:pos:R:3 unique_starting_index=30 config_type=initial n_minim_iter=8 stress="-0.00019148018606092855 -0.000190317692824288 0.0001250313801392034 -0.000190317692824288 2.9825891482115213e-05 5.66843251120504e-05 0.0001250313801392034 5.66843251120504e-05 0.0001013613424669688" pbc="T T T"
Si       7.80778743       6.69091476       6.64322400
Si       5.41421837       5.27137258       3.83144604
Si       3.58685771       5.78532597       2.91282197
Si       9.63514809       6.17696136       7.56184807
Si       7.81342771       5.81602915       8.57397432
Si       5.40857809       6.14625818       1.90069572
Si       5.62456553       5.21398254       0.01313750
Si       7.59744027       6.74830479      10.46153253
Si       4.02550639       6.50403882       4.85658344
Si       9.19649941       5.45824852       5.61808659
Si      10.42857399       6.49597317       4.24595389
Si       2.79343181       5.46631417       6.22871614
Si       3.58975206       4.45396185       4.55145354
Si       9.63225374       7.50832549       5.92321650
Si       5.94650730       8.19171024       1.80809466
Si       7.27549850       3.77057710       8.66657537
16
Lattice="8.353540843709164 0.5859035158615663 -0.04159329942265925 2.264174474284982 7.998264930923505 0.8965116153561674 2.6052056747132104 3.3785754349935213 9.619552571477566" Properties=species:S:1:pos:R:3 unique_starting_index=30 config_type=initial n_minim_iter=9 stress="2.199298920983293e-06 -4.29762147449186e-05 -4.051797221938517e-06 -4.29762147449186e-05 -0.00010324022401184706 0.00014369861386634067 -4.051797221938517e-06 0.00014369861386634067 5.2599223055038215e-05" pbc="T T T"
Si       7.80829235       6.69119705       6.64314061
Si       5.41462864       5.27154683       3.83133028
Si       3.58725469       5.78530140       2.91287394
Si       9.63566630       6.17744248       7.56159695
Si       7.81391198       5.81632254       8.57380657
Si       5.40900901       6.14642135       1.90066432
Si       5.62510895       5.21403794       0.01313636
Si       7.59781205       6.74870595      10.46133453
Si       4.02581838       6.50413585       4.85655946
Si       9.19710261       5.45860804       5.61791143
Si      10.42934125       6.49622670       4.24578399
Si       2.79357974       5.46651719       6.22868690
Si       3.59002677       4.45414718       4.55142470
Si       9.63289422       7.50859671       5.92304618
Si       5.94704188       8.19188169       1.80811958
Si       7.27587911       3.77086219       8.66635131
16
Lattice="8.353338282216523 0.5854906077844596 -0.04070966280895354 2.263723491281274 7.999593540085685 0.8959964787261102 2.6060159396406215 3.3782094213042173 9.618939373851939" Properties=species:S:1:pos:R:3 unique_starting_index=30 config_type=initial n_minim_iter=10 stress="-0.00031963805593171734 6.715515164199741e-05 -0.00016824560617823185 6.715515164199741e-05 0.0001799903192003145 4.737857082419693e-05 -0.00016824560617823185 4.737857082419693e-05 7.236997070550931e-05" pbc="T T T"
Si       7.80827617       6.69158195       6.64310589
Si       5.41480154       5.27171162       3.83112030
Si       3.58768980       5.78528393       2.91277877
Si       9.63538791       6.17800964       7.56144742
Si       7.81443297       5.81594177       8.57374692
Si       5.40864474       6.14735180       1.90047927
Si       5.62520503       5.21436144       0.01332001
Si       7.59787268       6.74893213      10.46090618
Si       4.02599120       6.50471427       4.85622171
Si       9.19708651       5.45857930       5.61800448
Si      10.42959107       6.49606029       4.24598546
Si       2.79348665       5.46723328       6.22824073
Si       3.59026254       4.45447800       4.55145215
Si       9.63281517       7.50881557       5.92277404
Si       5.94658988       8.19288712       1.80817656
Si       7.27648784       3.77040645       8.66604963
16
Lattice="8.353824948435944 0.5852486798846707 -0.04019129254700412 2.2636733950115184 7.999668257430606 0.8958617790307413 2.6066876589246952 3.377897473919991 9.61871714207718" Properties=species:S:1:pos:R:3 unique_starting_index=30 config_type=initial n_minim_iter=11 stress="0.00010163478302427347 6.133922453642362e-06 4.887508228740689e-05 6.133922453642362e-06 5.726098588259899e-05 -2.8840423178151604e-05 4.887508228740689e-05 -2.8840423178151604e-05 -3.867551362132458e-05" pbc="T T T"
Si       7.80892266       6.69131470       6.64322662
Si       5.41526335       5.27149971       3.83116101
Si       3.58806439       5.78503248       2.91278249
Si       9.63612161       6.17778193       7.56160514
Si       7.81529987       5.81548555       8.57383971
Si       5.40888614       6.14732887       1.90054792
Si       5.62553368       5.21422024       0.01352428
Si       7.59865232       6.74859417      10.46086335
Si       4.02640282       6.50457388       4.85615576
Si       9.19778318       5.45824053       5.61823187
Si      10.43037873       6.49564595       4.24628650
Si       2.79380727       5.46716846       6.22810113
Si       3.59066550       4.45434362       4.55149943
Si       9.63352050       7.50847079       5.92288820
Si       5.94681574       8.19280739       1.80829961
Si       7.27737026       3.77000702       8.66608801
16
Lattice="8.353883120386271 0.5847538744803595 -0.03999861443410871 2.2632116096140455 7.999987922934169 0.8954473524734252 2.606760512205272 3.3774026400807435 9.61836274217853" Properties=species:S:1:pos:R:3 unique_starting_index=30 config_type=initial n_minim_iter=12 stress="9.786440791504961e-05 0.00010375800752191363 -9.462809486584383e-06 0.00010375800752191363 7.286626336947842e-05 -0.00011763300469542262 -9.462809486584383e-06 -0.00011763300469542262 2.1402247810066076e-05" pbc="T T T"
Si       7.80867880       6.69084090       6.64295402
Si       5.41517644       5.27130354       3.83085746
Si       3.58815516       5.78462818       2.91244124
Si       9.63570008       6.17751626       7.56137024
Si       7.81529899       5.81473322       8.57342764
Si       5.40855625       6.14741122       1.90038384
Si       5.62565198       5.21413020       0.01335697
Si       7.59820327       6.74801424      10.46045451
Si       4.02638948       6.50436975       4.85575684
Si       9.19746576       5.45777469       5.61805464
Si      10.43039891       6.49495263       4.24607710
Si       2.79345633       5.46719181       6.22773438
Si       3.59064521       4.45420090       4.55152516
Si       9.63321003       7.50794354       5.92228632
Si       5.94647634       8.19283790       1.80800103
Si       7.27737891       3.76930654       8.66581046
16
Lattice="8.35359689260473 0.5839449332614544 -0.04004490743472151 2.262329917386747 8.000322374320614 0.8952005195118069 2.6063105944280363 3.377107494613424 9.618181024630418" Properties=species:S:1:pos:R:3 unique_starting_index=30 config_type=initial n_minim_iter=13 stress="0.00013451580503169396 0.00017161776425652782 -7.269499752073537e-05 0.00017161776425652782 7.856909808465817e-05 -0.00020299989519411714 -7.269499752073537e-05 -0.00020299989519411714 8.998147146336579e-05" pbc="T T T"
Si       7.80762686       6.69024811       6.64274438
Si       5.41461054       5.27112670       3.83059226
Si       3.58782008       5.78415789       2.91208038
Si       9.63441732       6.17721691       7.56125626
Si       7.81449632       5.81411104       8.57314886
Si       5.40774108       6.14726377       1.90018778
Si       5.62536450       5.21383445       0.01343195
Si       7.59687290       6.74754036      10.45990469
Si       4.02587343       6.50419013       4.85552393
Si       9.19636398       5.45718467       5.61781271
Si      10.42963782       6.49397284       4.24573250
Si       2.79259958       5.46740196       6.22760414
Si       3.59014988       4.45406494       4.55174502
Si       9.63208752       7.50730986       5.92159162
Si       5.94556581       8.19284129       1.80785317
Si       7.27667159       3.76853351       8.66548347
16
Lattice="8.352243084859467 0.5822994350578932 -0.04029361738127318 2.260264552822813 8.001741814024383 0.8957833097456251 2.6048593073368473 3.3781868283062506 9.617817880271769" Properties=species:S:1:pos:R:3 unique_starting_index=30 config_type=initial n_minim_iter=14 stress="-5.093420659928253e-05 -4.706542339108557e-06 1.769220712456767e-05 -4.706542339108557e-06 4.8515978640916594e-05 -1.842146158740892e-05 1.769220712456767e-05 -1.842146158740892e-05 -0.0002002362196980454" pbc="T T T"
Si       7.80454458       6.69045563       6.64265780
Si       5.41282237       5.27177245       3.83064977
Si       3.58649580       5.78429564       2.91231008
Si       9.63087114       6.17793244       7.56099749
Si       7.81169746       5.81430905       8.57279642
Si       5.40566948       6.14791902       1.90051115
Si       5.62420072       5.21379366       0.01417986
Si       7.59316623       6.74843442      10.45912772
Si       4.02415723       6.50502153       4.85548109
Si       9.19320972       5.45720654       5.61782648
Si      10.42670999       6.49289547       4.24528737
Si       2.79065695       5.46933261       6.22802020
Si       3.58844862       4.45462934       4.55249742
Si       9.62891832       7.50759873       5.92081015
Si       5.94310856       8.19353246       1.80844660
Si       7.27425839       3.76869562       8.66486098
16
Lattice="8.351983908490906 0.5804728706685949 -0.04049875517549867 2.2583149353955063 8.00333661594768 0.8964032011444208 2.6037344866294307 3.3792195291266536 9.618442199307045" Properties=species:S:1:pos:R:3 unique_starting_index=30 config_type=initial n_minim_iter=15 stress="-9.180412908459351e-05 -9.805080239943475e-05 1.981935206720034e-05 -9.805080239943475e-05 -4.820128271714956e-06 7.04028662862008e-05 1.981935206720034e-05 7.04028662862008e-05 -0.00020016335960462968" pbc="T T T"
Si       7.80251628       6.69077722       6.64298033
Si       5.41151705       5.27225180       3.83136632
Si       3.58528400       5.78449307       2.91286721
Si       9.62874933       6.17853595       7.56147944
Si       7.80975402       5.81439133       8.57344266
Si       5.40427932       6.14863769       1.90090399
Si       5.62362786       5.21371942       0.01502183
Si       7.59040548       6.74930960      10.45932481
Si       4.02286140       6.50588088       4.85579019
Si       9.19117193       5.45714813       5.61855645
Si      10.42516942       6.49160967       4.24552682
Si       2.78886391       5.47141935       6.22881982
Si       3.58725440       4.45541401       4.55370684
Si       9.62677893       7.50761500       5.92063980
Si       5.94139860       8.19436873       1.80903995
Si       7.27263473       3.76866029       8.66530669
16
Lattice="8.35204369142445 0.5791213983164377 -0.04003882430791995 2.256963430167229 8.005153940688768 0.8972296666784179 2.6036440466925184 3.3805502263014597 9.618589968236321" Properties=species:S:1:pos:R:3 unique_starting_index=30 config_type=initial n_minim_iter=16 stress="-7.348522267046583e-05 -5.4985078148357194e-05 -2.7141435444898512e-05 -5.4985078148357194e-05 -2.0017993661383757e-05 9.158524828021816e-05 -2.7141435444898512e-05 9.158524828021816e-05 -4.657193267071378e-05" pbc="T T T"
Si       7.80182732       6.69170489       6.64361333
Si       5.41082385       5.27312067       3.83216748
Si       3.58447645       5.78498383       2.91356380
Si       9.62817472       6.17984174       7.56221701
Si       7.80900880       5.81517589       8.57386260
Si       5.40364237       6.14964967       1.90191821
Si       5.62349240       5.21407124       0.01635019
Si       7.58915877       6.75075433      10.45943062
Si       4.02234423       6.50718115       4.85603717
Si       9.19030694       5.45764441       5.61974364
Si      10.42472557       6.49118144       4.24626363
Si       2.78792560       5.47364412       6.22951718
Si       3.58688345       4.45661491       4.55488251
Si       9.62576771       7.50821065       5.92089830
Si       5.94033299       8.19555185       1.81039241
Si       7.27231818       3.76927372       8.66538840
16
Lattice="8.352561003268313 0.5776920254193129 -0.03918038683847894 2.255693145193917 8.007098872580515 0.8976658759772306 2.604164014039513 3.381311132601315 9.618808603331283" Properties=species:S:1:pos:R:3 unique_starting_index=30 config_type=initial n_minim_iter=17 stress="2.722045401805897e-05 4.4022943819277594e-05 -9.315705287632214e-05 4.4022943819277594e-05 -6.766403378782297e-05 2.5057941330515985e-05 -9.315705287632214e-05 2.5057941330515985e-05 0.00024093310203936733" pbc="T T T"
Si       7.80172557       6.69230596       6.64440578
Si       5.41069259       5.27379607       3.83288831
Si       3.58382483       5.78514350       2.91396865
Si       9.62859333       6.18095853       7.56332544
Si       7.80893813       5.81535380       8.57434219
Si       5.40348003       6.15074823       1.90295190
Si       5.62377082       5.21455227       0.01779950
Si       7.58864734       6.75154976      10.45949459
Si       4.02201661       6.50839316       4.85615310
Si       9.19040155       5.45770887       5.62114099
Si      10.42516609       6.49043134       4.24715103
Si       2.78725208       5.47567069       6.23014307
Si       3.58674535       4.45762340       4.55631115
Si       9.62567281       7.50847863       5.92098294
Si       5.93976185       8.19661319       1.81142322
Si       7.27265631       3.76948884       8.66587087
16
Lattice="8.352886558173779 0.5765698733086633 -0.038165041502612414 2.254648225153152 8.009480503990847 0.8974799811516383 2.604966924757092 3.38152032944515 9.618858174809136" Properties=species:S:1:pos:R:3 unique_starting_index=30 config_type=initial n_minim_iter=18 stress="-3.5676469426717755e-05 -9.933990881663189e-05 7.213225679389116e-05 -9.933990881663189e-05 -6.51623475041728e-05 9.766788813735181e-05 7.213225679389116e-05 9.766788813735181e-05 0.00011064085385400696" pbc="T T T"
Si       7.80192072       6.69292213       6.64477187
Si       5.41058099       5.27464857       3.83340124
Si       3.58339611       5.78538754       2.91398152
Si       9.62910560       6.18218317       7.56419160
Si       7.80907273       5.81535434       8.57441094
Si       5.40342898       6.15221637       1.90376218
Si       5.62401876       5.21517398       0.01894874
Si       7.58848295       6.75239672      10.45922437
Si       4.02173190       6.50958551       4.85575458
Si       9.19076981       5.45798520       5.62241853
Si      10.42537706       6.48999351       4.24798998
Si       2.78712465       5.47757720       6.23018313
Si       3.58669970       4.45850105       4.55762311
Si       9.62580200       7.50906966       5.92055000
Si       5.93938554       8.19818884       1.81199610
Si       7.27311617       3.76938186       8.66617701
16
Lattice="8.352497841009864 0.5749728713632049 -0.038820564358607285 2.2527020799912227 8.012902008744797 0.8970877654892649 2.6033777771984425 3.38241304590348 9.617932601486606" Properties=species:S:1:pos:R:3 unique_starting_index=30 config_type=initial n_minim_iter=19 stress="-1.731564005467717e-06 -5.882700310527745e-05 9.0933205320628e-05 -5.882700310527745e-05 1.7328939101684614e-05 2.4721300899685173e-05 9.0933205320628e-05 2.4721300899685173e-05 7.420733238379454e-05" pbc="T T T"
Si       7.80016286       6.69451235       6.64323164
Si       5.40841484       5.27577558       3.83296816
Si       3.58200384       5.78511847       2.91312739
Si       9.62657386       6.18516946       7.56307241
Si       7.80610711       5.81583661       8.57230970
Si       5.40247059       6.15445132       1.90389010
Si       5.62410985       5.21630331       0.01981957
Si       7.58446785       6.75398462      10.45638024
Si       4.01957267       6.51197566       4.85408154
Si       9.18900503       5.45831226       5.62211827
Si      10.42296677       6.48926064       4.24642593
Si       2.78561093       5.48102728       6.22977387
Si       3.58519108       4.46034958       4.55883895
Si       9.62338662       7.50993834       5.91736085
Si       5.93811986       8.20046188       1.81169315
Si       7.27045783       3.76982604       8.66450666
16
Lattice="8.35538536873529 0.5691314996196645 -0.03759049561264523 2.2476794046662856 8.017962332491711 0.8991376665145551 2.603117253870575 3.3854790061137243 9.617713121331997" Properties=species:S:1:pos:R:3 unique_starting_index=30 config_type=initial n_minim_iter=20 stress="0.00018636733825585993 0.0002982457019894781 -0.0002532771446475972 0.0002982457019894781 0.00025052354629484036 -0.0002257351961640684 -0.0002532771446475972 -0.0002257351961640684 3.4115526382733626e-05" pbc="T T T"
Si       7.80012999       6.69577782       6.64330584
Si       5.40605204       5.27679502       3.83595445
Si       3.58029741       5.78112076       2.91363393
Si       9.62588462       6.19145208       7.56562637
Si       7.80471528       5.81576953       8.57171118
Si       5.40146674       6.15680331       1.90754912
Si       5.62602759       5.21646948       0.02489331
Si       7.58015444       6.75610336      10.45436698
Si       4.01613346       6.51612093       4.85173775
Si       9.19004857       5.45645191       5.62752254
Si      10.42272219       6.48406955       4.24799711
Si       2.78345983       5.48850329       6.23126319
Si       3.58297866       4.46303975       4.56412925
Si       9.62320337       7.50953309       5.91513104
Si       5.93685316       8.20289792       1.81563874
Si       7.26932886       3.76967492       8.66362155
16
Lattice="8.358144043681287 0.5648401217730972 -0.03535531768592438 2.2446188300638807 8.017240506323725 0.9012718589321677 2.604759967497707 3.3862863430299193 9.617659467477246" Properties=species:S:1:pos:R:3 unique_starting_index=30 config_type=initial n_minim_iter=21 stress="-0.0001751720411421934 -0.00023692311630112896 0.00025744330136043725 -0.00023692311630112896 -0.0002036665118241856 0.00014578524294572257 0.00025744330136043725 0.00014578524294572257 -0.00010345269469903143" pbc="T T T"
Si       7.80150066       6.69350356       6.64470907
Si       5.40602219       5.27486341       3.83886694
Si       3.57911477       5.77640996       2.91462618
Si       9.62840807       6.19195701       7.56894983
Si       7.80717265       5.81384683       8.57328901
Si       5.40035019       6.15452014       1.91028700
Si       5.62621832       5.21406533       0.02781279
Si       7.58130452       6.75430164      10.45576322
Si       4.01500981       6.51571319       4.85120492
Si       9.19251303       5.45265378       5.63237109
Si      10.42452600       6.47814196       4.25095041
Si       2.78299684       5.49022501       6.23262560
Si       3.58248029       4.46209811       4.56665185
Si       9.62504255       7.50626886       5.91692415
Si       5.93592405       8.20063418       1.81933327
Si       7.27159879       3.76773279       8.66424274
