22
Lattice="5.516554120721389 -0.6521958257777514 -1.3834256271183278 -2.3526021909829913 11.595149506242247 -2.325002215190685 -4.6509350497350255 -5.8398884414802925 10.872459184308292" Properties=species:S:1:pos:R:3 unique_starting_index=18 config_type=initial n_minim_iter=1 energy=-3585.9717579722555 free_energy=-3585.9717579722555 pbc="T T T"
Si       0.24696859      10.50512143      -1.31361176
Si      -1.53333392      -1.39790035       5.66433316
Si      -3.86829740      -3.96510694       9.51986041
Si       0.14608950      -3.15631793       8.57129031
Si      -5.42767474      -0.52600938       8.87520749
Si       4.29535668       2.27554791      -0.25115719
Si       2.40091791       1.01424266       0.04435004
Si      -1.99873694       1.73547868       8.23985562
Si      -1.79573734      -3.87454259       9.07827332
Si      -2.53615667       0.91567410       5.75873861
Si       1.19750994      -0.74018822       2.86057213
Si      -2.96224001       3.43970410       4.80297487
Si      -3.25485356      -3.06110159       6.32785825
Si      -0.74110118       7.55463814      -1.18820338
Si       1.18921693       1.19832658       3.73349656
Si       0.91356595       8.61783709      -2.01668305
Si      -0.90804273      -1.72620419       3.22283533
Si       2.52965260      -5.42809519       6.18827597
Si       0.28359493       2.76376156       2.62723983
Si      -3.21730409       2.65714496       6.76260928
Si      -1.23372897       4.10577979       3.26474233
Si      -1.55367807      -2.51879467       7.46667678
22
Lattice="5.516478902789084 -0.6525603524971917 -1.3835448482387145 -2.353186308256453 11.595354637172125 -2.324701154928893 -4.650453645413586 -5.839226520348909 10.873212089593553" Properties=species:S:1:pos:R:3 unique_starting_index=18 config_type=initial n_minim_iter=2 stress="-8.950828027135571e-05 -0.00036233458475368776 0.00016688855386500732 -0.00036233458475368776 0.0005088983411811442 0.0002389347405632328 0.00016688855386500732 0.0002389347405632328 0.0004734466403577193" pbc="T T T"
Si       0.24631243      10.50532860      -1.31323496
Si      -1.53325959      -1.39756001       5.66476557
Si      -3.86794154      -3.96443597       9.52057064
Si       0.14639640      -3.15597689       8.57195105
Si      -5.42744492      -0.52526027       8.87597661
Si       4.29505601       2.27533130      -0.25117151
Si       2.40087765       1.01413826       0.04438371
Si      -1.99882639       1.73600037       8.24075727
Si      -1.79551840      -3.87413932       9.07907777
Si      -2.53613987       0.91617764       5.75942007
Si       1.19754879      -0.74021868       2.86076016
Si      -2.96232718       3.44012966       4.80353815
Si      -3.25448049      -3.06067906       6.32834180
Si      -0.74139975       7.55479705      -1.18800719
Si       1.18920093       1.19851932       3.73398485
Si       0.91312886       8.61772587      -2.01648806
Si      -0.90790354      -1.72604689       3.22299657
Si       2.52998646      -5.42796276       6.18866469
Si       0.28361752       2.76383896       2.62758911
Si      -3.21736247       2.65754516       6.76343650
Si      -1.23402316       4.10621938       3.26534786
Si      -1.55340648      -2.51854248       7.46736047
22
Lattice="5.5165197638777 -0.6523167857500549 -1.383616482892295 -2.3527783769498214 11.594492076973092 -2.324760197060236 -4.650903741034669 -5.839125263580534 10.873098078154129" Properties=species:S:1:pos:R:3 unique_starting_index=18 config_type=initial n_minim_iter=3 stress="-0.0006507335246150074 -9.805027846270659e-05 -0.00010722409271998232 -9.805027846270659e-05 -0.00014334388949565523 0.00012750817402915022 -0.00010722409271998232 0.00012750817402915022 -0.00018513747629746866" pbc="T T T"
Si       0.24662972      10.50465520      -1.31336731
Si      -1.53348299      -1.39759747       5.66465194
Si      -3.86831509      -3.96437155       9.52044886
Si       0.14615170      -3.15588282       8.57173625
Si      -5.42766721      -0.52549662       8.87583439
Si       4.29510583       2.27530009      -0.25136556
Si       2.40095299       1.01413692       0.04430309
Si      -1.99902239       1.73568397       8.24055923
Si      -1.79589271      -3.87408969       9.07896760
Si      -2.53627030       0.91599641       5.75935843
Si       1.19746793      -0.74021239       2.86062983
Si      -2.96232664       3.43972158       4.80339586
Si      -3.25467438      -3.06066057       6.32830105
Si      -0.74108525       7.55428319      -1.18809304
Si       1.18917438       1.19841805       3.73386804
Si       0.91348074       8.61713692      -2.01658539
Si      -0.90803615      -1.72601317       3.22290627
Si       2.52972181      -5.42754968       6.18853385
Si       0.28371598       2.76358061       2.62743771
Si      -3.21746433       2.65707296       6.76330388
Si      -1.23403438       4.10591905       3.26527584
Si      -1.55362689      -2.51860213       7.46725825
22
Lattice="5.516879655706477 -0.6521670003198083 -1.3836071990868661 -2.3526994708796143 11.5943249851241 -2.3249945797873734 -4.651318799083727 -5.8393341118925415 10.873310699438878" Properties=species:S:1:pos:R:3 unique_starting_index=18 config_type=initial n_minim_iter=4 stress="0.0001698579700577229 0.00016199571392991598 1.2447530611189306e-05 0.00016199571392991598 0.00013821665329195214 -5.314164145897718e-05 1.2447530611189306e-05 -5.314164145897718e-05 0.0002412158629516921" pbc="T T T"
Si       0.24683723      10.50456116      -1.31357075
Si      -1.53363337      -1.39771653       5.66473853
Si      -3.86865558      -3.96453653       9.52061600
Si       0.14613975      -3.15598907       8.57187885
Si      -5.42801867      -0.52573994       8.87591643
Si       4.29542158       2.27535818      -0.25143653
Si       2.40115455       1.01416347       0.04429580
Si      -1.99912951       1.73546354       8.24062646
Si      -1.79609053      -3.87424680       9.07915127
Si      -2.53641376       0.91584982       5.75943370
Si       1.19753998      -0.74024945       2.86065684
Si      -2.96243197       3.43953409       4.80337432
Si      -3.25491385      -3.06079829       6.32842485
Si      -0.74094885       7.55420163      -1.18825225
Si       1.18928850       1.19834887       3.73391343
Si       0.91372780       8.61706314      -2.01675626
Si      -0.90812664      -1.72607138       3.22294290
Si       2.52981067      -5.42750767       6.18871117
Si       0.28382513       2.76349703       2.62739481
Si      -3.21763089       2.65681550       6.76333840
Si      -1.23405651       4.10582316       3.26526827
Si      -1.55374130      -2.51876660       7.46739443
22
Lattice="5.517319830006761 -0.652421577003149 -1.3834540821543646 -2.3535223810113273 11.593835381255603 -2.3249056004786834 -4.651217605111123 -5.838784565487127 10.87265695645782" Properties=species:S:1:pos:R:3 unique_starting_index=18 config_type=initial n_minim_iter=5 stress="0.0004711461133421394 -0.00035364384604914047 2.537456397570436e-05 -0.00035364384604914047 -5.7896945703880314e-05 3.885809704111238e-05 2.537456397570436e-05 3.885809704111238e-05 -0.0002962283925133832" pbc="T T T"
Si       0.24620825      10.50403110      -1.31352629
Si      -1.53369012      -1.39761435       5.66446608
Si      -3.86862851      -3.96405077       9.52004051
Si       0.14647633      -3.15583670       8.57140636
Si      -5.42829721      -0.52540340       8.87531473
Si       4.29559078       2.27499438      -0.25144914
Si       2.40132476       1.01393623       0.04437424
Si      -1.99930259       1.73541629       8.24018074
Si      -1.79592921      -3.87396382       9.07865427
Si      -2.53655795       0.91593452       5.75915649
Si       1.19770813      -0.74033152       2.86045998
Si      -2.96274559       3.43950065       4.80308458
Si      -3.25480521      -3.06045921       6.32806234
Si      -0.74132989       7.55389070      -1.18823681
Si       1.18937414       1.19816450       3.73379524
Si       0.91330341       8.61657067      -2.01661623
Si      -0.90806197      -1.72595222       3.22266934
Si       2.53042037      -5.42729406       6.18843137
Si       0.28373452       2.76337352       2.62715579
Si      -3.21800751       2.65681109       6.76295080
Si      -1.23437993       4.10576492       3.26514653
Si      -1.55351115      -2.51860320       7.46694838
22
Lattice="5.517029339269936 -0.652140262239955 -1.383346129095789 -2.3530218569088266 11.59319946217581 -2.3252803171973047 -4.650898301060929 -5.838820727926832 10.873309771549234" Properties=species:S:1:pos:R:3 unique_starting_index=18 config_type=initial n_minim_iter=6 stress="-0.00019577702967817374 -0.00022491960102261855 9.042037208955615e-05 -0.00022491960102261855 0.00010726792574546411 -0.00045525039954987895 9.042037208955615e-05 -0.00045525039954987895 0.00020316018901456257" pbc="T T T"
Si       0.24639805      10.50363017      -1.31380288
Si      -1.53373123      -1.39780256       5.66495854
Si      -3.86829831      -3.96393342       9.52058059
Si       0.14671091      -3.15578052       8.57201516
Si      -5.42783184      -0.52563930       8.87562393
Si       4.29544709       2.27502311      -0.25152793
Si       2.40135856       1.01383347       0.04463440
Si      -1.99898396       1.73500804       8.24074297
Si      -1.79578349      -3.87395960       9.07931215
Si      -2.53617955       0.91569183       5.75960646
Si       1.19772231      -0.74043097       2.86055263
Si      -2.96223392       3.43914564       4.80331856
Si      -3.25428202      -3.06048792       6.32849031
Si      -0.74080161       7.55363134      -1.18851831
Si       1.18952914       1.19795854       3.73425741
Si       0.91352697       8.61625887      -2.01678359
Si      -0.90797682      -1.72598495       3.22266597
Si       2.53039768      -5.42685695       6.18903223
Si       0.28385735       2.76335080       2.62706401
Si      -3.21776523       2.65644096       6.76336674
Si      -1.23414608       4.10568422       3.26545633
Si      -1.55298586      -2.51874736       7.46736432
22
Lattice="5.517122297799745 -0.6519367453434479 -1.3833869433521673 -2.352471429693042 11.592566695145312 -2.3244034056524985 -4.651290560994565 -5.83806589718785 10.872882130766628" Properties=species:S:1:pos:R:3 unique_starting_index=18 config_type=initial n_minim_iter=7 stress="-5.450413612243465e-05 5.954467904969678e-05 0.00017158952143305772 5.954467904969678e-05 0.00010205806655404518 0.00012006177726441069 0.00017158952143305772 0.00012006177726441069 -9.675873955236698e-05" pbc="T T T"
Si       0.24686469      10.50328032      -1.31303458
Si      -1.53393698      -1.39745997       5.66491592
Si      -3.86856979      -3.96321718       9.52028297
Si       0.14658552      -3.15502226       8.57179566
Si      -5.42797378      -0.52518978       8.87554194
Si       4.29565234       2.27514547      -0.25141626
Si       2.40150703       1.01387066       0.04479045
Si      -1.99897356       1.73541709       8.24092376
Si      -1.79602529      -3.87324301       9.07906755
Si      -2.53615401       0.91594330       5.75974568
Si       1.19771379      -0.74019435       2.86043745
Si      -2.96208889       3.43923679       4.80362557
Si      -3.25437006      -3.06007060       6.32829514
Si      -0.74033674       7.55333519      -1.18797780
Si       1.18962735       1.19824655       3.73441261
Si       0.91398104       8.61593643      -2.01612227
Si      -0.90807255      -1.72575210       3.22245138
Si       2.53021656      -5.42604280       6.18864165
Si       0.28397738       2.76352719       2.62719108
Si      -3.21779173       2.65672105       6.76362936
Si      -1.23398325       4.10583293       3.26584899
Si      -1.55301265      -2.51825483       7.46716803
22
Lattice="5.51755577112589 -0.6517539242510632 -1.3839824047676317 -2.352083808535175 11.591442991959715 -2.32412387424654 -4.652668575236315 -5.837447835327027 10.874004600573048" Properties=species:S:1:pos:R:3 unique_starting_index=18 config_type=initial n_minim_iter=8 stress="7.828314752150798e-06 -6.493754709871302e-05 -0.0004187908884711094 -6.493754709871302e-05 0.0001526770260549516 1.939714851670538e-05 -0.0004187908884711094 1.939714851670538e-05 0.00011083659192742802" pbc="T T T"
Si       0.24712901      10.50240969      -1.31298400
Si      -1.53474897      -1.39729401       5.66547212
Si      -3.86969764      -3.96266817       9.52124761
Si       0.14577343      -3.15453178       8.57242346
Si      -5.42908202      -0.52501666       8.87659062
Si       4.29600070       2.27503065      -0.25185273
Si       2.40174436       1.01374439       0.04473459
Si      -1.99982735       1.73526087       8.24182234
Si      -1.79702825      -3.87277581       9.07991628
Si      -2.53670636       0.91583364       5.76053571
Si       1.19751150      -0.74011767       2.86043353
Si      -2.96259766       3.43885153       4.80443376
Si      -3.25492549      -3.05970076       6.32905932
Si      -0.73994802       7.55269975      -1.18788008
Si       1.18940161       1.19831952       3.73463652
Si       0.91443567       8.61526421      -2.01617258
Si      -0.90843686      -1.72558185       3.22258467
Si       2.52975140      -5.42528204       6.18882135
Si       0.28375904       2.76339213       2.62731623
Si      -3.21868541       2.65659069       6.76458089
Si      -1.23423665       4.10562384       3.26641295
Si      -1.55364769      -2.51806552       7.46780429
22
Lattice="5.517739586639088 -0.6514103574267828 -1.3837414614913535 -2.3518177168893892 11.5896622000354 -2.3243853528767295 -4.652573212236214 -5.836830578606244 10.874268556140345" Properties=species:S:1:pos:R:3 unique_starting_index=18 config_type=initial n_minim_iter=9 stress="-3.12120503797439e-05 -3.1369918812528134e-05 9.15143232517145e-05 -3.1369918812528134e-05 -0.00048682360519555784 -1.057834565674031e-05 9.15143232517145e-05 -1.057834565674031e-05 0.00025766149288013505" pbc="T T T"
Si       0.24734967      10.50097687      -1.31311851
Si      -1.53479836      -1.39719263       5.66563069
Si      -3.86946513      -3.96219153       9.52144641
Si       0.14610563      -3.15406615       8.57292224
Si      -5.42891412      -0.52510813       8.87658648
Si       4.29633182       2.27485706      -0.25173323
Si       2.40200347       1.01361169       0.04495638
Si      -1.99949917       1.73475721       8.24213996
Si      -1.79682405      -3.87236711       9.08037944
Si      -2.53641186       0.91548791       5.76078068
Si       1.19768859      -0.74003179       2.86052183
Si      -2.96236683       3.43806611       4.80462251
Si      -3.25460545      -3.05934728       6.32921639
Si      -0.73959949       7.55164217      -1.18803234
Si       1.18970505       1.19826631       3.73484602
Si       0.91474712       8.61415579      -2.01627933
Si      -0.90835310      -1.72540042       3.22252499
Si       2.53005857      -5.42432122       6.18931014
Si       0.28392215       2.76304067       2.62734112
Si      -3.21857914       2.65608866       6.76479214
Si      -1.23392725       4.10506311       3.26659893
Si      -1.55323251      -2.51794421       7.46806070
22
Lattice="5.518014827441121 -0.6510488951978757 -1.3835656037436688 -2.351226904130062 11.590031723343646 -2.3244696059171464 -4.6531209443753365 -5.837595114678496 10.873513946183836" Properties=species:S:1:pos:R:3 unique_starting_index=18 config_type=initial n_minim_iter=10 stress="-7.581066807554105e-05 4.4292836695942546e-05 -7.141569866500935e-06 4.4292836695942546e-05 0.0001016913222939605 -0.00010184892178198804 -7.141569866500935e-06 -0.00010184892178198804 -0.00019424607054517799" pbc="T T T"
Si       0.24777105      10.50159823      -1.31329366
Si      -1.53520282      -1.39747445       5.66515210
Si      -3.86969985      -3.96271698       9.52070130
Si       0.14596337      -3.15433414       8.57250374
Si      -5.42921585      -0.52555163       8.87570150
Si       4.29677885       2.27519011      -0.25183208
Si       2.40233370       1.01372094       0.04502229
Si      -1.99955987       1.73434761       8.24149453
Si      -1.79712950      -3.87293897       9.07994901
Si      -2.53640330       0.91515201       5.76043502
Si       1.19772806      -0.74010828       2.86019487
Si      -2.96226814       3.43777730       4.80433443
Si      -3.25458418      -3.05970744       6.32878598
Si      -0.73903790       7.55200617      -1.18814695
Si       1.18985333       1.19833602       3.73451548
Si       0.91536637       8.61469973      -2.01638441
Si      -0.90845306      -1.72562363       3.22209012
Si       2.53004045      -5.42442075       6.18908618
Si       0.28397316       2.76316694       2.62695939
Si      -3.21879639       2.65589172       6.76429918
Si      -1.23366766       4.10519143       3.26638653
Si      -1.55317128      -2.51848620       7.46750380
22
Lattice="5.518994640466238 -0.6505161825223268 -1.3839126828707908 -2.350508576838608 11.587482649414467 -2.323785467824801 -4.65487033835966 -5.836186423357755 10.874144456253163" Properties=species:S:1:pos:R:3 unique_starting_index=18 config_type=initial n_minim_iter=11 stress="-6.022736719106303e-05 5.108010594851157e-05 -0.00010758949349702574 5.108010594851157e-05 -0.00011522365833275084 -3.026474271142714e-05 -0.00010758949349702574 -3.026474271142714e-05 -0.00014998921682116717" pbc="T T T"
Si       0.24808424      10.50005013      -1.31281076
Si      -1.53651889      -1.39695505       5.66534778
Si      -3.87070386      -3.96157916       9.52117587
Si       0.14528187      -3.15311357       8.57361164
Si      -5.43088185      -0.52523515       8.87609194
Si       4.29793441       2.27502698      -0.25204544
Si       2.40313851       1.01352483       0.04522430
Si      -2.00041685       1.73393226       8.24230243
Si      -1.79793527      -3.87189059       9.08066794
Si      -2.53723756       0.91515991       5.76133945
Si       1.19772926      -0.73967085       2.86004194
Si      -2.96257791       3.43692938       4.80545364
Si      -3.25489014      -3.05870062       6.32910020
Si      -0.73815940       7.55063677      -1.18780489
Si       1.19008546       1.19828369       3.73470745
Si       0.91638347       8.61319620      -2.01627621
Si      -0.90877610      -1.72520333       3.22173718
Si       2.53012723      -5.42260441       6.18949450
Si       0.28380231       2.76283450       2.62714865
Si      -3.21995980       2.65547268       6.76545020
Si      -1.23351081       4.10477608       3.26729538
Si      -1.55315412      -2.51794617       7.46801943
22
Lattice="5.5195905914280505 -0.6501580120515528 -1.383857437187397 -2.350099352964655 11.58573358569609 -2.323224773121315 -4.65541979924234 -5.834989975637104 10.874470675065329" Properties=species:S:1:pos:R:3 unique_starting_index=18 config_type=initial n_minim_iter=12 stress="-4.023698585649049e-05 8.401613403750587e-05 -8.581720141373964e-05 8.401613403750587e-05 -0.00022440114636914784 1.3690734902732477e-05 -8.581720141373964e-05 1.3690734902732477e-05 -0.0001866791964782531" pbc="T T T"
Si       0.24822088      10.49898986      -1.31225342
Si      -1.53714060      -1.39652193       5.66561096
Si      -3.87072664      -3.96057307       9.52144768
Si       0.14553106      -3.15216827       8.57477059
Si      -5.43146078      -0.52473921       8.87619845
Si       4.29874343       2.27493613      -0.25179329
Si       2.40373660       1.01343288       0.04553976
Si      -2.00051382       1.73381917       8.24299359
Si      -1.79787061      -3.87093973       9.08123755
Si      -2.53756281       0.91536333       5.76202466
Si       1.19789880      -0.73930501       2.86004081
Si      -2.96242818       3.43650677       4.80629776
Si      -3.25448856      -3.05776915       6.32927181
Si      -0.73755164       7.54975621      -1.18747572
Si       1.19049881       1.19838296       3.73505951
Si       0.91693642       8.61229113      -2.01586128
Si      -0.90883814      -1.72484554       3.22139155
Si       2.53059310      -5.42125563       6.19004508
Si       0.28392636       2.76260029       2.62754422
Si      -3.22036526       2.65529149       6.76631829
Si      -1.23315384       4.10462878       3.26809901
Si      -1.55299311      -2.51739779       7.46811535
22
Lattice="5.519703138425234 -0.6499699665786167 -1.38364570228098 -2.349791277970691 11.585611562019391 -2.3229676268252035 -4.655292996116392 -5.834800402769263 10.874395074256478" Properties=species:S:1:pos:R:3 unique_starting_index=18 config_type=initial n_minim_iter=13 stress="-5.177100521727876e-05 9.30547514001778e-05 -3.7375901971627596e-05 9.30547514001778e-05 -0.00015612529397530164 2.3346199813697628e-05 -3.7375901971627596e-05 2.3346199813697628e-05 -0.00023079947415146368" pbc="T T T"
Si       0.24826692      10.49908489      -1.31198607
Si      -1.53734345      -1.39638249       5.66561374
Si      -3.87025149      -3.96030441       9.52138703
Si       0.14601162      -3.15194381       8.57537071
Si      -5.43138493      -0.52451423       8.87589206
Si       4.29903852       2.27504384      -0.25138137
Si       2.40403547       1.01352493       0.04575677
Si      -2.00038007       1.73385100       8.24317661
Si      -1.79751245      -3.87067300       9.08125797
Si      -2.53749218       0.91542813       5.76226640
Si       1.19801358      -0.73920620       2.85997160
Si      -2.96205532       3.43651768       4.80665254
Si      -3.25404070      -3.05750701       6.32904553
Si      -0.73715958       7.54987399      -1.18733549
Si       1.19075773       1.19862015       3.73527607
Si       0.91724665       8.61261738      -2.01537829
Si      -0.90887883      -1.72480593       3.22094341
Si       2.53103917      -5.42088687       6.19051461
Si       0.28410081       2.76261365       2.62779286
Si      -3.22037317       2.65534140       6.76660878
Si      -1.23276901       4.10486982       3.26851093
Si      -1.55250157      -2.51739001       7.46819754
22
Lattice="5.519795972909491 -0.649857963139887 -1.3837981596558635 -2.3495279711585546 11.585379291352998 -2.322845267881779 -4.655580591278391 -5.834585303987332 10.875129931632136" Properties=species:S:1:pos:R:3 unique_starting_index=18 config_type=initial n_minim_iter=14 stress="-3.176565566729269e-05 8.148578118680282e-05 -6.601279144101592e-05 8.148578118680282e-05 -0.00014014889674774034 3.543354997102707e-05 -6.601279144101592e-05 3.543354997102707e-05 -0.00011514622061920537" pbc="T T T"
Si       0.24824503      10.49895654      -1.31192262
Si      -1.53771401      -1.39630361       5.66605074
Si      -3.87030772      -3.96002662       9.52208722
Si       0.14607820      -3.15176808       8.57614455
Si      -5.43168878      -0.52434686       8.87629505
Si       4.29908915       2.27499784      -0.25114145
Si       2.40425954       1.01369299       0.04566741
Si      -2.00078901       1.73388166       8.24378140
Si      -1.79736066      -3.87050240       9.08207481
Si      -2.53765936       0.91535797       5.76283807
Si       1.19794372      -0.73907830       2.86002491
Si      -2.96202191       3.43644846       4.80728436
Si      -3.25390714      -3.05731327       6.32932328
Si      -0.73690637       7.54988230      -1.18730473
Si       1.19081546       1.19873492       3.73562184
Si       0.91743462       8.61271026      -2.01525686
Si      -0.90897875      -1.72468778       3.22088354
Si       2.53114341      -5.42058845       6.19109699
Si       0.28406634       2.76260850       2.62809379
Si      -3.22072886       2.65528992       6.76725892
Si      -1.23261353       4.10498083       3.26903270
Si      -1.55231039      -2.51730497       7.46860876
22
Lattice="5.519917403661868 -0.6497907549662756 -1.383761811665125 -2.3494419573800815 11.585485094188435 -2.322847874390891 -4.655455770179845 -5.834478990988589 10.875983832384605" Properties=species:S:1:pos:R:3 unique_starting_index=18 config_type=initial n_minim_iter=15 stress="-1.608886066059889e-06 9.188428911701898e-07 5.28219368643869e-05 9.188428911701898e-07 3.39691419831313e-05 1.8935050399815344e-05 5.28219368643869e-05 1.8935050399815344e-05 9.567252325242913e-06" pbc="T T T"
Si       0.24770841      10.49919000      -1.31192905
Si      -1.53816916      -1.39630239       5.66666732
Si      -3.86958663      -3.95969444       9.52295912
Si       0.14673756      -3.15167378       8.57722990
Si      -5.43172606      -0.52392555       8.87630042
Si       4.29897734       2.27480281      -0.25024704
Si       2.40466014       1.01403439       0.04566890
Si      -2.00143818       1.73389706       8.24443190
Si      -1.79644635      -3.87023609       9.08290654
Si      -2.53771569       0.91509581       5.76362435
Si       1.19791586      -0.73878264       2.86008732
Si      -2.96184183       3.43639909       4.80815788
Si      -3.25302819      -3.05713182       6.32953216
Si      -0.73673645       7.55028070      -1.18740208
Si       1.19105886       1.19876876       3.73619662
Si       0.91728750       8.61310542      -2.01532187
Si      -0.90881055      -1.72441038       3.22077240
Si       2.53195610      -5.42030730       6.19233220
Si       0.28400105       2.76271368       2.62854173
Si      -3.22132957       2.65512967       6.76788644
Si      -1.23220573       4.10533790       3.26980945
Si      -1.55162287      -2.51775031       7.46913742
22
Lattice="5.5204280684903955 -0.6496850011535179 -1.3841411089207964 -2.349270858806625 11.585096072710119 -2.322637609607511 -4.656364088273678 -5.8340720774435955 10.87731413888902" Properties=species:S:1:pos:R:3 unique_starting_index=18 config_type=initial n_minim_iter=16 stress="9.590771485483273e-05 -4.573366288745893e-05 2.9288464446944965e-05 -4.573366288745893e-05 8.055801071930904e-05 4.63418963395202e-05 2.9288464446944965e-05 4.63418963395202e-05 0.00023889569374303438" pbc="T T T"
Si       0.24737997      10.49903382      -1.31184042
Si      -1.53898815      -1.39627396       5.66761966
Si      -3.86939540      -3.95918610       9.52419668
Si       0.14669811      -3.15125720       8.57831754
Si      -5.43264761      -0.52348298       8.87689871
Si       4.29906210       2.27456762      -0.24968695
Si       2.40510453       1.01430981       0.04562280
Si      -2.00250177       1.73382531       8.24539111
Si      -1.79660318      -3.86975977       9.08412358
Si      -2.53828771       0.91490541       5.76474285
Si       1.19774941      -0.73834512       2.86018387
Si      -2.96214702       3.43629922       4.80924879
Si      -3.25293581      -3.05699518       6.33009407
Si      -0.73664745       7.55029170      -1.18735868
Si       1.19096987       1.19882524       3.73664975
Si       0.91737113       8.61318352      -2.01539459
Si      -0.90902329      -1.72404580       3.22078656
Si       2.53236293      -5.41969875       6.19326845
Si       0.28396167       2.76263066       2.62918080
Si      -3.22250027       2.65480862       6.76879711
Si      -1.23210437       4.10553830       3.27073227
Si      -1.55140910      -2.51784270       7.46975310
22
Lattice="5.52060475884152 -0.6496691029157037 -1.383951155904987 -2.349365895727421 11.585903461828583 -2.3229107513486333 -4.6562543484542145 -5.834694629520597 10.8772135005841" Properties=species:S:1:pos:R:3 unique_starting_index=18 config_type=initial n_minim_iter=17 stress="0.00010092982966028752 -9.06001542866308e-05 7.627851590694919e-05 -9.06001542866308e-05 0.00019532237471836368 5.378536328132479e-06 7.627851590694919e-05 5.378536328132479e-06 0.00026855507545983653" pbc="T T T"
Si       0.24693056      10.49990681      -1.31206817
Si      -1.53914392      -1.39656475       5.66767104
Si      -3.86865625      -3.95948418       9.52417404
Si       0.14715749      -3.15164591       8.57844236
Si      -5.43264879      -0.52351398       8.87617680
Si       4.29894274       2.27457189      -0.24919829
Si       2.40530291       1.01454293       0.04576298
Si      -2.00271196       1.73353512       8.24510905
Si      -1.79587785      -3.86994795       9.08423410
Si      -2.53843749       0.91466853       5.76479497
Si       1.19775187      -0.73824003       2.86006578
Si      -2.96218150       3.43626228       4.80919173
Si      -3.25241290      -3.05756665       6.32991256
Si      -0.73684541       7.55096015      -1.18757193
Si       1.19119819       1.19880126       3.73664545
Si       0.91733845       8.61403194      -2.01555158
Si      -0.90914572      -1.72408254       3.22040023
Si       2.53289429      -5.42001424       6.19347569
Si       0.28403177       2.76277018       2.62931138
Si      -3.22295544       2.65446931       6.76849338
Si      -1.23184022       4.10584773       3.27079345
Si      -1.55080008      -2.51853842       7.46953946
22
Lattice="5.520821442368298 -0.6495366663116277 -1.383364730532795 -2.3493507992670506 11.587014218527418 -2.3231301792896613 -4.6558065147048815 -5.8355975356029335 10.876103705306319" Properties=species:S:1:pos:R:3 unique_starting_index=18 config_type=initial n_minim_iter=18 stress="8.806110363360126e-05 -9.041855670711351e-05 7.153116315010687e-05 -9.041855670711351e-05 0.00017355491574393318 -1.387105950230901e-05 7.153116315010687e-05 -1.387105950230901e-05 0.0002245432911036768" pbc="T T T"
Si       0.24648399      10.50118661      -1.31216909
Si      -1.53901705      -1.39685062       5.66712050
Si      -3.86752167      -3.95967942       9.52348404
Si       0.14838565      -3.15225047       8.57809721
Si      -5.43239055      -0.52367355       8.87426594
Si       4.29905938       2.27479497      -0.24806140
Si       2.40554684       1.01502267       0.04606092
Si      -2.00257906       1.73314031       8.24406849
Si      -1.79474370      -3.87049098       9.08349882
Si      -2.53852731       0.91416740       5.76426360
Si       1.19780197      -0.73809333       2.85969688
Si      -2.96204358       3.43624448       4.80845648
Si      -3.25136455      -3.05880462       6.32925689
Si      -0.73718153       7.55195730      -1.18778259
Si       1.19168891       1.19889202       3.73636729
Si       0.91722446       8.61522350      -2.01569012