22
Lattice="5.509861342196762 -0.7291078675797332 -1.3881713965690046 -2.509475688914932 11.60378842215699 -2.333628319899341 -4.568694209644447 -5.774511392344554 10.862900885336135" Properties=species:S:1:pos:R:3 unique_starting_index=18 config_type=initial n_minim_iter=1 energy=-3586.056834458718 free_energy=-3586.056834458718 pbc="T T T"
Si       0.10406317      10.48068662      -1.30889109
Si      -1.53734701      -1.46598509       5.61190034
Si      -3.76427892      -3.88118574       9.55510411
Si       0.24703705      -3.13702906       8.55614659
Si      -5.56887074      -0.50956676       8.87824095
Si       4.28654982       2.26992715      -0.26681506
Si       2.44265692       0.96416840       0.01167587
Si      -2.08207456       1.75728596       8.25143540
Si      -1.70641634      -3.83586088       9.03913060
Si      -2.58191923       0.96780787       5.76826883
Si       1.20297666      -0.76056449       2.86971336
Si      -2.97165783       3.47846069       4.80606114
Si      -3.33074379      -2.87882472       6.41795654
Si      -0.90994339       7.53793204      -1.17228607
Si       1.14533015       1.18393427       3.72854997
Si       0.74962012       8.58536986      -2.01062656
Si      -0.89643819      -1.70680961       3.23787832
Si       2.48486832      -5.36391398       6.19241666
Si       0.26276164       2.76306920       2.62334391
Si      -3.26576361       2.71148060       6.76659712
Si      -1.18966807       4.17227609       3.27091737
Si      -1.35113887      -2.89428462       7.17181972
22
Lattice="5.51019797796475 -0.7290923708591117 -1.3882197925813082 -2.5096220746012317 11.60386366182308 -2.3338512047416993 -4.5690727972281024 -5.774747091548987 10.863073110474714" Properties=species:S:1:pos:R:3 unique_starting_index=18 config_type=initial n_minim_iter=2 stress="0.0006364837572853698 3.334658717422756e-05 -1.5657275769030562e-05 3.334658717422756e-05 0.0002880180145450754 -0.00013488114486850196 -1.5657275769030562e-05 -0.00013488114486850196 0.0003492648668820958" pbc="T T T"
Si       0.10405442      10.48073307      -1.30913405
Si      -1.53752099      -1.46612606       5.61195517
Si      -3.76463938      -3.88138336       9.55524054
Si       0.24696742      -3.13722777       8.55616160
Si      -5.56930647      -0.50973344       8.87830478
Si       4.28678624       2.26992640      -0.26691034
Si       2.44279332       0.96414289       0.01164138
Si      -2.08229566       1.75709816       8.25141241
Si      -1.70660886      -3.83606150       9.03922159
Si      -2.58213048       0.96769195       5.76828392
Si       1.20302802      -0.76063594       2.86971439
Si      -2.97186710       3.47838877       4.80600604
Si      -3.33099732      -2.87894705       6.41804612
Si      -0.90996877       7.53797399      -1.17244613
Si       1.14531886       1.18382961       3.72850393
Si       0.74967807       8.58545242      -2.01078319
Si      -0.89655592      -1.70690544       3.23788454
Si       2.48493359      -5.36407235       6.19248393
Si       0.26277564       2.76300008       2.62328271
Si      -3.26604418       2.71135149       6.76659480
Si      -1.18979168       4.17225589       3.27086479
Si      -1.35127537      -2.89445131       7.17189790
22
Lattice="5.510145467148386 -0.7290947457575582 -1.3882161225761096 -2.5096430033418344 11.603503196588374 -2.333813852574592 -4.5690975545231 -5.774606940643487 10.86268981412144" Properties=species:S:1:pos:R:3 unique_starting_index=18 config_type=initial n_minim_iter=3 stress="0.0001978604166238366 2.129648701418145e-05 -0.00030370498288191764 2.129648701418145e-05 -0.0001909234973194472 -0.00011481772883711244 -0.00030370498288191764 -0.00011481772883711244 -0.0002726149930112426" pbc="T T T"
Si       0.10398775      10.48038913      -1.30918264
Si      -1.53758946      -1.46614318       5.61175075
Si      -3.76472105      -3.88128969       9.55490952
Si       0.24689854      -3.13720252       8.55573690
Si      -5.56934775      -0.50972829       8.87796788
Si       4.28670368       2.26982137      -0.26695918
Si       2.44275146       0.96406424       0.01162254
Si      -2.08237954       1.75696551       8.25105098
Si      -1.70666899      -3.83599560       9.03886609
Si      -2.58216212       0.96763679       5.76806270
Si       1.20300551      -0.76065067       2.86957941
Si      -2.97187331       3.47827187       4.80578681
Si      -3.33098268      -2.87885660       6.41781540
Si      -0.90994466       7.53773689      -1.17245646
Si       1.14521945       1.18372646       3.72830994
Si       0.74964981       8.58520385      -2.01071957
Si      -0.89661441      -1.70690317       3.23770875
Si       2.48483863      -5.36396807       6.19219938
Si       0.26277518       2.76286043       2.62314750
Si      -3.26610450       2.71123652       6.76634351
Si      -1.18984882       4.17215663       3.27073938
Si      -1.35130182      -2.89441337       7.17162153
22
Lattice="5.509557158365919 -0.7292827945047288 -1.3876770569932966 -2.50998999958499 11.60375647418768 -2.3339095596884283 -4.5673772372411765 -5.774361669726101 10.86245235941949" Properties=species:S:1:pos:R:3 unique_starting_index=18 config_type=initial n_minim_iter=4 stress="5.525378312523908e-05 -4.772988872751203e-05 0.00016113262176474245 -4.772988872751203e-05 2.8546964859016787e-06 8.393631838884531e-06 0.00016113262176474245 8.393631838884531e-06 0.00013037356130352453" pbc="T T T"
Si       0.10353659      10.48061484      -1.30903448
Si      -1.53692284      -1.46610281       5.61179432
Si      -3.76337829      -3.88101850       9.55480929
Si       0.24793565      -3.13710732       8.55579618
Si      -5.56794448      -0.50930913       8.87763508
Si       4.28622873       2.26975718      -0.26641525
Si       2.44251915       0.96392922       0.01197069
Si      -2.08136228       1.75718439       8.25116246
Si      -1.70547882      -3.83583765       9.03893795
Si      -2.58131993       0.96787798       5.76804974
Si       1.20331403      -0.76067962       2.86979331
Si      -2.97109735       3.47857200       4.80568871
Si      -3.32984075      -2.87861146       6.41759517
Si      -0.91001990       7.53790772      -1.17246274
Si       1.14543960       1.18375421       3.72860116
Si       0.74918120       8.58538204      -2.01040157
Si      -0.89624064      -1.70694015       3.23755700
Si       2.48535116      -5.36404481       6.19248756
Si       0.26312858       2.76292575       2.62335627
Si      -3.26518639       2.71158243       6.76640778
Si      -1.18950266       4.17254765       3.27095636
Si      -1.35028008      -2.89432454       7.17166794
22
Lattice="5.509400186729915 -0.7292081258942065 -1.3878228431320376 -2.509580008919146 11.604435653024609 -2.3337919725066953 -4.567655553540044 -5.77479914228475 10.862512265697408" Properties=species:S:1:pos:R:3 unique_starting_index=18 config_type=initial n_minim_iter=5 stress="-0.0002501052203539648 0.0001412213808440268 -0.00022172188630132915 0.0001412213808440268 0.0005087020494350134 -6.8447717900225265e-06 -0.00022172188630132915 -6.8447717900225265e-06 0.0002708938480243227" pbc="T T T"
Si       0.10376927      10.48135472      -1.30903487
Si      -1.53716595      -1.46628950       5.61183051
Si      -3.76370288      -3.88133000       9.55490470
Si       0.24762651      -3.13725947       8.55557817
Si      -5.56805434      -0.50934896       8.87771662
Si       4.28615240       2.26999916      -0.26648412
Si       2.44245461       0.96396247       0.01195721
Si      -2.08149418       1.75722161       8.25117576
Si      -1.70583025      -3.83616090       9.03893474
Si      -2.58140115       0.96795986       5.76812913
Si       1.20324860      -0.76074345       2.86973962
Si      -2.97101313       3.47872153       4.80578100
Si      -3.32989432      -2.87879081       6.41763430
Si      -0.90967774       7.53835034      -1.17241537
Si       1.14537216       1.18384425       3.72860023
Si       0.74939791       8.58596658      -2.01042255
Si      -0.89633573      -1.70711037       3.23754785
Si       2.48494171      -5.36430630       6.19235723
Si       0.26316111       2.76314370       2.62333324
Si      -3.26521697       2.71173460       6.76653579
Si      -1.18941225       4.17294465       3.27109303
Si      -1.35045446      -2.89456797       7.17163387
22
Lattice="5.509645236411374 -0.7292351703875247 -1.3874491412444985 -2.509931167783195 11.603923550388027 -2.3336195244093347 -4.567333492535501 -5.774407756385102 10.861354664191502" Properties=species:S:1:pos:R:3 unique_starting_index=18 config_type=initial n_minim_iter=6 stress="0.0002262728552906937 7.283659478505672e-05 4.250571495418463e-05 7.283659478505672e-05 0.00014483968272226028 0.00030943030293697186 4.250571495418463e-05 0.00030943030293697186 -0.00014471251000292788" pbc="T T T"
Si       0.10353689      10.48102587      -1.30892307
Si      -1.53721131      -1.46633145       5.61133047
Si      -3.76363189      -3.88108130       9.55401011
Si       0.24807077      -3.13700550       8.55451973
Si      -5.56802983      -0.50901058       8.87664272
Si       4.28636621       2.26985767      -0.26616389
Si       2.44257036       0.96371812       0.01217495
Si      -2.08125701       1.75710275       8.25038483
Si      -1.70561277      -3.83606071       9.03808543
Si      -2.58133113       0.96812888       5.76762412
Si       1.20361587      -0.76079621       2.86954972
Si      -2.97092261       3.47854172       4.80534406
Si      -3.32961512      -2.87845003       6.41687653
Si      -0.90961789       7.53796747      -1.17230720
Si       1.14572045       1.18379507       3.72843549
Si       0.74921966       8.58562352      -2.01027216
Si      -0.89617349      -1.70710061       3.23723188
Si       2.48534311      -5.36401234       6.19188600
Si       0.26336493       2.76311908       2.62313142
Si      -3.26512502       2.71176231       6.76594558
Si      -1.18922963       4.17310895       3.27103065
Si      -1.35001253      -2.89447432       7.17091215
22
Lattice="5.509536952843748 -0.7292232498801343 -1.3873672141163114 -2.5100867009294956 11.603721497572346 -2.334288403147604 -4.567040444183096 -5.7747313005078 10.861739853426037" Properties=species:S:1:pos:R:3 unique_starting_index=18 config_type=initial n_minim_iter=7 stress="-2.9077573004956868e-05 -7.180837520305571e-06 4.5773524931574754e-05 -7.180837520305571e-06 -6.229569892884053e-05 -0.00012420605783353 4.5773524931574754e-05 -0.00012420605783353 0.00014459666037858592" pbc="T T T"
Si       0.10333498      10.48080602      -1.30952531
Si      -1.53718078      -1.46659991       5.61145586
Si      -3.76344830      -3.88143354       9.55431634
Si       0.24818825      -3.13734718       8.55470273
Si      -5.56786290      -0.50932540       8.87668555
Si       4.28624626       2.26973284      -0.26623587
Si       2.44250392       0.96358761       0.01218716
Si      -2.08116885       1.75660052       8.25035963
Si      -1.70546340      -3.83643976       9.03838459
Si      -2.58123769       0.96786675       5.76764313
Si       1.20368669      -0.76096816       2.86963880
Si      -2.97084996       3.47819368       4.80520293
Si      -3.32938847      -2.87860821       6.41705799
Si      -0.90966386       7.53778477      -1.17272774
Si       1.14574082       1.18354604       3.72844012
Si       0.74904552       8.58547858      -2.01078550
Si      -0.89607953      -1.70723703       3.23735624
Si       2.48541744      -5.36420006       6.19225754
Si       0.26336099       2.76292126       2.62301998
Si      -3.26504380       2.71139174       6.76587663
Si      -1.18917795       4.17291255       3.27090387
Si      -1.34982373      -2.89478037       7.17112296
22
Lattice="5.5095663408138105 -0.729471583151828 -1.387120707973698 -2.510762006798806 11.604002800710576 -2.334573190156435 -4.566597116556079 -5.774972962712251 10.860761127825086" Properties=species:S:1:pos:R:3 unique_starting_index=18 config_type=initial n_minim_iter=8 stress="-8.505610002557763e-06 -0.0004503302972579503 -5.873374899997122e-05 -0.0004503302972579503 0.0002913667479060186 -3.65001363986205e-05 -5.873374899997122e-05 -3.65001363986205e-05 -0.00020863429844053611" pbc="T T T"
Si       0.10260273      10.48111942      -1.31002896
Si      -1.53749970      -1.46694514       5.61081639
Si      -3.76327704      -3.88191478       9.55353296
Si       0.24823082      -3.13762721       8.55365149
Si      -5.56801668      -0.50912287       8.87549050
Si       4.28609815       2.26949225      -0.26637805
Si       2.44243134       0.96313854       0.01232362
Si      -2.08127560       1.75613218       8.24930803
Si      -1.70520222      -3.83694068       9.03767468
Si      -2.58110419       0.96779774       5.76709229
Si       1.20404896      -0.76129728       2.86939318
Si      -2.97082333       3.47806374       4.80458095
Si      -3.32885442      -2.87852421       6.41642179
Si      -0.90982245       7.53773476      -1.17288360
Si       1.14558779       1.18343455       3.72794365
Si       0.74857789       8.58575970      -2.01120596
Si      -0.89584117      -1.70750660       3.23712463
Si       2.48557766      -5.36456652       6.19171394
Si       0.26325997       2.76295582       2.62271201
Si      -3.26520178       2.71150501       6.76517534
Si      -1.18894124       4.17327740       3.27069868
Si      -1.34943829      -2.89529776       7.17043530
22
Lattice="5.509498726752308 -0.7290698339006904 -1.3870339020053528 -2.510050731085673 11.603227394384195 -2.3346773061742163 -4.566818493127843 -5.775028585027787 10.860681046560298" Properties=species:S:1:pos:R:3 unique_starting_index=18 config_type=initial n_minim_iter=9 stress="-1.201801346152843e-05 0.00010887421077443461 4.118791048159913e-05 0.00010887421077443461 9.553591775354185e-06 -7.734885508919012e-05 4.118791048159913e-05 -7.734885508919012e-05 -0.0001699534887258493" pbc="T T T"
Si       0.10320791      10.48064397      -1.31017045
Si      -1.53769552      -1.46707801       5.61074883
Si      -3.76344493      -3.88211418       9.55350480
Si       0.24807075      -3.13746488       8.55355681
Si      -5.56804240      -0.50940759       8.87529265
Si       4.28623799       2.26963650      -0.26638318
Si       2.44248282       0.96312105       0.01240697
Si      -2.08109890       1.75575963       8.24920063
Si      -1.70534582      -3.83697117       9.03767526
Si      -2.58093810       0.96756692       5.76706979
Si       1.20414810      -0.76124386       2.86941013
Si      -2.97045474       3.47763164       4.80451312
Si      -3.32885733      -2.87855796       6.41634645
Si      -0.90925752       7.53720235      -1.17291698
Si       1.14566190       1.18343886       3.72791007
Si       0.74911930       8.58544240      -2.01133816
Si      -0.89586625      -1.70755992       3.23712830
Si       2.48522800      -5.36413479       6.19169164
Si       0.26346954       2.76286259       2.62272390
Si      -3.26496239       2.71117757       6.76513786
Si      -1.18844946       4.17310922       3.27076530
Si      -1.34946834      -2.89537481       7.17038307
22
Lattice="5.509491604735618 -0.7292877419579363 -1.3876086684728788 -2.510263153898466 11.601438807510254 -2.3337386269313325 -4.56714512003351 -5.773003836779261 10.861889003631513" Properties=species:S:1:pos:R:3 unique_starting_index=18 config_type=initial n_minim_iter=10 stress="-3.2161852380999834e-05 -7.2779422370309e-05 -0.00021976394912585155 -7.2779422370309e-05 -0.00028358330651842936 0.00017608220745944596 -0.00021976394912585155 0.00017608220745944596 0.0002456395923455809" pbc="T T T"
Si       0.10280757      10.47925092      -1.30952469
Si      -1.53837981      -1.46648939       5.61142170
Si      -3.76381440      -3.88080491       9.55477112
Si       0.24758684      -3.13615263       8.55445912
Si      -5.56878842      -0.50807303       8.87655210
Si       4.28615858       2.26912069      -0.26656704
Si       2.44237699       0.96261399       0.01248064
Si      -2.08166128       1.75612609       8.25057238
Si      -1.70579882      -3.83565122       9.03868299
Si      -2.58128676       0.96818179       5.76817980
Si       1.20426538      -0.76099225       2.86971002
Si      -2.97055749       3.47768368       4.80570780
Si      -3.32898537      -2.87725091       6.41705438
Si      -0.90919434       7.53586089      -1.17222281
Si       1.14537314       1.18357254       3.72848772
Si       0.74899328       8.58425380      -2.01088241
Si      -0.89593027      -1.70716215       3.23745501
Si       2.48480607      -5.36276463       6.19177852
Si       0.26314887       2.76288783       2.62340020
Si      -3.26543796       2.71177024       6.76658595
Si      -1.18825220       4.17329188       3.27203111
Si      -1.34956033      -2.89440895       7.17112340
22
Lattice="5.509198260583532 -0.729375273565765 -1.3873078410252788 -2.5104389724132474 11.601146584202871 -2.333575891720093 -4.566358586638129 -5.77262024135237 10.861125767017056" Properties=species:S:1:pos:R:3 unique_starting_index=18 config_type=initial n_minim_iter=11 stress="-0.00011970453886105234 8.614342916266293e-06 -2.6121886017415095e-05 8.614342916266293e-06 2.2733639228937767e-07 -2.5192960601448627e-05 -2.6121886017415095e-05 -2.5192960601448627e-05 -0.00023519333997518363" pbc="T T T"
Si       0.10241191      10.47930885      -1.30955244
Si      -1.53868833      -1.46662916       5.61097619
Si      -3.76319626      -3.88092421       9.55427629
Si       0.24797058      -3.13594137       8.55423582
Si      -5.56866633      -0.50747830       8.87554552
Si       4.28605131       2.26896205      -0.26651662
Si       2.44223719       0.96217964       0.01270040
Si      -2.08137275       1.75588864       8.25007903
Si      -1.70545567      -3.83563535       9.03813490
Si      -2.58100655       0.96848543       5.76794920
Si       1.20476273      -0.76106947       2.86970184
Si      -2.96987726       3.47773927       4.80544647
Si      -3.32845948      -2.87676066       6.41641138
Si      -0.90898534       7.53539093      -1.17197968
Si       1.14544570       1.18346868       3.72846466
Si       0.74889711       8.58432482      -2.01066090
Si      -0.89567478      -1.70733830       3.23721663
Si       2.48480513      -5.36243012       6.19145859
Si       0.26306461       2.76314335       2.62338170
Si      -3.26511013       2.71213121       6.76617934
Si      -1.18736163       4.17388702       3.27240814
Si      -1.34894838      -2.89457651       7.17067983
22
Lattice="5.509189465528966 -0.7296868731821932 -1.3875402916680277 -2.511139072856783 11.599047657071752 -2.3330542705712536 -4.565987903544315 -5.770554582594132 10.862005986305645" Properties=species:S:1:pos:R:3 unique_starting_index=18 config_type=initial n_minim_iter=12 stress="-4.045066280504068e-05 1.7267483263083115e-07 -4.997477505455855e-05 1.7267483263083115e-07 -0.00017182576101292617 5.187672823316924e-06 -4.997477505455855e-05 5.187672823316924e-06 -0.00016694124841491176" pbc="T T T"
Si       0.10150148      10.47785931      -1.30935295
Si      -1.53959510      -1.46633012       5.61133338
Si      -3.76331090      -3.87991595       9.55543196
Si       0.24838959      -3.13499091       8.55545959
Si      -5.56943410      -0.50582112       8.87596136
Si       4.28605282       2.26819846      -0.26668876
Si       2.44215758       0.96138835       0.01274641
Si      -2.08186371       1.75578592       8.25102616
Si      -1.70539219      -3.83467301       9.03886208
Si      -2.58110900       0.96917999       5.76894117
Si       1.20540366      -0.76097963       2.87010124
Si      -2.96958824       3.47757717       4.80622199
Si      -3.32810716      -2.87514770       6.41672921
Si      -0.90893222       7.53359747      -1.17141417
Si       1.14524792       1.18358758       3.72894952
Si       0.74857985       8.58296285      -2.01038595
Si      -0.89542210      -1.70714606       3.23753452
Si       2.48473317      -5.36099565       6.19178553
Si       0.26277945       2.76303044       2.62394093
Si      -3.26534518       2.71259871       6.76705941
Si      -1.18650267       4.17454252       3.27391220
Si      -1.34892521      -2.89414816       7.17108944
22
Lattice="5.508660170046605 -0.7298550091329146 -1.3879382836596932 -2.511091650933514 11.598574616659663 -2.3328380291336805 -4.56584726628059 -5.769923998022234 10.862906007040284" Properties=species:S:1:pos:R:3 unique_starting_index=18 config_type=initial n_minim_iter=13 stress="-8.709131546024142e-05 1.2889939632693288e-05 -7.642520392885357e-05 1.2889939632693288e-05 -0.00014604954773990756 5.146746954735428e-06 -7.642520392885357e-05 5.146746954735428e-06 -0.00012621775549047752" pbc="T T T"
Si       0.10113314      10.47763193      -1.30940250
Si      -1.54020675      -1.46636420       5.61166625
Si      -3.76345115      -3.87975123       9.55641102
Si       0.24819470      -3.13481469       8.55617080
Si      -5.56980783      -0.50518880       8.87649491
Si       4.28559892       2.26789477      -0.26694241
Si       2.44188761       0.96111755       0.01250643
Si      -2.08246781       1.75577395       8.25164447
Si      -1.70558462      -3.83451577       9.03958476
Si      -2.58108112       0.96946294       5.76965474
Si       1.20549454      -0.76095387       2.87034033
Si      -2.96928513       3.47765903       4.80668323
Si      -3.32817239      -2.87448253       6.41704191
Si      -0.90870380       7.53306919      -1.17116569
Si       1.14477481       1.18371157       3.72915858
Si       0.74840277       8.58264844      -2.01049734
Si      -0.89524090      -1.70714196       3.23795197
Si       2.48404997      -5.36063299       6.19205528
Si       0.26250619       2.76301563       2.62414282
Si      -3.26540622       2.71286151       6.76780963
Si      -1.18599854       4.17525259       3.27484457
Si      -1.34885988      -2.89421465       7.17166925
22
Lattice="5.507967909487138 -0.7300561906410403 -1.3882216727947068 -2.511066572478396 11.598754954430497 -2.332879360613167 -4.565443091617068 -5.769841503720878 10.863569308039942" Properties=species:S:1:pos:R:3 unique_starting_index=18 config_type=initial n_minim_iter=14 stress="-6.802771124867568e-05 -7.453291163964223e-07 -3.0474117866508694e-05 -7.453291163964223e-07 -0.0001070561505783768 9.00660069317029e-06 -3.0474117866508694e-05 9.00660069317029e-06 -6.186413896378944e-05" pbc="T T T"
Si       0.10080383      10.47772750      -1.30971112
Si      -1.54067425      -1.46687671       5.61204324
Si      -3.76329198      -3.88011994       9.55713931
Si       0.24809925      -3.13500794       8.55655623
Si      -5.56998632      -0.50478279       8.87664177
Si       4.28493461       2.26766060      -0.26706337
Si       2.44154252       0.96092284       0.01227822
Si      -2.08287972       1.75553434       8.25188007
Si      -1.70542833      -3.83458909       9.04001458
Si      -2.58081384       0.96959394       5.77013799
Si       1.20559090      -0.76088437       2.87060874
Si      -2.96886820       3.47778307       4.80688767
Si      -3.32807606      -2.87413634       6.41721891
Si      -0.90853171       7.53296756      -1.17104181
Si       1.14433976       1.18366984       3.72928875
Si       0.74785098       8.58299721      -2.01069980
Si      -0.89488208      -1.70725420       3.23846747
Si       2.48314895      -5.36076305       6.19222844
Si       0.26218892       2.76318343       2.62406094
Si      -3.26534388       2.71316868       6.76799699
Si      -1.18527614       4.17629647       3.27562844
Si      -1.34892598      -2.89466195       7.17198134
22
Lattice="5.50741650986241 -0.7300184247001819 -1.3885408469835046 -2.5105812891605357 11.599870449566813 -2.3333881294545975 -4.565566476811827 -5.770907603487124 10.864479518102112" Properties=species:S:1:pos:R:3 unique_starting_index=18 config_type=initial n_minim_iter=15 stress="3.419414609695904e-05 4.7168017895100826e-05 1.0774518500805351e-05 4.7168017895100826e-05 2.216818239941239e-05 -9.915822421225554e-06 1.0774518500805351e-05 -9.915822421225554e-06 3.080003549163611e-05" pbc="T T T"
Si       0.10097162      10.47879821      -1.31038794
Si      -1.54131229      -1.46809685       5.61260495
Si      -3.76332417      -3.88158020       9.55798127
Si       0.24782260      -3.13572453       8.55683259
Si      -5.57052017      -0.50502716       8.87675601
Si       4.28431451       2.26784658      -0.26727121
Si       2.44132372       0.96097242       0.01193510
Si      -2.08351049       1.75494788       8.25199395
Si      -1.70585584      -3.83550581       9.04052102
Si      -2.58056865       0.96945260       5.77060290
Si       1.20567993      -0.76087742       2.87092231
Si      -2.96856609       3.47767644       4.80695012
Si      -3.32856023      -2.87459461       6.41752417
Si      -0.90817456       7.53343192      -1.17110928
Si       1.14401594       1.18391947       3.72924587
Si       0.74807247       8.58413592      -2.01124461
Si      -0.89479069      -1.70775570       3.23896547
Si       2.48179020      -5.36135417       6.19255951
Si       0.26215109       2.76345875       2.62405035
Si      -3.26534009       2.71329973       6.76791646
Si      -1.18410415       4.17771825       3.27630529
Si      -1.34926914      -2.89583682       7.17226282
22
Lattice="5.506621567125235 -0.7303342459653853 -1.3888296270860623 -2.5107857297564746 11.60103163503778 -2.3340920342886435 -4.564935553653517 -5.771678342972177 10.865718325646828" Properties=species:S:1:pos:R:3 unique_starting_index=18 config_type=initial n_minim_iter=16 stress="0.00011690957704104541 1.97270215536419e-05 7.057035466187044e-05 1.97270215536419e-05 8.766861150836128e-05 2.9041351458586692e-05 7.057035466187044e-05 2.9041351458586692e-05 0.0002100008166246952" pbc="T T T"
Si       0.10041480      10.47997065      -1.31102855
Si      -1.54176222      -1.46943688       5.61324607
Si      -3.76307147      -3.88302545       9.55919791
Si       0.24785772      -3.13650489       8.55726812
Si      -5.57091833      -0.50512881       8.87692666
Si       4.28310721       2.26781739      -0.26746856
Si       2.44098725       0.96096445       0.01144775
Si      -2.08407412       1.75426179       8.25216239
Si      -1.70559108      -3.83637530       9.04106202
Si      -2.58030664       0.96962868       5.77117623
Si       1.20585895      -0.76078571       2.87144595
Si      -2.96814235       3.47779708       4.80686509
Si      -3.32868236      -2.87513544       6.41817821
Si      -0.90827360       7.53389555      -1.17118610
Si       1.14374020       1.18384502       3.72933804
Si       0.74764022       8.58494378      -2.01202156
Si      -0.89448402      -1.70823982       3.23966033
Si       2.48039143      -5.36179482       6.19306408
Si       0.26207962       2.76388746       2.62436751
Si      -3.26519354       2.71356907       6.76818580
Si      -1.18246054       4.17948224       3.27716194
Si      -1.34940923      -2.89724102       7.17292051
22
Lattice="5.506084652569283 -0.7305352888748887 -1.3888292232210675 -2.5110029462085275 11.60231854622446 -2.3349195270423984 -4.564323687394656 -5.772793559300076 10.866126129111603" Properties=species:S:1:pos:R:3 unique_starting_index=18 config_type=initial n_minim_iter=17 stress="0.00020604987587955539 -1.5807808203197258e-05 0.00010060549040870573 -1.5807808203197258e-05 0.00013426824589578797 -3.280997536440032e-07 0.00010060549040870573 -3.280997536440032e-07 0.00024003357927962618" pbc="T T T"
Si       0.10004676      10.48110565      -1.31176239
Si      -1.54193283      -1.47059727       5.61336822
Si      -3.76277544      -3.88445686       9.55959233
Si       0.24804789      -3.13749415       8.55726828
Si      -5.57107368      -0.50562913       8.87652237
Si       4.28237835       2.26794168      -0.26755901
Si       2.44080269       0.96106524       0.01101323
Si      -2.08419354       1.75349169       8.25169802
Si      -1.70541055      -3.83764474       9.04132233
Si      -2.58004631       0.96959197       5.77116041
Si       1.20600991      -0.76093024       2.87165189
Si      -2.96772511       3.47790579       4.80639219
Si      -3.32865989      -2.87590476       6.41838583
Si      -0.90836699       7.53457370      -1.17148574
Si       1.14351486       1.18372916       3.72917013
Si       0.74712454       8.58594243      -2.01269205
Si      -0.89424040      -1.70873756       3.24000829
Si       2.47955347      -5.36247373       6.19335546
Si       0.26208097       2.76417690       2.62439315
Si      -3.26495687       2.71365384       6.76790540
Si      -1.18122714       4.18069860       3.27735769
Si      -1.34936130      -2.89843328       7.17284556
22
Lattice="5.5046511821286614 -0.7306047897915505 -1.3885887713052836 -2.5105543548216946 11.60514167363436 -2.3362279735053244 -4.562908048520779 -5.775285905326743 10.866165559211153" Properties=species:S:1:pos:R:3 unique_starting_index=18 config_type=initial n_minim_iter=18 stress="0.0001714956754838964 3.0482767742825925e-05 0.00012353245590653882 3.0482767742825925e-05 0.00020937423662546078 3.018483311627695e-05 0.00012353245590653882 3.018483311627695e-05 0.0002824628205063594" pbc="T T T"
Si       0.10011578      10.48357952      -1.31286484
Si      -1.54191712      -1.47257447       5.61307084
Si      -3.76206333      -3.88719168       9.55969260
Si       0.24831989      -3.13941032       8.55699325
Si      -5.57053314      -0.50689147       8.87538527
Si       4.28126173       2.26870331      -0.26740815
Si       2.44028836       0.96126781       0.01074281
Si      -2.08376052       1.75226114       8.25047586
Si      -1.70485237      -3.83998237       9.04082053
Si      -2.57919965       0.96950204       5.77072976
Si       1.20613798      -0.76136896       2.87176347
Si      -2.96647164       3.47811624       4.80552358
Si      -3.32844287      -2.87761496       6.41832569
Si      -0.90804267       7.53627819      -1.17196670
Si       1.14317257       1.18405538       3.72870828
Si       0.74650044       8.58834666      -2.01360538