18
Lattice="5.913394458616593 -3.656135966575216e-24 -1.4123919403265838e-28 6.025859631350691e-24 9.746159682843825 -1.1394182699008333e-15 2.699559982936123e-28 1.3213694364056933e-15 11.302502221910196" Properties=species:S:1:pos:R:3 unique_starting_index=81 config_type=initial n_minim_iter=1 energy=-2925.536370144335 free_energy=-2925.536370144335 pbc="T T T"
Si       2.95670225       3.81418005       4.58827019
Si       2.95670225       5.93197963       6.71423203
Si       2.95670225       3.81418005       6.71423203
Si       2.95670225       5.93197963       4.58827019
Si       5.03560521       3.80782111       4.16076636
Si       5.03560521       5.93833857       7.14173586
Si       5.03560521       3.80782111       7.14173586
Si       5.03560521       5.93833857       4.16076636
Si       3.81992453       7.87180635       4.58766628
Si       3.81992453       1.87435333       6.71483594
Si       3.81992453       7.87180635       6.71483594
Si       3.81992453       1.87435333       4.58766628
Si       4.00416540       8.68916442       8.67068106
Si       4.00416540       1.05699526       2.63182117
Si       4.00416540       8.68916442       2.63182117
Si       4.00416540       1.05699526       8.67068106
Si       2.30197388       9.74615968       9.35746303
Si       2.30197388      -0.00000000       1.94503919
18
Lattice="5.914335612695339 -3.678524104736884e-24 -1.4253042576262063e-28 5.9847489955094226e-24 9.737141135011006 -1.138364264153169e-15 2.6731858908889017e-28 1.3201995481450324e-15 11.292498887147135" Properties=species:S:1:pos:R:3 unique_starting_index=81 config_type=initial n_minim_iter=2 stress="-0.00171889325657098 -9.135885854253199e-16 -1.0755318918611057e-17 -9.135885854253199e-16 -0.011451480627124085 6.300527640389574e-16 -1.0755318918611057e-17 6.300527640389574e-16 -0.007563283217531438" pbc="T T T"
Si       2.95735132       3.80925482       4.58444462
Si       2.95735132       5.92788632       6.70805426
Si       2.95735132       3.80925482       6.70805426
Si       2.95735132       5.92788632       4.58444462
Si       5.03650361       3.80389693       4.15719447
Si       5.03650361       5.93324421       7.13530441
Si       5.03650361       3.80389693       7.13530441
Si       5.03650361       5.93324421       4.15719447
Si       3.82037577       7.86393105       4.58324798
Si       3.82037577       1.87321009       6.70925090
Si       3.82037577       7.86393105       6.70925090
Si       3.82037577       1.87321009       4.58324798
Si       4.00496084       8.68076513       8.66244294
Si       4.00496084       1.05637600       2.63005594
Si       4.00496084       8.68076513       2.63005594
Si       4.00496084       1.05637600       8.66244294
Si       2.30178650       9.73714114       9.34953194
Si       2.30178650      -0.00000000       1.94296695
18
Lattice="5.916625238200414 -3.707550375117692e-24 -1.4261760596227807e-28 5.943601998990248e-24 9.745340076434067 -1.139320678285758e-15 2.6734225306666553e-28 1.3206195454034677e-15 11.296070693056462" Properties=species:S:1:pos:R:3 unique_starting_index=81 config_type=initial n_minim_iter=3 stress="0.0025916981310202232 -3.812510165159753e-16 2.853003848462189e-17 -3.812510165159753e-16 -0.0025421639541219534 8.459986916838704e-16 2.853003848462189e-17 8.459986916838704e-16 -0.003522949828108906" pbc="T T T"
Si       2.95859751       3.81115412       4.58608963
Si       2.95859751       5.93418595       6.70998107
Si       2.95859751       3.81115412       6.70998107
Si       2.95859751       5.93418595       4.58608963
Si       5.03856275       3.80662244       4.15862942
Si       5.03856275       5.93871763       7.13744127
Si       5.03856275       3.80662244       7.13744127
Si       5.03856275       5.93871763       4.15862942
Si       3.82176904       7.87007429       4.58431506
Si       3.82176904       1.87526579       6.71175563
Si       3.82176904       7.87007429       6.71175563
Si       3.82176904       1.87526579       4.58431506
Si       4.00667382       8.68771631       8.66464465
Si       4.00667382       1.05762376       2.63142605
Si       4.00667382       8.68771631       2.63142605
Si       4.00667382       1.05762376       8.66464465
Si       2.30210265       9.74534008       9.35286177
Si       2.30210265      -0.00000000       1.94320892
18
Lattice="5.911850410591821 -3.704180024875778e-24 -1.4374428646225497e-28 5.9442523719521315e-24 9.745139359302025 -1.1392981483484151e-15 2.6499935186080176e-28 1.3212244696613751e-15 11.301254389130271" Properties=species:S:1:pos:R:3 unique_starting_index=81 config_type=initial n_minim_iter=4 stress="-0.0006154743283294406 1.4882128699027712e-15 -2.169211388775497e-16 1.4882128699027712e-15 -0.004311571180238191 6.491865249653172e-16 -2.169211388775497e-16 6.491865249653172e-16 -8.523412085179516e-05" pbc="T T T"
Si       2.95618023       3.81085110       4.58825595
Si       2.95618023       5.93428826       6.71299843
Si       2.95618023       3.81085110       6.71299843
Si       2.95618023       5.93428826       4.58825595
Si       5.03454769       3.80633983       4.16062058
Si       5.03454769       5.93879953       7.14063381
Si       5.03454769       3.80633983       7.14063381
Si       5.03454769       5.93879953       4.16062058
Si       3.81873379       7.86981849       4.58635994
Si       3.81873379       1.87532087       6.71489445
Si       3.81873379       7.86981849       6.71489445
Si       3.81873379       1.87532087       4.58635994
Si       4.00337591       8.68746957       8.66843300
Si       4.00337591       1.05766979       2.63282139
Si       4.00337591       8.68746957       2.63282139
Si       4.00337591       1.05766979       8.66843300
Si       2.30023268       9.74513936       9.35724723
Si       2.30023268      -0.00000000       1.94400716
18
Lattice="5.9091612734344245 -3.710725315884269e-24 -1.4372810119385413e-28 5.931751065567617e-24 9.747313004468657 -1.1395515693461787e-15 2.6486122019661527e-28 1.3209904050960915e-15 11.299245461334559" Properties=species:S:1:pos:R:3 unique_starting_index=81 config_type=initial n_minim_iter=5 stress="-0.0018327070724012734 1.6948964652688714e-15 -1.8321216750522105e-16 1.6948964652688714e-15 -0.002292129260280302 9.666275310428668e-16 -1.8321216750522105e-16 9.666275310428668e-16 -0.0023911081844771296" pbc="T T T"
Si       2.95473038       3.81168062       4.58753679
Si       2.95473038       5.93563239       6.71170867
Si       2.95473038       3.81168062       6.71170867
Si       2.95473038       5.93563239       4.58753679
Si       5.03233610       3.80700167       4.15996838
Si       5.03233610       5.94031133       7.13927709
Si       5.03233610       3.80700167       7.13927709
Si       5.03233610       5.94031133       4.15996838
Si       3.81710231       7.87159346       4.58558359
Si       3.81710231       1.87571954       6.71366187
Si       3.81710231       7.87159346       6.71366187
Si       3.81710231       1.87571954       4.58558359
Si       4.00148606       8.68933143       8.66667427
Si       4.00148606       1.05798157       2.63257119
Si       4.00148606       8.68933143       2.63257119
Si       4.00148606       1.05798157       8.66667427
Si       2.29916627       9.74731300       9.35568946
Si       2.29916627      -0.00000000       1.94355600
18
Lattice="5.898604474064339 -3.71033242241558e-24 -1.4296633506481308e-28 5.915623734170749e-24 9.73745920790394 -1.1384010889121191e-15 2.6637601985354408e-28 1.3235580301566813e-15 11.321223193199609" Properties=species:S:1:pos:R:3 unique_starting_index=81 config_type=initial n_minim_iter=6 stress="3.248124156379662e-05 1.1776270054546942e-15 3.8675691664618376e-16 1.1776270054546942e-15 0.0015148712148070603 1.0900852918122722e-15 3.8675691664618376e-16 1.0900852918122722e-15 0.000559174661521526" pbc="T T T"
Si       2.94674021       3.80889336       4.59824525
Si       2.94674021       5.92856585       6.72297795
Si       2.94674021       3.80889336       6.72297795
Si       2.94674021       5.92856585       4.59824525
Si       5.02541369       3.79997286       4.16984187
Si       5.02541369       5.93748635       7.15138133
Si       5.02541369       3.79997286       7.15138133
Si       5.02541369       5.93748635       4.16984187
Si       3.81257812       7.86413635       4.59576395
Si       3.81257812       1.87332286       6.72545924
Si       3.81257812       7.86413635       6.72545924
Si       3.81257812       1.87332286       4.59576395
Si       3.99336297       8.67893200       8.67907686
Si       3.99336297       1.05852721       2.64214633
Si       3.99336297       8.67893200       2.64214633
Si       3.99336297       1.05852721       8.67907686
Si       2.29370443       9.73745921       9.37651091
Si       2.29370443      -0.00000000       1.94471228
18
Lattice="5.893006204504308 -3.709798750899889e-24 -1.427880099733788e-28 5.907819514006272e-24 9.73257102650732 -1.1378262731290691e-15 2.668923206416881e-28 1.3256407503057953e-15 11.33900468756772" Properties=species:S:1:pos:R:3 unique_starting_index=81 config_type=initial n_minim_iter=7 stress="0.0006058555951425077 -2.991534330968847e-16 -1.9111506071751299e-16 -2.991534330968847e-16 0.0026034988659770107 8.169099712254955e-16 -1.9111506071751299e-16 8.169099712254955e-16 0.001899470116739714" pbc="T T T"
Si       2.94170205       3.80626001       4.60692687
Si       2.94170205       5.92631102       6.73207781
Si       2.94170205       3.80626001       6.73207781
Si       2.94170205       5.92631102       4.60692687
Si       5.02224553       3.79687581       4.17796496
Si       5.02224553       5.93569522       7.16103973
Si       5.02224553       3.79687581       7.16103973
Si       5.02224553       5.93569522       4.17796496
Si       3.81094368       7.86051785       4.60615857
Si       3.81094368       1.87205317       6.73284612
Si       3.81094368       7.86051785       6.73284612
Si       3.81094368       1.87205317       4.60615857
Si       3.98843996       8.67451802       8.68994393
Si       3.98843996       1.05805301       2.64906076
Si       3.98843996       8.67451802       2.64906076
Si       3.98843996       1.05805301       8.68994393
Si       2.29110562       9.73257103       9.39317087
Si       2.29110562      -0.00000000       1.94583382
18
Lattice="5.8865380833819145 -3.711263488758704e-24 -1.4248191034494453e-28 5.893457192595702e-24 9.723874546016424 -1.1368081369981056e-15 2.6775956860082957e-28 1.3283847096524707e-15 11.362461305514872" Properties=species:S:1:pos:R:3 unique_starting_index=81 config_type=initial n_minim_iter=8 stress="0.0011432844018649136 1.93101524394203e-15 -4.166834840549548e-16 1.93101524394203e-15 0.0035159124040019226 5.815030478747551e-16 -4.166834840549548e-16 5.815030478747551e-16 0.002499215767632287" pbc="T T T"
Si       2.93539997       3.80109411       4.61872520
Si       2.93539997       5.92278044       6.74373610
Si       2.93539997       3.80109411       6.74373610
Si       2.93539997       5.92278044       4.61872520
Si       5.01829430       3.79475610       4.18955253
Si       5.01829430       5.92911845       7.17290878
Si       5.01829430       3.79475610       7.17290878
Si       5.01829430       5.92911845       4.18955253
Si       3.81059488       7.85551968       4.61727968
Si       3.81059488       1.86835486       6.74518163
Si       3.81059488       7.85551968       6.74518163
Si       3.81059488       1.86835486       4.61727968
Si       3.98160167       8.66626380       8.70280640
Si       3.98160167       1.05761075       2.65965490
Si       3.98160167       8.66626380       2.65965490
Si       3.98160167       1.05761075       8.70280640
Si       2.28886825       9.72387455       9.41541234
Si       2.28886825      -0.00000000       1.94704897
18
Lattice="5.879026088842556 -3.714745920697732e-24 -1.418932002790843e-28 5.8721614152772904e-24 9.711099935362272 -1.1353147085313124e-15 2.6925231892689833e-28 1.3317247079328174e-15 11.391031014571364" Properties=species:S:1:pos:R:3 unique_starting_index=81 config_type=initial n_minim_iter=9 stress="-0.00044117212098159414 1.7045532774195483e-15 -6.10137801497007e-16 1.7045532774195483e-15 0.002037259767047133 8.297662206746149e-16 -6.10137801497007e-16 8.297662206746149e-16 -2.6615308725283055e-05" pbc="T T T"
Si       2.93167472       3.79449946       4.63257473
Si       2.93167472       5.91660047       6.75845628
Si       2.93167472       3.79449946       6.75845628
Si       2.93167472       5.91660047       4.63257473
Si       5.01004033       3.78920534       4.20597856
Si       5.01004033       5.92189459       7.18505246
Si       5.01004033       3.78920534       7.18505246
Si       5.01004033       5.92189459       4.20597856
Si       3.81110460       7.84692560       4.63254497
Si       3.81110460       1.86417433       6.75848605
Si       3.81110460       7.84692560       6.75848605
Si       3.81110460       1.86417433       4.63254497
Si       3.97369086       8.65300087       8.71789001
Si       3.97369086       1.05809907       2.67314101
Si       3.97369086       8.65300087       2.67314101
Si       3.97369086       1.05809907       8.71789001
Si       2.28452033       9.71109994       9.44444547
Si       2.28452033      -0.00000000       1.94658554
18
Lattice="5.898091695799249 -3.7494793468952216e-24 -1.4179092667175758e-28 5.8135075161318764e-24 9.6784160654081 -1.1314928245502501e-15 2.7149758850874693e-28 1.3374544644143365e-15 11.440033260098346" Properties=species:S:1:pos:R:3 unique_starting_index=81 config_type=initial n_minim_iter=10 stress="-0.0008537094593529686 8.411501186194559e-16 -1.9444565436497121e-16 8.411501186194559e-16 -0.002833585088320871 8.456210935873428e-16 -1.9444565436497121e-16 8.456210935873428e-16 -0.003997871519758385" pbc="T T T"
Si       2.94121324       3.77813598       4.65961035
Si       2.94121324       5.90028008       6.78042291
Si       2.94121324       3.77813598       6.78042291
Si       2.94121324       5.90028008       4.65961035
Si       5.02299604       3.77069851       4.23633109
Si       5.02299604       5.90771756       7.20370217
Si       5.02299604       3.77069851       7.20370217
Si       5.02299604       5.90771756       4.23633109
Si       3.83392152       7.82250305       4.65664033
Si       3.83392152       1.85591302       6.78339293
Si       3.83392152       7.82250305       6.78339293
Si       3.83392152       1.85591302       4.65664033
Si       3.97708969       8.62273499       8.74499807
Si       3.97708969       1.05568108       2.69503519
Si       3.97708969       8.62273499       2.69503519
Si       3.97708969       1.05568108       8.74499807
Si       2.29651078       9.67841607       9.49292881
Si       2.29651078      -0.00000000       1.94710445
18
Lattice="6.1405947137681425 -4.503343749874559e-24 -1.6769968391761077e-28 4.63821803991268e-24 9.408008331971102 -1.0998660947225968e-15 2.4290411136984663e-28 1.3861302894862136e-15 11.856248566155838" Properties=species:S:1:pos:R:3 unique_starting_index=81 config_type=initial n_minim_iter=11 stress="-0.0008298049851309401 3.113672899531026e-15 -7.261608325214534e-16 3.113672899531026e-15 0.012131710390197836 3.8536827083963434e-17 -7.261608325214534e-16 3.8536827083963434e-17 0.011878366984670435" pbc="T T T"
Si       3.05868861       3.64026188       4.85612531
Si       3.05868861       5.76774645       7.00012326
Si       3.05868861       3.64026188       7.00012326
Si       3.05868861       5.76774645       4.85612531
Si       5.18830399       3.62414983       4.51915689
Si       5.18830399       5.78385850       7.33709168
Si       5.18830399       3.62414983       7.33709168
Si       5.18830399       5.78385850       4.51915689
Si       4.10643235       7.61712259       4.87125211
Si       4.10643235       1.79088575       6.98499645
Si       4.10643235       7.61712259       6.98499645
Si       4.10643235       1.79088575       4.87125211
Si       4.03863746       8.35494985       8.97934962
Si       4.03863746       1.05305848       2.87689895
Si       4.03863746       8.35494985       2.87689895
Si       4.03863746       1.05305848       8.97934962
Si       2.45446149       9.40800833       9.91011625
Si       2.45446149      -0.00000000       1.94613232
18
Lattice="6.14950764373198 -4.80715840043002e-24 -1.8615511259800623e-28 4.14312254345515e-24 9.398794800577736 -1.0987015930903833e-15 2.0839621715878694e-28 1.3879600709236133e-15 11.871024519339624" Properties=species:S:1:pos:R:3 unique_starting_index=81 config_type=initial n_minim_iter=12 stress="-0.00044711962656435113 3.4931927669534237e-15 -1.9246674643630254e-15 3.4931927669534237e-15 0.010688682572376563 -1.0052829070157912e-15 -1.9246674643630254e-15 -1.0052829070157912e-15 0.013608925923475557" pbc="T T T"
Si       3.06299305       3.63562496       4.86348115
Si       3.06299305       5.76316984       7.00754337
Si       3.06299305       3.63562496       7.00754337
Si       3.06299305       5.76316984       4.86348115
Si       5.19419604       3.61924602       4.52951355
Si       5.19419604       5.77954878       7.34151097
Si       5.19419604       3.61924602       7.34151097
Si       5.19419604       5.77954878       4.52951355
Si       4.11659862       7.60991854       4.87878263
Si       4.11659862       1.78887626       6.99224189
Si       4.11659862       7.60991854       6.99224189
Si       4.11659862       1.78887626       4.87878263
Si       4.04089693       8.34575659       8.98774143
Si       4.04089693       1.05303821       2.88328309
Si       4.04089693       8.34575659       2.88328309
Si       4.04089693       1.05303821       8.98774143
Si       2.46036500       9.39879480       9.92525131
Si       2.46036500      -0.00000000       1.94577321
18
Lattice="6.173482701979072 -4.9457256196132025e-24 -1.9445190979899522e-28 3.950292151818056e-24 9.420812282651907 -1.1012757316405514e-15 1.9205324577875631e-28 1.3837231667905018e-15 11.83477754527388" Properties=species:S:1:pos:R:3 unique_starting_index=81 config_type=initial n_minim_iter=13 stress="-0.0007466415780042956 8.216511894729889e-16 8.238343959876664e-17 8.216511894729889e-16 0.009149461508823578 -3.9400230086764713e-16 8.238343959876664e-17 -3.9400230086764713e-16 0.009527209328609999" pbc="T T T"
Si       3.07725502       3.64702232       4.85352601
Si       3.07725502       5.77378997       6.98125153
Si       3.07725502       3.64702232       6.98125153
Si       3.07725502       5.77378997       4.85352601
Si       5.20898053       3.63288374       4.51966465
Si       5.20898053       5.78792855       7.31511289
Si       5.20898053       3.63288374       7.31511289
Si       5.20898053       5.78792855       4.51966465
Si       4.13221778       7.61995774       4.85734833
Si       4.13221778       1.80085454       6.97742921
Si       4.13221778       7.61995774       6.97742921
Si       4.13221778       1.80085454       4.85734833
Si       4.05623243       8.36276216       8.97107037
Si       4.05623243       1.05805013       2.86370718
Si       4.05623243       8.36276216       2.86370718
Si       4.05623243       1.05805013       8.97107037
Si       2.47794668       9.42081228       9.89946721
Si       2.47794668      -0.00000000       1.93531034
18
Lattice="6.198379187321515 -5.150925548673163e-24 -2.026135218721018e-28 3.64114118823249e-24 9.434144564045116 -1.1028035693047698e-15 1.7559422930758765e-28 1.378329994047243e-15 11.788333224410554" Properties=species:S:1:pos:R:3 unique_starting_index=81 config_type=initial n_minim_iter=14 stress="0.0002758996423016142 1.1173719395747767e-15 2.1456697939250675e-16 1.1173719395747767e-15 0.011850884748335587 -1.5333295623975184e-15 2.1456697939250675e-16 -1.5333295623975184e-15 0.0009163948540584051" pbc="T T T"
Si       3.08856748       3.65453322       4.83155015
Si       3.08856748       5.77961134       6.95678307
Si       3.08856748       3.65453322       6.95678307
Si       3.08856748       5.77961134       4.83155015
Si       5.22541608       3.64070822       4.50932231
Si       5.22541608       5.79343634       7.27901092
Si       5.22541608       3.64070822       7.27901092
Si       5.22541608       5.79343634       4.50932231
Si       4.14984365       7.62124304       4.83162767
Si       4.14984365       1.81290153       6.95670556
Si       4.14984365       7.62124304       6.95670556
Si       4.14984365       1.81290153       4.83162767
Si       4.07133730       8.37131857       8.94003400
Si       4.07133730       1.06282600       2.84829922
Si       4.07133730       8.37131857       2.84829922
Si       4.07133730       1.06282600       8.94003400
Si       2.49986084       9.43414456       9.87391294
Si       2.49986084      -0.00000000       1.91442028
18
Lattice="6.196422698731638 -5.328837761212247e-24 -2.086383494244682e-28 3.348117632504923e-24 9.436009621948887 -1.1019635025943304e-15 1.6334812786625186e-28 1.3772249274224154e-15 11.768384899241523" Properties=species:S:1:pos:R:3 unique_starting_index=81 config_type=initial n_minim_iter=15 stress="0.0001686376196607725 3.700372033690457e-15 -3.514162418045038e-15 3.700372033690457e-15 -0.006068165032627826 -2.2864916622457705e-15 -3.514162418045038e-15 -2.2864916622457705e-15 -0.0033243742916480917" pbc="T T T"
Si       3.08585422       3.65671701       4.82274606
Si       3.08585422       5.77929261       6.94563883
Si       3.08585422       3.65671701       6.94563883
Si       3.08585422       5.77929261       4.82274606
Si       5.22280157       3.64277011       4.50379423
Si       5.22280157       5.79323951       7.26459067
Si       5.22280157       3.64277011       7.26459067
Si       5.22280157       5.79323951       4.50379423
Si       4.14781350       7.62001092       4.82050477
Si       4.14781350       1.81599871       6.94788013
Si       4.14781350       7.62001092       6.94788013
Si       4.14781350       1.81599871       4.82050477
Si       4.07294864       8.37765342       8.92585234
Si       4.07294864       1.05835620       2.84253256
Si       4.07294864       8.37765342       2.84253256
Si       4.07294864       1.05835620       8.92585234
Si       2.50012644       9.43600962       9.86724700
Si       2.50012644      -0.00000000       1.90113790
18
Lattice="6.177379644682931 -5.411763858105148e-24 -2.118758144182933e-28 3.221758315044795e-24 9.460764607844709 -1.104893184601765e-15 1.5615411039622827e-28 1.3753499561809608e-15 11.752655893056689" Properties=species:S:1:pos:R:3 unique_starting_index=81 config_type=initial n_minim_iter=16 stress="0.0055867102594907994 2.696289841603103e-15 -1.7732505421274002e-15 2.696289841603103e-15 -0.004301728792080714 -1.272811222087682e-15 -1.7732505421274002e-15 -1.272811222087682e-15 -0.0004084489145498543" pbc="T T T"
Si       3.07100431       3.66929166       4.81970712
Si       3.07100431       5.79147295       6.93294878
Si       3.07100431       3.66929166       6.93294878
Si       3.07100431       5.79147295       4.81970712
Si       5.20797436       3.65831081       4.50495159
Si       5.20797436       5.80245380       7.24770430
Si       5.20797436       3.65831081       7.24770430
Si       5.20797436       5.80245380       4.50495159
Si       4.13163645       7.63020549       4.81390097
Si       4.13163645       1.83055911       6.93875493
Si       4.13163645       7.63020549       6.93875493
Si       4.13163645       1.83055911       4.81390097
Si       4.06470258       8.40117560       8.91651498
Si       4.06470258       1.05958901       2.83614091
Si       4.06470258       8.40117560       2.83614091
Si       4.06470258       1.05958901       8.91651498
Si       2.49904593       9.46076461       9.88325959
Si       2.49904593      -0.00000000       1.86939630
18
Lattice="6.204880375732549 -5.5008026807204204e-24 -2.1487806880564587e-28 3.1089449388642314e-24 9.480592458830872 -1.1072281217326537e-15 1.497774675632091e-28 1.3712087443231156e-15 11.717341781358842" Properties=species:S:1:pos:R:3 unique_starting_index=81 config_type=initial n_minim_iter=17 stress="0.005516561870339175 3.1076270103756525e-15 -3.2469920519423313e-15 3.1076270103756525e-15 -0.003591702066691685 -2.2017455458642038e-15 -3.2469920519423313e-15 -2.2017455458642038e-15 -0.0072415816075330095" pbc="T T T"
Si       3.08381646       3.67755966       4.80032873
Si       3.08381646       5.80303280       6.91701305
Si       3.08381646       3.67755966       6.91701305
Si       3.08381646       5.80303280       4.80032873
Si       5.22808682       3.66788298       4.50105171
Si       5.22808682       5.81270947       7.21629007
Si       5.22808682       3.66788298       7.21629007
Si       5.22808682       5.81270947       4.50105171
Si       4.14715126       7.63901658       4.79758552
Si       4.14715126       1.84157588       6.91975627
Si       4.14715126       7.63901658       6.91975627
Si       4.14715126       1.84157588       4.79758552
Si       4.08094675       8.42132639       8.89361404
Si       4.08094675       1.05926607       2.82372774
Si       4.08094675       8.42132639       2.82372774
Si       4.08094675       1.05926607       8.89361404
Si       2.52749518       9.48059246       9.87140993
Si       2.52749518      -0.00000000       1.84593186
18
Lattice="6.2202802274753 -5.6170262375880094e-24 -2.1839954625847657e-28 2.961449937548513e-24 9.51913301916351 -1.111838096332624e-15 1.433971307413834e-28 1.3711337530121868e-15 11.717689586067758" Properties=species:S:1:pos:R:3 unique_starting_index=81 config_type=initial n_minim_iter=18 stress="0.004143279466143858 2.435274401583717e-15 -4.180553805997055e-15 2.435274401583717e-15 -0.0002789410316821922 -2.8099924508871393e-15 -4.180553805997055e-15 -2.8099924508871393e-15 0.004221914776623875" pbc="T T T"
Si       3.08437320       3.69404968       4.79178330
Si       3.08437320       5.82508334       6.92590629
Si       3.08437320       3.69404968       6.92590629
Si       3.08437320       5.82508334       4.79178330
Si       5.23428978       3.68590767       4.53532855
Si       5.23428978       5.83322535       7.18236103
Si       5.23428978       3.68590767       7.18236103
Si       5.23428978       5.83322535       4.53532855
Si       4.14982616       7.65919220       4.79713915
Si       4.14982616       1.85994081       6.92055044
Si       4.14982616       7.65919220       6.92055044
Si       4.14982616       1.85994081       4.79713915
Si       4.08865117       8.46098037       8.88706715
Si       4.08865117       1.05815265       2.83062244
Si       4.08865117       8.46098037       2.83062244
Si       4.08865117       1.05815265       8.88706715
Si       2.58159120       9.51913302       9.93182142
Si       2.58159120      -0.00000000       1.78586817
18
Lattice="6.179632924051784 -5.6953881120087546e-24 -2.231972406907163e-28 2.816613443875755e-24 9.52504020827132 -1.112508582984987e-15 1.3699294155863416e-28 1.38264471166329e-15 11.816032474221343" Properties=species:S:1:pos:R:3 unique_starting_index=81 config_type=initial n_minim_iter=19 stress="0.006840579769417471 -2.461638271334968e-16 -1.8704410278531725e-15 -2.461638271334968e-16 0.008716533974336148 -2.3337071369074384e-15 -1.8704410278531725e-15 -2.3337071369074384e-15 0.003344095770462629" pbc="T T T"
Si       3.05268340       3.69827516       4.84178721
Si       3.05268340       5.82676505       6.97424526
Si       3.05268340       3.69827516       6.97424526
Si       3.05268340       5.82676505       4.84178721
Si       5.19556130       3.69187997       4.61721832
Si       5.19556130       5.83316024       7.19881416
Si       5.19556130       3.69187997       7.19881416
Si       5.19556130       5.83316024       4.61721832
Si       4.11601395       7.66574751       4.84687002
Si       4.11601395       1.85929269       6.96916246
Si       4.11601395       7.66574751       6.96916246
Si       4.11601395       1.85929269       4.84687002
Si       4.06133892       8.46564261       8.93643661
Si       4.06133892       1.05939760       2.87959587
Si       4.06133892       8.46564261       2.87959587
Si       4.06133892       1.05939760       8.93643661
Si       2.61141691       9.52504021      10.07577007
Si       2.61141691      -0.00000000       1.74026240
18
Lattice="6.142253004489536 -5.7364895087500616e-24 -2.2984934499479826e-28 2.6977932392453366e-24 9.49123083849966 -1.1085294995229748e-15 1.2873418664992366e-28 1.398814778891251e-15 11.954247220741365" Properties=species:S:1:pos:R:3 unique_starting_index=81 config_type=initial n_minim_iter=20 stress="0.00014401437499761367 4.474839051717606e-16 -2.9761932472466378e-15 4.474839051717606e-16 0.010795703871087348 -1.4075838442186133e-15 -2.9761932472466378e-15 -1.4075838442186133e-15 0.00509228315457041" pbc="T T T"
Si       3.03000316       3.68527805       4.91339479
Si       3.03000316       5.80595279       7.04085243
Si       3.03000316       3.68527805       7.04085243
Si       3.03000316       5.80595279       4.91339479
Si       5.15992192       3.67765501       4.70222292
Si       5.15992192       5.81357583       7.25202430
Si       5.15992192       3.67765501       7.25202430
Si       5.15992192       5.81357583       4.70222292
Si       4.08184897       7.65680526       4.91518954
Si       4.08184897       1.83442557       7.03905768
Si       4.08184897       7.65680526       7.03905768
Si       4.08184897       1.83442557       4.91518954
Si       4.03914344       8.43058085       9.01699914
Si       4.03914344       1.06064999       2.93724808
Si       4.03914344       8.43058085       2.93724808
Si       4.03914344       1.06064999       9.01699914
Si       2.62626764       9.49123084      10.19868371
Si       2.62626764      -0.00000000       1.75556351
18