6
Lattice="3.575490792585228 -0.5731853530899077 -0.12203779459305283 -1.527552140717048 5.266470258945273 -0.2855221048410572 -1.3948887837510064 -1.5226160016719754 9.63832071045763" Properties=species:S:1:pos:R:3 unique_starting_index=56 config_type=initial n_minim_iter=1 energy=-974.0406216045335 free_energy=-974.0406216045335 pbc="T T T"
Si      -1.09746685       3.46447350       7.37403587
Si       0.52632120       3.98211803      -0.14791932
Si      -1.11038621       4.39109633       1.63192046
Si      -0.14210173       1.56305237       7.25199757
Si       1.46740596       0.18906027       6.99073340
Si      -0.20456377       2.16122879       1.55860658
6
Lattice="3.578592988544268 -0.5828397566924862 -0.11717364698538318 -1.5448923182347258 5.2609951199411595 -0.30100221407122035 -1.3796358000983475 -1.537710586459378 9.68694459661632" Properties=species:S:1:pos:R:3 unique_starting_index=56 config_type=initial n_minim_iter=2 stress="-0.01248188132385468 -0.014046915222294027 -0.002252283132750177 -0.014046915222294027 0.006459174029038365 0.001189146887108045 -0.002252283132750177 0.001189146887108045 -0.00020802076430011476" pbc="T T T"
Si      -1.10502128       3.44847863       7.40278893
Si       0.51850309       3.96697486      -0.15945014
Si      -1.13106613       4.38627852       1.62589243
Si      -0.14117028       1.54094538       7.28436953
Si       1.48036721       0.16913632       7.02615283
Si      -0.20329000       2.15058185       1.56144404
6
Lattice="3.6227240130491882 -0.5706565128410024 -0.0910321732645983 -1.5611323683981349 5.19251340713789 -0.367372775496625 -1.3373715215799151 -1.6128872137556853 9.870117735778454" Properties=species:S:1:pos:R:3 unique_starting_index=56 config_type=initial n_minim_iter=3 stress="0.012535089306143901 -0.010361823208782905 0.0008107677632179757 -0.010361823208782905 0.014846783144534054 0.0020851794515075396 0.0008107677632179757 0.0020851794515075396 0.006686461830586198" pbc="T T T"
Si      -1.08730788       3.34757741       7.50743184
Si       0.54635878       3.89398708      -0.20559116
Si      -1.16537362       4.32949931       1.59542591
Si      -0.09505366       1.44338419       7.40645782
Si       1.55268659       0.10393647       7.16327902
Si      -0.16796830       2.09407434       1.57032743
6
Lattice="3.6369395104498303 -0.5465483400169632 -0.06727838811037327 -1.5516286399463983 5.094122537828902 -0.43367299208058346 -1.295967154867989 -1.6879889331595024 10.023169220826734" Properties=species:S:1:pos:R:3 unique_starting_index=56 config_type=initial n_minim_iter=4 stress="-0.009797556040458089 -0.0014261107366721824 0.0030315801599747915 -0.0014261107366721824 -0.0037904797732852477 0.0008556885970088084 0.0030315801599747915 0.0008556885970088084 0.0052444551147952" pbc="T T T"
Si      -1.05745931       3.22154847       7.58707014
Si       0.57978952       3.80408713      -0.25255286
Si      -1.18119972       4.24666371       1.55717338
Si      -0.05112260       1.33484963       7.50417172
Si       1.60863342       0.03940577       7.27627875
Si      -0.12691910       2.02612370       1.57361779
6
Lattice="3.7003846169843118 -0.5067806796265584 -0.04205901854130576 -1.5497078512202442 4.947250880862175 -0.5505741538033118 -1.288178596216429 -1.8467034687842492 10.226369700628151" Properties=species:S:1:pos:R:3 unique_starting_index=56 config_type=initial n_minim_iter=5 stress="-0.0009601178170890027 -0.0005992952379851997 0.0021500024238139126 -0.0005992952379851997 -0.013708686136752784 0.00021798259039070868 0.0021500024238139126 0.00021798259039070868 0.004323118399887962" pbc="T T T"
Si      -1.05795140       3.00164460       7.66934531
Si       0.64785484       3.66482949      -0.34382229
Si      -1.23959059       4.12197694       1.46814669
Si      -0.02034340       1.14480218       7.61890687
Si       1.69532934      -0.09427452       7.41139840
Si      -0.05737044       1.91150947       1.56455319
6
Lattice="3.7046706955981907 -0.48263706677083934 -0.039324705508142974 -1.5167331695121462 4.954709637994715 -0.601364019334131 -1.3092121610435985 -1.9551599508187167 10.253789221826379" Properties=species:S:1:pos:R:3 unique_starting_index=56 config_type=initial n_minim_iter=6 stress="0.0025673796243549855 0.00045048521657564705 0.0022277366306481237 0.00045048521657564705 -0.0018265473934745819 -0.0023364591174847437 0.0022277366306481237 -0.0023364591174847437 0.003129688155056958" pbc="T T T"
Si      -1.05906603       2.94920378       7.65324484
Si       0.69021808       3.66358738      -0.38857476
Si      -1.24891476       4.12623599       1.41388453
Si      -0.01497004       1.07085793       7.61900891
Si       1.70510594      -0.15099003       7.41895907
Si      -0.01625092       1.89139320       1.54727799
6
Lattice="3.6787438325314628 -0.4627365862615509 -0.06296018566984561 -1.4641948037555772 5.009032449352711 -0.5558451105020763 -1.3710279810549852 -1.926336099940322 10.125949588513942" Properties=species:S:1:pos:R:3 unique_starting_index=56 config_type=initial n_minim_iter=7 stress="0.002992789425774928 0.0011298372434477167 0.0009572025568903257 0.0011298372434477167 0.0054476711221677415 -0.0024317063212831763 0.0009572025568903257 -0.0024317063212831763 0.0002466225894713059" pbc="T T T"
Si      -1.06408329       3.03003213       7.58452738
Si       0.70971559       3.71802788      -0.36692311
Si      -1.21729587       4.17860464       1.42850069
Si      -0.05048186       1.14148503       7.53510150
Si       1.65894633      -0.10093671       7.32105520
Si      -0.00328766       1.93437493       1.53739025
6
Lattice="3.666340239643858 -0.4476473196132492 -0.08467319837030293 -1.43524573470159 4.9967310365462865 -0.5071367121653153 -1.4219941506416107 -1.8587585613098034 10.07667781005574" Properties=species:S:1:pos:R:3 unique_starting_index=56 config_type=initial n_minim_iter=8 stress="0.0010565218791863304 0.0024262078285135088 -0.0006387256707912538 0.0024262078285135088 -0.0008991272017214691 -0.0007726702491881863 -0.0006387256707912538 -0.0007726702491881863 -0.0019520367850735494" pbc="T T T"
Si      -1.08405280       3.08569146       7.58570643
Si       0.71946502       3.70774672      -0.34697845
Si      -1.22063907       4.18101960       1.45789239
Si      -0.08089290       1.20153196       7.51870029
Si       1.62671295      -0.05178148       7.28616230
Si       0.01957535       1.95047972       1.54513499
6
Lattice="3.6158021204484467 -0.44139691451790536 -0.1249314310429946 -1.3970680648594715 4.996734548257694 -0.38512455881308777 -1.484832216201844 -1.6671213326069447 10.015410654869235" Properties=species:S:1:pos:R:3 unique_starting_index=56 config_type=initial n_minim_iter=9 stress="-0.0032182245510168515 -0.0017975171108062964 -0.002917419024144022 -0.0017975171108062964 -0.0030782715805546036 0.0028421916031600904 -0.002917419024144022 0.0028421916031600904 -0.004164567659156048" pbc="T T T"
Si      -1.11843598       3.26289032       7.64493659
Si       0.69410486       3.68453589      -0.30153919
Si      -1.25843651       4.20487744       1.54978892
Si      -0.12431017       1.37140216       7.53684492
Si       1.55565552       0.07110659       7.25964648
Si       0.08298716       2.01612528       1.58022909
6
Lattice="3.6132261275068935 -0.42882619452471954 -0.10654188461431034 -1.3863496114153069 4.958466402218014 -0.42305700522366774 -1.438712157800754 -1.70410048366673 10.21535331655917" Properties=species:S:1:pos:R:3 unique_starting_index=56 config_type=initial n_minim_iter=10 stress="-0.012709415850774407 -0.002343172545384195 -0.0028373734195371735 -0.002343172545384195 -0.006363687373875193 0.003260496018008506 -0.0028373734195371735 0.003260496018008506 0.0018254088637849363" pbc="T T T"
Si      -1.08260483       3.21865742       7.79309046
Si       0.68747385       3.62631707      -0.35732819
Si      -1.30483924       4.15585066       1.54882677
Si      -0.07870940       1.32873925       7.69290017
Si       1.60313135       0.04200596       7.42348096
Si       0.16894474       2.01677549       1.60562606
6
Lattice="3.626401178460699 -0.4399243809182598 -0.048086267176238595 -1.4184578701784964 4.944758632656314 -0.518777139164328 -1.2957121555255653 -1.8186609642989942 10.338471302090632" Properties=species:S:1:pos:R:3 unique_starting_index=56 config_type=initial n_minim_iter=11 stress="-0.005568304522962298 0.0020366537604246237 0.0007439580230817727 0.0020366537604246237 -0.0036948391662114687 0.003346464407520483 0.0007439580230817727 0.003346464407520483 0.003146581716279038" pbc="T T T"
Si      -0.99483256       3.11931733       7.84616706
Si       0.62278945       3.56713597      -0.47111801
Si      -1.38689561       4.08167441       1.48876629
Si       0.03572324       1.22825301       7.78496671
Si       1.71783170      -0.04822372       7.55518507
Si       0.29093937       2.04453839       1.60186628
6
Lattice="3.654395384192873 -0.4640949248677008 -0.01141390800460584 -1.4662329585724891 4.981771541238503 -0.6130742940317933 -1.2211733311203272 -1.96741410839934 10.343079640605476" Properties=species:S:1:pos:R:3 unique_starting_index=56 config_type=initial n_minim_iter=12 stress="0.0040093715879348 -0.0035979408978732666 0.0024105152202710243 -0.0035979408978732666 0.007941041143447668 0.0018713827848938643 0.0024105152202710243 0.0018713827848938643 0.008405005845196432" pbc="T T T"
Si      -0.95497716       3.00305857       7.77094855
Si       0.57821104       3.59191833      -0.53160562
Si      -1.39250508       4.05811488       1.41642946
Si       0.08037533       1.11755400       7.74945883
Si       1.77598214      -0.14765090       7.56029848
Si       0.28038424       2.05286918       1.56646685
6
Lattice="3.669146690458375 -0.4679698970897659 -0.006498718879886027 -1.473212082003586 5.027725305410044 -0.6700206323596123 -1.2382273443767364 -2.0967087395005275 10.182764462404407" Properties=species:S:1:pos:R:3 unique_starting_index=56 config_type=initial n_minim_iter=13 stress="0.006033619418359452 -0.005172658790794161 0.002289339083761944 -0.005172658790794161 0.005990263635843922 0.0007244016988902404 0.002289339083761944 0.0007244016988902404 0.0018342853920287193" pbc="T T T"
Si      -0.95095070       2.91973996       7.58491101
Si       0.54849700       3.62656861      -0.57469787
Si      -1.38421997       4.04021756       1.34032158
Si       0.06627191       1.04591557       7.59225749
Si       1.77397936      -0.21803513       7.43080711
Si       0.27818420       2.08722970       1.50524160
6
Lattice="3.671321830904253 -0.45474265704251887 -0.025069256925768266 -1.4480351729581342 5.067070389908949 -0.7042128649299613 -1.3140784472559919 -2.202948637656064 10.116007449741215" Properties=species:S:1:pos:R:3 unique_starting_index=56 config_type=initial n_minim_iter=14 stress="-0.0025462489582322783 0.006648187055837566 0.0006970257797753568 0.006648187055837566 -0.011956366692440455 0.00046302196149596123 0.0006970257797753568 0.00046302196149596123 -0.00029824468298064526" pbc="T T T"
Si      -0.97326645       2.86560238       7.48573335
Si       0.53447926       3.65293635      -0.60762172
Si      -1.37128357       4.02432430       1.29571584
Si       0.02064804       0.99690684       7.50904066
Si       1.73282393      -0.26207270       7.36190479
Si       0.29063965       2.13048806       1.46516171
6
Lattice="3.680467616987988 -0.445510288787808 -0.03761124953278687 -1.4352155146179535 5.0869700787249 -0.7353670140373292 -1.3708295860492892 -2.2883556034883097 10.064706135923599" Properties=species:S:1:pos:R:3 unique_starting_index=56 config_type=initial n_minim_iter=15 stress="0.00027746590120216597 -0.0017517713810646584 -0.0004721296318838725 -0.0017517713810646584 0.00202946935988934 -0.0009668696973428587 -0.0004721296318838725 -0.0009668696973428587 -0.005299642614200506" pbc="T T T"
Si      -1.00028875       2.82432410       7.40623009
Si       0.51993054       3.65294154      -0.63899563
Si      -1.38207922       4.00441106       1.25144376
Si      -0.00900734       0.94470440       7.44780890
Si       1.71150165      -0.30497558       7.31239456
Si       0.31625057       2.16031309       1.43230071
6
Lattice="3.6885091080444075 -0.4371943005689833 -0.04981507820724668 -1.4263638154983376 5.080959100296902 -0.7345639604159095 -1.4116697458542427 -2.2987098217830706 10.076298675713865" Properties=species:S:1:pos:R:3 unique_starting_index=56 config_type=initial n_minim_iter=16 stress="0.0029204493061366367 -0.0006084809184302271 -0.0011348804068567094 -0.0006084809184302271 0.00904864573497368 -0.000868462732305527 -0.0011348804068567094 -0.000868462732305527 -0.0019056060614188407" pbc="T T T"
Si      -1.02193283       2.81889003       7.40170121
Si       0.52920958       3.64971308      -0.62711305
Si      -1.36412649       4.00116436       1.24752748
Si      -0.03304228       0.93218857       7.44728274
Si       1.69371001      -0.30587192       7.31219461
Si       0.29888047       2.15506194       1.43211568
6
Lattice="3.705302641437751 -0.42282030833170026 -0.04655664290903967 -1.422842718085855 5.021271128758777 -0.7535328955407532 -1.4130076683607138 -2.310448139052029 10.206175157982337" Properties=species:S:1:pos:R:3 unique_starting_index=56 config_type=initial n_minim_iter=17 stress="-0.0031300101022473923 -0.005674823106855792 -0.0021821858998096735 -0.005674823106855792 0.003812476966497325 0.00021500158856362504 -0.0021821858998096735 0.00021500158856362504 0.0022537730578734852" pbc="T T T"
Si      -1.01681777       2.77870839       7.47977117
Si       0.52153202       3.58185326      -0.64014263
Si      -1.37460262       3.94649113       1.23913578
Si      -0.02285047       0.89296641       7.54454474
Si       1.72039579      -0.32428386       7.42057364
Si       0.32999319       2.13902589       1.45361614
6
Lattice="3.7216085008741593 -0.4051847547006167 -0.026752069750076043 -1.4120449434142526 4.988290868905962 -0.7928918416985541 -1.3803915865755252 -2.3637343380672378 10.254320717188874" Properties=species:S:1:pos:R:3 unique_starting_index=56 config_type=initial n_minim_iter=18 stress="0.0027558613878019113 -0.0018321618073183336 -0.0014615667283108332 -0.0018321618073183336 0.0024319268902997624 -0.0007849350029469791 -0.0014615667283108332 -0.0007849350029469791 0.0006029051882815359" pbc="T T T"
Si      -0.97333631       2.72595303       7.47812290
Si       0.51781392       3.54038947      -0.66811337
Si      -1.36162692       3.90698976       1.19975118
Si       0.01579070       0.83915322       7.57772700
Si       1.77220714      -0.35933042       7.47523500
Si       0.36211422       2.12961951       1.45770035
6
Lattice="3.723215286062142 -0.39484433948626285 0.008752096905034123 -1.4054644785754529 4.957275356455617 -0.7974788448218175 -1.2845570968571003 -2.335982449744059 10.275081361282917" Properties=species:S:1:pos:R:3 unique_starting_index=56 config_type=initial n_minim_iter=19 stress="-0.0046899400067467656 0.00044870888605907824 -0.0006257528555320598 0.00044870888605907824 -0.004554115006338731 -0.0002670178222624526 -0.0006257528555320598 -0.0002670178222624526 -0.001001087856824885" pbc="T T T"
Si      -0.88215879       2.73761051       7.48647498
Si       0.50013145       3.49987397      -0.66803037
Si      -1.32485173       3.88984893       1.18383855
Si       0.09284753       0.84703107       7.62234017
Si       1.85270144      -0.34253781       7.53785478
Si       0.38517938       2.12749767       1.48923036
6
Lattice="3.7352578177192637 -0.38092286873566145 0.051908139122387786 -1.395255919657193 4.952522236616588 -0.8251291769476498 -1.1813630968679463 -2.3567010971020075 10.298746923297317" Properties=species:S:1:pos:R:3 unique_starting_index=56 config_type=initial n_minim_iter=20 stress="0.002019307692109263 -0.0006927250050655424 -0.0010457534061714586 -0.0006927250050655424 0.0009343062233315686 -0.0015473153787630182 -0.0010457534061714586 -0.0015473153787630182 0.002555638124425265" pbc="T T T"
Si      -0.77126415       2.73209429       7.47832800
Si       0.48263489       3.47869568      -0.68319143
Si      -1.28487770       3.88469936       1.14471799
Si       0.17798415       0.83376750       7.66022246
Si       1.95191731      -0.34441229       7.60323006
Si       0.42055365       2.13568577       1.51405940
6
Lattice="3.7343896756969506 -0.37702342283944734 0.07748141840405606 -1.3899600177023732 4.958994027405057 -0.8196783944406961 -1.1103865821578154 -2.3306950820169465 10.27508652941826" Properties=species:S:1:pos:R:3 unique_starting_index=56 config_type=initial n_minim_iter=21 stress="0.003189361622147911 0.0008118210913155078 0.0001972298387034192 0.0008118210913155078 0.0013022589042555974 -0.0018953865355941597 0.0001972298387034192 -0.0018953865355941597 0.0005489376637179004" pbc="T T T"
Si      -0.69835622       2.76419563       7.46528705
Si       0.46729115       3.47449820      -0.67769935
Si      -1.26032133       3.89525867       1.13560082
Si       0.23229632       0.86020636       7.66690932
Si       2.00726807      -0.31832782       7.61951033
Si       0.44049408       2.15180151       1.53315431
