20
Lattice="8.547755950255791 1.3676603746546256 1.4228841618608514 1.04135897919332 8.5936138010727 1.4228841618608477 1.041358979193277 1.0817747397356243 8.64318002314725" Properties=species:S:1:pos:R:3 unique_starting_index=58 config_type=initial n_minim_iter=1 energy=-3265.3464529062862 free_energy=-3265.3464529062862 pbc="T T T"
Si       5.78699664       9.44017557       8.21286330
Si       9.21309490       7.96342953       6.46220095
Si       7.60702823       6.08091041       9.75771585
Si       3.02344568       1.53355635       5.02674740
Si       4.84347727       3.21010440       1.73123250
Si       1.41737901       4.90097049       3.27608505
Si       5.66720602       8.50474067       1.47893296
Si       8.28289667       1.24091596       6.04059856
Si       0.92478640       5.70653576       8.55659397
Si       9.70568751       2.71892615       5.44834979
Si       4.96326788       9.90175311       2.93235438
Si       2.34757723       5.05627511      10.01001539
Si       6.54894630       1.95750779       7.03054083
Si       1.70684978       6.76317581       6.89167292
Si       6.69331679       6.80861324       2.23412954
Si       3.93715711       9.08004269       4.59727543
Si       4.08152760       4.09545896       9.25481880
Si       8.92362412       4.42434827       4.45840752
Si       2.74836520       2.85503089       2.97031215
Si       7.88210870       8.18801803       8.51863619
20
Lattice="8.5465099905044 1.3679866288111875 1.4232235896023544 1.0417324157358647 8.592381160563287 1.4232235896023508 1.0417324157358216 1.082162669572204 8.641961776760416" Properties=species:S:1:pos:R:3 unique_starting_index=58 config_type=initial n_minim_iter=2 stress="-0.00028070511262443416 -7.548184444897791e-05 -7.85296722528921e-05 -7.548184444897791e-05 -0.00028645465533562274 -8.157745548029078e-05 -7.85296722528921e-05 -8.157745548029078e-05 -0.0002929147293037746" pbc="T T T"
Si       5.78702819       9.43945315       8.21248147
Si       9.21237179       7.96304784       6.46218988
Si       7.60667434       6.08092852       9.75697888
Si       3.02330048       1.53377499       5.02621908
Si       4.84294662       3.20993889       1.73143007
Si       1.41760302       4.90044799       3.27592748
Si       5.66684144       8.50376372       1.47951124
Si       8.28193431       1.24150967       6.04022025
Si       0.92541630       5.70619491       8.55564067
Si       9.70455852       2.71934676       5.44818870
Si       4.96313337       9.90061818       2.93276829
Si       2.34804051       5.05615815      10.00889772
Si       6.54838816       1.95795267       7.02991293
Si       1.70731558       6.76256980       6.89110769
Si       6.69269349       6.80803096       2.23454923
Si       3.93728132       9.07908183       4.59730126
Si       4.08158665       4.09558551       9.25385972
Si       8.92265924       4.42437061       4.45849603
Si       2.74822899       2.85488939       2.97016494
Si       7.88174583       8.18764107       8.51824401
20
Lattice="8.547637074787005 1.3694558718294192 1.4247521581412323 1.0431576997506913 8.593563344772202 1.4247521581412288 1.0431576997506478 1.083643269706254 8.643203511242868" Properties=species:S:1:pos:R:3 unique_starting_index=58 config_type=initial n_minim_iter=3 stress="0.0002494056917519564 0.0005406911789955516 0.0005625233642085502 0.0005406911789955516 0.00029059078805991037 0.0005843552301039237 0.0005625233642085502 0.0005843552301039237 0.00033686555828053757" pbc="T T T"
Si       5.79000211       9.44218113       8.21573053
Si       9.21498461       7.96617267       6.46539160
Si       7.60969747       6.08401972       9.75983327
Si       3.02425500       1.53517717       5.02731623
Si       4.84395036       3.21093233       1.73287456
Si       1.41896785       4.90150444       3.27697730
Si       5.66887409       8.50542117       1.48167563
Si       8.28351320       1.24358951       6.04239850
Si       0.92743455       5.70830589       8.55738246
Si       9.70651792       2.72182188       5.45030933
Si       4.96507838       9.90265308       2.93532537
Si       2.35043927       5.05819592      10.01103220
Si       6.55034759       1.96011620       7.03144652
Si       1.70940297       6.76402146       6.89320711
Si       6.69406467       6.81004402       2.23677174
Si       3.93988780       9.08107274       4.59950071
Si       4.08360488       4.09827074       9.25593608
Si       8.92454950       4.42646230       4.46126131
Si       2.74916921       2.85586610       2.97118109
Si       7.88478326       8.19079638       8.52152674
20
Lattice="8.546976532073149 1.368286413265219 1.4235354788400034 1.0420142273625297 8.5928587733367 1.42353547884 1.0420142273624866 1.082455418475493 8.64245135508665" Properties=species:S:1:pos:R:3 unique_starting_index=58 config_type=initial n_minim_iter=4 stress="-0.00017769209503264838 -0.0002239499138220597 -0.00023299262839331328 -0.0002239499138220597 -0.00019475062883912643 -0.00024203521069234374 -0.00023299262839331328 -0.00024203521069234374 -0.0002139172644544587" pbc="T T T"
Si       5.78793936       9.43996772       8.21376224
Si       9.21285131       7.96429081       6.46316991
Si       7.60789816       6.08188695       9.75754372
Si       3.02310683       1.53431867       5.02635240
Si       4.84306562       3.20974962       1.73197860
Si       1.41815367       4.90058805       3.27576007
Si       5.66772633       8.50419093       1.47984409
Si       8.28232753       1.24180663       6.04113322
Si       0.92569809       5.70709117       8.55608071
Si       9.70530689       2.72001267       5.44838909
Si       4.96327865       9.90137263       2.93344160
Si       2.34867745       5.05632779      10.00967822
Si       6.54911314       1.95858829       7.02966454
Si       1.70792315       6.76229198       6.89184593
Si       6.69239276       6.80874501       2.23517453
Si       3.93861222       9.07955543       4.59767639
Si       4.08189184       4.09692899       9.25434779
Si       8.92308183       4.42469212       4.45985777
Si       2.74830028       2.85496345       2.97024199
Si       7.88270470       8.18863716       8.51928032
20
Lattice="8.554230487168645 1.3766607816047944 1.4322479898528193 1.0501064576518429 8.60042618495225 1.432247989852816 1.0501064576517998 1.090861713029062 8.65035754118275" Properties=species:S:1:pos:R:3 unique_starting_index=58 config_type=initial n_minim_iter=5 stress="0.0001287970225632299 0.00012069703881182834 0.00012557057884536759 0.00012069703881182834 0.00013799066094839565 0.0001304440475977443 0.00012557057884536759 0.0001304440475977443 0.0001483204535256145" pbc="T T T"
Si       5.80635062       9.45488497       8.23504244
Si       9.22705706       7.98480400       6.48296263
Si       7.62785584       6.10107166       9.77329121
Si       3.02658756       1.54369059       5.03189089
Si       4.84809278       3.21342434       1.74156231
Si       1.42738634       4.90597048       3.27981108
Si       5.68137329       8.51716439       1.49005102
Si       8.29477222       1.25144651       6.05565680
Si       0.93485736       5.72109686       8.56944784
Si       9.71958604       2.73155820       5.45919672
Si       4.97307010       9.91603504       2.94540568
Si       2.35967118       5.06654504      10.02480250
Si       6.55881482       1.97172267       7.03761814
Si       1.72067879       6.76983602       6.90234713
Si       6.69944588       6.81872234       2.24861330
Si       3.95499752       9.09086999       4.61250639
Si       4.09562858       4.11384934       9.26624022
Si       8.93376461       4.43884568       4.47723538
Si       2.75284534       2.85968491       2.97515410
Si       7.90159805       8.20826377       8.53969942
20
Lattice="8.561381368660898 1.3903343090338605 1.446473630937507 1.0634979307332342 8.60809227307984 1.4464736309375037 1.0634979307331907 1.1047729171351826 8.65858044649464" Properties=species:S:1:pos:R:3 unique_starting_index=58 config_type=initial n_minim_iter=6 stress="0.0008517837484816474 -0.0001900904428732648 -0.00019776596990215233 -0.0001900904428732648 0.0008373043312303694 -0.00020544138466442404 -0.00019776596990215233 -0.00020544138466442404 0.000821035540623031" pbc="T T T"
Si       5.83559267       9.47333265       8.26762038
Si       9.24437848       8.01617256       6.51415105
Si       7.65854246       6.13150362       9.79301335
Si       3.02983476       1.56043872       5.03737666
Si       4.85278456       3.21685259       1.75851435
Si       1.44399875       4.91129836       3.28390733
Si       5.70310255       8.53848091       1.51059226
Si       8.31524632       1.27108050       6.07897663
Si       0.95369792       5.74355943       8.59156035
Si       9.73467930       2.74560252       5.47255107
Si       4.98527467       9.93160407       2.95996736
Si       2.37313091       5.07927108      10.04093544
Si       6.57013466       1.99422857       7.04275407
Si       1.74273757       6.77448652       6.91470898
Si       6.70325349       6.83019540       2.27130477
Si       3.98512373       9.10390102       4.63681873
Si       4.11824256       4.14485867       9.28022293
Si       8.94563965       4.46192832       4.50877363
Si       2.75730595       2.86431863       2.97997492
Si       7.93107128       8.23888087       8.57155279
20
Lattice="8.561713369110162 1.3878043584442417 1.443841525269337 1.0609571777370317 8.608327748124196 1.4438415252693337 1.0609571777369875 1.1021335560060075 8.65871160126857" Properties=species:S:1:pos:R:3 unique_starting_index=58 config_type=initial n_minim_iter=7 stress="0.0007869173515435452 -0.00015834125384931212 -0.0001647348029177021 -0.00015834125384931212 0.0007748563081509747 -0.00017112825847612212 -0.0001647348029177021 -0.00017112825847612212 0.0007613047551817774" pbc="T T T"
Si       5.83231125       9.46971413       8.26442158
Si       9.24088746       8.01311145       6.51061041
Si       7.65561643       6.12810839       9.78927111
Si       3.02801129       1.55910986       5.03578424
Si       4.85131647       3.21497188       1.75712354
Si       1.44274025       4.90978127       3.28197307
Si       5.70632565       8.53929275       1.50638201
Si       8.31593491       1.26674489       6.08205918
Si       0.94933925       5.74661886       8.59220499
Si       9.73428847       2.74014559       5.46433547
Si       4.97730207       9.93090931       2.95418966
Si       2.36769281       5.07108558      10.04001264
Si       6.56578352       1.99047073       7.03652042
Si       1.73914805       6.76843542       6.90997486
Si       6.69734339       6.82561602       2.26730325
Si       3.98628433       9.10278439       4.63641979
Si       4.11784420       4.14600493       9.27909140
Si       8.94447967       4.46148549       4.50987423
Si       2.75342508       2.86028715       2.97578065
Si       7.93020264       8.23797852       8.57061400
20
Lattice="8.555186123672843 1.3813725120390559 1.4371499719048748 1.0547784049639293 8.601560448204928 1.4371499719048715 1.054778404963885 1.0957149813914338 8.651684857033587" Properties=species:S:1:pos:R:3 unique_starting_index=58 config_type=initial n_minim_iter=8 stress="-0.0011107314342805703 0.00018558062732042545 0.00019307405570570456 0.00018558062732042545 -0.001096595535058402 0.0002005673744856633 0.00019307405570570456 0.0002005673744856633 -0.0010807127146822142" pbc="T T T"
Si       5.81602329       9.45588430       8.24928193
Si       9.22768754       7.99864842       6.49322209
Si       7.64166624       6.11127732       9.77485313
Si       3.02307669       1.55323294       5.03276271
Si       4.84871964       3.20993480       1.75113167
Si       1.43705539       4.90696605       3.27670287
Si       5.69962240       8.53171798       1.49632174
Si       8.30862074       1.25696892       6.07467995
Si       0.93984873       5.73954930       8.58423813
Si       9.72489420       2.72820880       5.45130485
Si       4.96512052       9.92104429       2.94174667
Si       2.35612219       5.05845454      10.02966306
Si       6.55750987       1.98283921       7.02558515
Si       1.73183693       6.75784731       6.90099082
Si       6.68704120       6.81694400       2.25924506
Si       3.97770173       9.09087546       4.62499398
Si       4.10723306       4.13701198       9.26673974
Si       8.93290599       4.45042587       4.50039965
Si       2.74885650       2.85554125       2.97084312
Si       7.91588643       8.22310669       8.55514168
20
Lattice="8.555440980197842 1.3808745015942903 1.4366318526499562 1.0542710559802133 8.601796166808684 1.4366318526499529 1.0542710559801691 1.0951879418922985 8.651899892353526" Properties=species:S:1:pos:R:3 unique_starting_index=58 config_type=initial n_minim_iter=9 stress="-0.00017367222246116517 1.797944719957121e-05 1.87054265322136e-05 1.797944719957121e-05 -0.00017230270634789342 1.9431395234427577e-05 1.87054265322136e-05 1.9431395234427577e-05 -0.00017076394484145222" pbc="T T T"
Si       5.81512725       9.45561980       8.24877285
Si       9.22745734       7.99817557       6.49229720
Si       7.64120249       6.11036296       9.77456870
Si       3.02278060       1.55269164       5.03286640
Si       4.84885584       3.20964368       1.75059490
Si       1.43652575       4.90708218       3.27639075
Si       5.70016699       8.53223542       1.49517848
Si       8.30911708       1.25580424       6.07519816
Si       0.93866600       5.74004924       8.58470993
Si       9.72531709       2.72696782       5.44996543
Si       4.96381610       9.92141780       2.94045367
Si       2.35486601       5.05710132      10.02998512
Si       6.55738395       1.98227901       7.02449707
Si       1.73128193       6.75676590       6.90080074
Si       6.68598169       6.81677764       2.25864225
Si       3.97800139       9.09068188       4.62436286
Si       4.10659914       4.13728772       9.26652135
Si       8.93270116       4.44978369       4.50066653
Si       2.74906251       2.85575526       2.97106577
Si       7.91492058       8.22210335       8.55409783
20
Lattice="8.55575933497726 1.3805743268446833 1.4363195573572645 1.0539589827488325 8.602102866896942 1.4363195573572611 1.0539589827487883 1.0948637569134387 8.65219399674563" Properties=species:S:1:pos:R:3 unique_starting_index=58 config_type=initial n_minim_iter=10 stress="0.0002910753070827336 -5.1796222069087454e-05 -5.3887664942932334e-05 -5.1796222069087454e-05 0.00028712992669394603 -5.597907723755028e-05 -5.3887664942932334e-05 -5.597907723755028e-05 0.00028269697423421" pbc="T T T"
Si       5.81464271       9.45594931       8.24839723
Si       9.22780505       7.99781890       6.49181106
Si       7.64083285       6.10986400       9.77488309
Si       3.02284445       1.55204009       5.03302205
Si       4.84903459       3.20971439       1.74995002
Si       1.43587224       4.90723616       3.27643588
Si       5.70060478       8.53303897       1.49422128
Si       8.30990338       1.25482927       6.07562798
Si       0.93766181       5.74044909       8.58547498
Si       9.72601548       2.72590153       5.44920513
Si       4.96307252       9.92208838       2.93935813
Si       2.35377391       5.05631561      10.03061183
Si       6.55765752       1.98167367       7.02356431
Si       1.73066662       6.75582396       6.90101398
Si       6.68506386       6.81701645       2.25800049
Si       3.97861344       9.09101493       4.62381913
Si       4.10601977       4.13787814       9.26683262
Si       8.93301067       4.44921569       4.50126880
Si       2.74957947       2.85629229       2.97162448
Si       7.91409782       8.22124866       8.55320863
20
Lattice="8.557150034779946 1.3810660716461756 1.4368311579729491 1.0543974440318151 8.603511274009353 1.4368311579729458 1.0543974440317712 1.0953192351392564 8.653621541970859" Properties=species:S:1:pos:R:3 unique_starting_index=58 config_type=initial n_minim_iter=11 stress="0.0007340968420366181 -0.00011531471148280612 -0.00011997092234066773 -0.00011531471148280612 0.000725313182043397 -0.00012462706510332408 -0.00011997092234066773 -0.00012462706510332408 0.0007154440330662085" pbc="T T T"
Si       5.81595896       9.45929130       8.24933473
Si       9.23109453       7.99869860       6.49328951
Si       7.64158672       6.11120992       9.77825956
Si       3.02435820       1.55107515       5.03399434
Si       4.84998595       3.21126547       1.74902430
Si       1.43485039       4.90814930       3.27794912
Si       5.70226338       8.53665838       1.49324669
Si       8.31345705       1.25378442       6.07738316
Si       0.93648247       5.74206398       8.58905300
Si       9.72946245       2.72474583       5.44990070
Si       4.96368154       9.92556104       2.93823086
Si       2.35248787       5.05687609      10.03403717
Si       6.55998907       1.98138815       7.02219160
Si       1.73029257       6.75436058       6.90327685
Si       6.68361577       6.81929455       2.25766088
Si       3.98232915       9.09380004       4.62400701
Si       4.10595584       4.14159411       9.26962298
Si       8.93565235       4.44925232       4.50509226
Si       2.75141488       2.85819893       2.97360811
Si       7.91453004       8.22169765       8.55367574
20
Lattice="8.559157429405039 1.3851751320131716 1.441106135171001 1.0584271300725612 8.605673596994817 1.4411061351709977 1.0584271300725172 1.0995053156888486 8.655951305986736" Properties=species:S:1:pos:R:3 unique_starting_index=58 config_type=initial n_minim_iter=12 stress="-0.0004852532094039545 6.293873991899203e-05 6.548009860266658e-05 6.293873991899203e-05 -0.0004804590899933061 6.802142012924929e-05 6.548009860266658e-05 6.802142012924929e-05 -0.00047507251106282747" pbc="T T T"
Si       5.82420108       9.46879782       8.25437735
Si       9.24028048       8.00339710       6.50208023
Si       7.64593222       6.11962351       9.78795813
Si       3.03007947       1.55217450       5.03608335
Si       4.85181061       3.21706038       1.75020544
Si       1.43573121       4.91000883       3.28378622
Si       5.70456863       8.54312640       1.49655798
Si       8.31983265       1.25699225       6.08006192
Si       0.93944533       5.74448375       8.59564696
Si       9.73656635       2.72871022       5.45810166
Si       4.97144305       9.93296570       2.94251661
Si       2.35617903       5.06478381      10.04160559
Si       6.56599900       1.98572313       7.02333869
Si       1.73439568       6.75526265       6.90948796
Si       6.68436102       6.82533722       2.26203784
Si       3.99165066       9.10012303       4.62867562
Si       4.11001268       4.15107689       9.27612573
Si       8.94161600       4.45353923       4.51482489
Si       2.75395578       2.86083844       2.97635421
Si       7.92205590       8.22951560       8.56180937
20
Lattice="8.561142859176867 1.3919401525085993 1.448144315625735 1.0651116880210387 8.607915051593029 1.4481443156257316 1.065111688020995 1.1064493053018873 8.658469462273247" Properties=species:S:1:pos:R:3 unique_starting_index=58 config_type=initial n_minim_iter=13 stress="-0.00047397910457025986 7.089503329986627e-05 7.375765350622137e-05 7.089503329986627e-05 -0.00046857894472986415 7.662023185186944e-05 7.375765350622137e-05 7.662023185186944e-05 -0.00046251143061626094" pbc="T T T"
Si       5.83749609       9.48330258       8.26113709
Si       9.25426875       8.00960409       6.51617424
Si       7.65160234       6.13314411       9.80271898
Si       3.03976389       1.55391061       5.03858385
Si       4.85387014       3.22683026       1.75203912
Si       1.43709748       4.91212189       3.29362100
Si       5.70856469       8.55225062       1.50185709
Si       8.32879817       1.26211549       6.08460858
Si       0.94422365       5.74866469       8.60497369
Si       9.74714258       2.73550668       5.47014951
Si       4.98280154       9.94398219       2.94978441
Si       2.36256806       5.07639387      10.05290100
Si       6.57438266       1.99510095       7.02377941
Si       1.74344764       6.75535745       6.91823304
Si       6.68411126       6.83371744       2.27142576
Si       4.00725497       9.10702449       4.63652505
Si       4.11698357       4.16695800       9.28333234
Si       8.94791859       4.46075521       4.53097868
Si       2.75810823       2.86515205       2.98084199
Si       7.93325800       8.24115246       8.57391610
20
Lattice="8.56049917281023 1.3917760362819407 1.4479735726664855 1.0649721881126246 8.607265585620093 1.4479735726664822 1.0649721881125807 1.1063043913191652 8.657813749572636" Properties=species:S:1:pos:R:3 unique_starting_index=58 config_type=initial n_minim_iter=14 stress="-0.0001695053369552318 2.814827741679217e-05 2.9284856729112596e-05 2.814827741679217e-05 -0.00016736124882820068 3.0421419408622346e-05 2.9284856729112596e-05 3.0421419408622346e-05 -0.00016495219335329513" pbc="T T T"
Si       5.83713474       9.48267981       8.26014237
Si       9.25366019       8.00862537       6.51575039
Si       7.65064749       6.13274613       9.80205734
Si       3.03979605       1.55359748       5.03801050
Si       4.85330880       3.22684107       1.75170355
Si       1.43678336       4.91154818       3.29361853
Si       5.70837591       8.55148043       1.50159567
Si       8.32803573       1.26186289       6.08438045
Si       0.94400026       5.74846726       8.60419376
Si       9.74644329       2.73531970       5.46938044
Si       4.98206764       9.94325444       2.94956714
Si       2.36240782       5.07565333      10.05216522
Si       6.57374232       1.99563871       7.02314849
Si       1.74400939       6.75475153       6.91758915
Si       6.68348440       6.83305276       2.27193814
Si       4.00695915       9.10552771       4.63617174
Si       4.11670122       4.16665121       9.28182276
Si       8.94643416       4.46041612       4.53061241
Si       2.75795697       2.86499492       2.98067852
Si       7.93248657       8.24035109       8.57308238
20
Lattice="8.56025567649454 1.391803131276973 1.4480017617110843 1.0650085304630432 8.607023296891349 1.448001761711081 1.0650085304629993 1.1063421441377903 8.657572765807625" Properties=species:S:1:pos:R:3 unique_starting_index=58 config_type=initial n_minim_iter=15 stress="6.133155232291623e-05 -7.417153426883474e-06 -7.716645403453975e-06 -7.417153426883474e-06 6.076657887640266e-05 -8.016132994409514e-06 -7.716645403453975e-06 -8.016132994409514e-06 6.0131785669147976e-05" pbc="T T T"
Si       5.83738556       9.48280781       8.25975239
Si       9.25377854       8.00822558       6.51599027
Si       7.65024349       6.13298174       9.80216981
Si       3.04002924       1.55331698       5.03758602
Si       4.85288718       3.22705837       1.75140648
Si       1.43649419       4.91111523       3.29382390
Si       5.70855310       8.55138649       1.50152714
Si       8.32793512       1.26178755       6.08455109
Si       0.94392879       5.74864186       8.60409719
Si       9.74634394       2.73524566       5.46902520
Si       4.98171964       9.94314176       2.94947910
Si       2.36233761       5.07530240      10.05204915
Si       6.57371410       1.99628286       7.02288709
Si       1.74465414       6.75449048       6.91757512
Si       6.68319900       6.83301365       2.27257144
Si       4.00707373       9.10471592       4.63600116
Si       4.11655864       4.16676045       9.28100485
Si       8.94561859       4.46024237       4.53068920
Si       2.75788492       2.86492007       2.98060065
Si       7.93238781       8.24024850       8.57297564
20
Lattice="8.560410029785515 1.3919208908391538 1.4481242762030153 1.0651203303332772 8.607182020052655 1.448124276203012 1.0651203303332337 1.1064582830273966 8.6577362118262" Properties=species:S:1:pos:R:3 unique_starting_index=58 config_type=initial n_minim_iter=16 stress="0.0003017138233524223 -4.3723708048896696e-05 -4.548919661908174e-05 -4.3723708048896696e-05 0.000298383336050114 -4.7254659360290256e-05 -4.548919661908174e-05 -4.7254659360290256e-05 0.00029464126544751824" pbc="T T T"
Si       5.83868409       9.48436459       8.25932690
Si       9.25528478       8.00774675       6.51732921
Si       7.64970768       6.13426081       9.80370854
Si       3.04094301       1.55222268       5.03665555
Si       4.85196660       3.22793774       1.75027622
Si       1.43536591       4.91015102       3.29465787
Si       5.70935836       8.55232589       1.50121919
Si       8.32884318       1.26144659       6.08537868
Si       0.94355353       5.74943342       8.60502366
Si       9.74709716       2.73474385       5.46860608
Si       4.98129232       9.94387925       2.94896110
Si       2.36180750       5.07485459      10.05276557
Si       6.57486009       1.99751159       7.02290164
Si       1.74583837       6.75445786       6.91876669
Si       6.68312133       6.83415751       2.27379979
Si       4.00752935       9.10392641       4.63521807
Si       4.11579060       4.16718714       9.28018498
Si       8.94481231       4.45944307       4.53108313
Si       2.75761651       2.86464125       2.98031056
Si       7.93303417       8.24091994       8.57367420
20
Lattice="8.561907683575292 1.3919986573955565 1.4482051828399836 1.0651410428295882 8.608681548479797 1.4482051828399802 1.0651410428295456 1.106479799387993 8.659237767164491" Properties=species:S:1:pos:R:3 unique_starting_index=58 config_type=initial n_minim_iter=17 stress="-3.148610543366854e-06 3.2362713350809464e-06 3.3669464279480805e-06 3.2362713350809464e-06 -2.9020998290795582e-06 3.497619618582958e-06 3.3669464279480805e-06 3.497619618582958e-06 -2.6251252981616183e-06" pbc="T T T"
Si       5.84085995       9.48765732       8.25976335
Si       9.25849231       8.00809188       6.51964428
Si       7.64993049       6.13644673       9.80701595
Si       3.04225927       1.55060315       5.03600385
Si       4.85132981       3.22923070       1.74863218
Si       1.43369746       4.90945023       3.29588478
Si       5.71067695       8.55522854       1.50053755
Si       8.33169355       1.26070898       6.08677870
Si       0.94270797       5.75072075       8.60789707
Si       9.74948179       2.73352243       5.46886944
Si       4.98151282       9.94627402       2.94775106
Si       2.36049621       5.07502530      10.05511059
Si       6.57795813       1.99773742       7.02400094
Si       1.74594613       6.75543348       6.92191215
Si       6.68409215       6.83729477       2.27406893
Si       4.00809762       9.10538041       4.63373599
Si       4.11423163       4.16769645       9.28157920
Si       8.94624363       4.45793749       4.53164720
Si       2.75715677       2.86416366       2.97981369
Si       7.93503300       8.24299634       8.57583444
