22
Lattice="5.4253609004571945 -0.6416801267785636 -1.4194202063598382 -2.311039876845961 11.21623509860143 -2.2714072053930936 -4.535411224471908 -5.530524002888091 11.191062705949092" Properties=species:S:1:pos:R:3 unique_starting_index=18 config_type=initial n_minim_iter=1 energy=-3584.7911554650814 free_energy=-3584.7911554650814 pbc="T T T"
Si       0.31735415       9.91284157      -1.04179675
Si      -1.33647745      -1.19865943       5.91199696
Si      -3.84127432      -3.89923994       9.90549463
Si       0.14472620      -3.02951300       8.93730868
Si      -5.32198370      -0.42049135       9.19927129
Si       4.19145712       2.17903072      -0.18289181
Si       2.35084776       0.80439046       0.15667046
Si      -1.92039421       1.65645853       8.16233046
Si      -1.76391595      -3.80977714       9.48565010
Si      -2.40957496       1.07230674       5.92405079
Si       1.23180445      -0.72061148       3.03165524
Si      -2.96793565       3.51006370       4.87806992
Si      -2.99752450      -2.71174714       6.49453753
Si      -0.73088829       7.30303969      -1.26493548
Si       1.16406790       1.24075235       3.86393089
Si       0.97063747       8.23491115      -2.15712036
Si      -0.95668545      -1.38251489       3.45536241
Si       2.52186468      -5.15859559       6.41668626
Si       0.31044344       2.80758106       2.70885594
Si      -3.14694830       2.82281406       6.87756678
Si      -1.22343538       4.10423818       3.39628059
Si      -1.62462900      -2.26200419       8.04430556
22
Lattice="5.427199225621424 -0.6399210448014512 -1.425984244762331 -2.303385588637298 11.22147907115009 -2.2659325160885206 -4.5514474120912585 -5.5331599915663165 11.195440639465248" Properties=species:S:1:pos:R:3 unique_starting_index=18 config_type=initial n_minim_iter=2 stress="-0.001164607011324089 0.0032695158232308296 -0.006019921779669137 0.0032695158232308296 0.004630282400956291 -0.00018657784119229805 -0.006019921779669137 -0.00018657784119229805 -0.001203835277204958" pbc="T T T"
Si       0.32271203       9.91939753      -1.03955385
Si      -1.34400068      -1.19864830       5.91385139
Si      -3.85446357      -3.90124933       9.90928522
Si       0.13244709      -3.02864051       8.93698739
Si      -5.33313407      -0.42058298       9.20569325
Si       4.19338799       2.18229139      -0.18712871
Si       2.35121847       0.80594935       0.15429672
Si      -1.92982441       1.65902664       8.16494910
Si      -1.77733609      -3.81087874       9.48677815
Si      -2.41642342       1.07382731       5.92769772
Si       1.22795864      -0.71936638       3.03039861
Si      -2.97188401       3.51224449       4.88256478
Si      -3.00705156      -2.71344976       6.49732762
Si      -0.72593986       7.30698808      -1.26242753
Si       1.16023860       1.24286908       3.86292220
Si       0.97704456       8.23927284      -2.15630591
Si      -0.96103609      -1.38301744       3.45652648
Si       2.51254553      -5.15866645       6.41314270
Si       0.30810362       2.81004714       2.70924800
Si      -3.15355605       2.82388143       6.88240023
Si      -1.22550183       4.10694427       3.39875699
Si      -1.63505819      -2.26170455       8.04573482
22
Lattice="5.4308725892762695 -0.6426956511353371 -1.4263083984804126 -2.310222151560019 11.213213517294317 -2.2609398703700023 -4.550184898729046 -5.520550346592496 11.19804807342932" Properties=species:S:1:pos:R:3 unique_starting_index=18 config_type=initial n_minim_iter=3 stress="-3.2612473603709465e-05 0.0007638507270176411 -0.0005905533405582096 0.0007638507270176411 0.002044315662051805 0.002877297441223816 -0.0005905533405582096 0.002877297441223816 0.003561742355220396" pbc="T T T"
Si       0.31703182       9.91290710      -1.03422805
Si      -1.34321138      -1.19414726       5.91754078
Si      -3.85196274      -3.89192982       9.91176202
Si       0.13419459      -3.02029533       8.94144954
Si      -5.33458202      -0.41184475       9.20980406
Si       4.19614933       2.17888468      -0.18503115
Si       2.35248073       0.80440677       0.15544874
Si      -1.93168587       1.66435141       8.16962379
Si      -1.77641982      -3.80266493       9.48916434
Si      -2.41777799       1.07898699       5.93257085
Si       1.22934555      -0.71637906       3.03277168
Si      -2.97388842       3.51376581       4.88712566
Si      -3.00845490      -2.70742221       6.49773197
Si      -0.72923891       7.30183995      -1.25950300
Si       1.16129116       1.24386337       3.86545192
Si       0.97332744       8.23034557      -2.15222729
Si      -0.95910489      -1.37986668       3.45842487
Si       2.51838658      -5.15153602       6.41529139
Si       0.30595061       2.80940405       2.71245383
Si      -3.15487046       2.82470360       6.88746468
Si      -1.22714365       4.10617036       3.40251589
Si      -1.63284580      -2.25300529       8.04843277
22
Lattice="5.43184549844565 -0.642606589180058 -1.4258365519227816 -2.3117041411489874 11.210166910318417 -2.2635917513805524 -4.551199138801753 -5.522008861430926 11.194566313488897" Properties=species:S:1:pos:R:3 unique_starting_index=18 config_type=initial n_minim_iter=4 stress="-0.0031571927853163246 0.0006669615612650003 -0.0018781655686161969 0.0006669615612650003 -0.0028132761842437673 -0.00039202290926153375 -0.0018781655686161969 -0.00039202290926153375 -0.002528507238616627" pbc="T T T"
Si       0.31565424       9.90963927      -1.03755491
Si      -1.34374411      -1.19587296       5.91541364
Si      -3.85261696      -3.89389457       9.90819973
Si       0.13341711      -3.02227262       8.93817602
Si      -5.33591186      -0.41408178       9.20548310
Si       4.19668483       2.17761621      -0.18622861
Si       2.35272067       0.80377012       0.15489343
Si      -1.93316403       1.66108843       8.16481134
Si      -1.77707186      -3.80465314       9.48567573
Si      -2.41882852       1.07700326       5.92955414
Si       1.22922334      -0.71695588       3.03159406
Si      -2.97490261       3.51097314       4.88363619
Si      -3.00939405      -2.70869871       6.49551154
Si      -0.72993931       7.29984113      -1.26162508
Si       1.16100939       1.24186884       3.86262497
Si       0.97240726       8.22782466      -2.15382835
Si      -0.95893773      -1.38058791       3.45747580
Si       2.51894733      -5.15206490       6.41372415
Si       0.30480327       2.80731331       2.70993643
Si      -3.15629367       2.82099754       6.88282250
Si      -1.22797763       4.10339317       3.39914043
Si      -1.63371317      -2.25451270       8.04453556
22
Lattice="5.435732729177759 -0.6432782228448347 -1.425603496302494 -2.3148637250410906 11.214660327933577 -2.265690572539845 -4.553328184406965 -5.525220357880848 11.195846749253379" Properties=species:S:1:pos:R:3 unique_starting_index=18 config_type=initial n_minim_iter=5 stress="0.006726853594833254 0.0002372625519800423 -0.0008283232510552927 0.0002372625519800423 0.0028542863551293957 -0.0032207545024692283 -0.0008283232510552927 -0.0032207545024692283 0.0020773362592243455" pbc="T T T"
Si       0.31422560       9.91313571      -1.03965288
Si      -1.34424827      -1.19738227       5.91643585
Si      -3.85420832      -3.89673306       9.90907127
Si       0.13382942      -3.02470633       8.93955333
Si      -5.33897367      -0.41468892       9.20561819
Si       4.19956468       2.17781742      -0.18667728
Si       2.35432128       0.80370369       0.15493763
Si      -1.93465033       1.66048618       8.16485839
Si      -1.77717287      -3.80736023       9.48678617
Si      -2.42041469       1.07675533       5.92975458
Si       1.23016571      -0.71744660       3.03221936
Si      -2.97685020       3.51165868       4.88322074
Si      -3.01121115      -2.71072441       6.49616196
Si      -0.73124554       7.30283200      -1.26322475
Si       1.16187979       1.24153710       3.86238425
Si       0.97163536       8.23076710      -2.15481594
Si      -0.95874587      -1.38163891       3.45820133
Si       2.52169675      -5.15507484       6.41498367
Si       0.30404014       2.80768788       2.70955705
Si      -3.15888842       2.82083809       6.88221624
Si      -1.22908385       4.10416338       3.39828370
Si      -1.63461345      -2.25606086       8.04436786
22
Lattice="5.433804843800718 -0.6462376348604281 -1.4256921577462303 -2.31653525325974 11.218671261375274 -2.253788336332765 -4.5498819862660245 -5.515591618963673 11.187674160123885" Properties=species:S:1:pos:R:3 unique_starting_index=18 config_type=initial n_minim_iter=6 stress="0.001737444820042951 -0.0030817875883535875 -0.0006027928187450469 -0.0030817875883535875 0.004487627465118895 0.0019363494678549895 -0.0006027928187450469 0.0019363494678549895 -0.0032703966645306628" pbc="T T T"
Si       0.31102414       9.91691932      -1.03042742
Si      -1.34289348      -1.19248557       5.91595834
Si      -3.85045337      -3.88850458       9.90257657
Si       0.13361733      -3.01676771       8.93597446
Si      -5.33554425      -0.40305933       9.20261105
Si       4.19800951       2.17773113      -0.18495891
Si       2.35341573       0.80379200       0.15610688
Si      -1.93439801       1.67007400       8.16513861
Si      -1.77393828      -3.79866025       9.48135403
Si      -2.41935841       1.08388007       5.92983393
Si       1.22961951      -0.71377954       3.03191314
Si      -2.97488236       3.51889561       4.88595902
Si      -3.00986541      -2.70599958       6.49211132
Si      -0.73206001       7.30614690      -1.25633228
Si       1.16196229       1.24641195       3.86227481
Si       0.96838575       8.23247387      -2.14423247
Si      -0.95619247      -1.37889327       3.45718652
Si       2.52221309      -5.15130142       6.40819085
Si       0.30132205       2.81148609       2.71197623
Si      -3.15904910       2.82957173       6.88279476
Si      -1.22880579       4.10946229       3.40094685
Si      -1.63383023      -2.24770386       8.03781730
22
Lattice="5.43063064306988 -0.6421476583397322 -1.4268926343421864 -2.3069636912849374 11.210691667571712 -2.2530042760573235 -4.551139248917478 -5.513114152243171 11.197006964961076" Properties=species:S:1:pos:R:3 unique_starting_index=18 config_type=initial n_minim_iter=7 stress="-0.0017456039099383966 0.003229114600583566 0.0013216694967112979 0.003229114600583566 0.0008039167944997029 -0.0012952286669689827 0.0013216694967112979 -0.0012952286669689827 0.0023735050935390417" pbc="T T T"
Si       0.31786525       9.91142071      -1.02977107
Si      -1.34248801      -1.19198179       5.92327768
Si      -3.85030556      -3.88707930       9.91095498
Si       0.13105315      -3.01241995       8.94495122
Si      -5.33204653      -0.40336070       9.21099785
Si       4.19798631       2.17971170      -0.18482637
Si       2.35299086       0.80513084       0.15716853
Si      -1.93200734       1.66998065       8.17413618
Si      -1.77432753      -3.79461047       9.48947679
Si      -2.41694802       1.08315365       5.93611769
Si       1.22836948      -0.71057900       3.03570375
Si      -2.96911180       3.51623882       4.89156722
Si      -3.01076416      -2.70618977       6.49768436
Si      -0.72595142       7.30206132      -1.25617738
Si       1.16319114       1.24812700       3.86606219
Si       0.97345076       8.22872191      -2.14255674
Si      -0.95517585      -1.37815729       3.46116594
Si       2.51757437      -5.14458710       6.41314335
Si       0.30189442       2.81068263       2.71565114
Si      -3.15595961       2.82734890       6.88983936
Si      -1.22444658       4.10703729       3.40478071
Si      -1.63437963      -2.24486588       8.04328170
22
Lattice="5.434281410773375 -0.6440543384532464 -1.431575161663858 -2.3097976119294765 11.19929339806741 -2.24516592306799 -4.558989826768236 -5.499164348977478 11.201848181036212" Properties=species:S:1:pos:R:3 unique_starting_index=18 config_type=initial n_minim_iter=8 stress="0.0007144767541890213 0.000393951127413871 -0.001466784579096224 0.000393951127413871 -0.0027181284636510943 -9.658254866189866e-05 -0.001466784579096224 -9.658254866189866e-05 0.0025082302872755933" pbc="T T T"
Si       0.31537080       9.90054479      -1.02518990
Si      -1.34637167      -1.18748683       5.92852986
Si      -3.85734875      -3.87576280       9.91570603
Si       0.12580765      -3.00369100       8.94769603
Si      -5.34033330      -0.39465810       9.21847526
Si       4.19954318       2.17615289      -0.18691214
Si       2.35391527       0.80379821       0.15655585
Si      -1.93910852       1.67405944       8.18142426
Si      -1.77978356      -3.78317395       9.49158688
Si      -2.42191642       1.08631866       5.94149504
Si       1.22679372      -0.70722316       3.03683651
Si      -2.97320366       3.51700741       4.89792059
Si      -3.01648822      -2.69975922       6.50113705
Si      -0.72785701       7.29481592      -1.25194634
Si       1.16132815       1.24972169       3.86744734
Si       0.97285346       8.21967630      -2.13756893
Si      -0.95614074      -1.37445256       3.46365261
Si       2.51652452      -5.13552208       6.41164994
Si       0.29832005       2.80881398       2.71856856
Si      -3.16445941       2.83015856       6.89680297
Si      -1.22869966       4.10585924       3.40949001
Si      -1.63926311      -2.23642081       8.04505176
22
Lattice="5.432592288505734 -0.6435099860663717 -1.430590240657467 -2.3052217737443574 11.202030722357609 -2.2343889661698544 -4.557941335660938 -5.493352123082217 11.19218665161514" Properties=species:S:1:pos:R:3 unique_starting_index=18 config_type=initial n_minim_iter=9 stress="-0.002583969716775069 0.0002898410634832064 1.536665907572032e-05 0.0002898410634832064 0.00016230848056802912 -0.0020282949984274713 1.536665907572032e-05 -0.0020282949984274713 0.0005040112815822927" pbc="T T T"
Si       0.31809457       9.90298090      -1.01839158
Si      -1.34463409      -1.18579524       5.93168544
Si      -3.85505835      -3.86924806       9.90780760
Si       0.12691341      -2.99732045       8.94231422
Si      -5.33756721      -0.38681607       9.21343693
Si       4.19931121       2.17831562      -0.18584729
Si       2.35464760       0.80612969       0.15700611
Si      -1.93749286       1.68088551       8.18310861
Si      -1.78057168      -3.77524747       9.48278561
Si      -2.41873016       1.09045128       5.94079439
Si       1.22597796      -0.70220596       3.03760047
Si      -2.96536949       3.52298436       4.89776165
Si      -3.01799045      -2.69988297       6.49611217
Si      -0.72657948       7.29744781      -1.24573204
Si       1.16347235       1.25502626       3.86716984
Si       0.97685922       8.22302934      -2.12680010
Si      -0.95261373      -1.37259074       3.46388324
Si       2.51683728      -5.12912604       6.40697781
Si       0.29727217       2.81093395       2.71968780
Si      -3.16616298       2.83672387       6.89544914
Si      -1.22730026       4.11132542       3.41087983
Si      -1.63613803      -2.22908389       8.03496756
22
Lattice="5.438585878544364 -0.6392851655510644 -1.4288407805059469 -2.296276236665045 11.184867458342518 -2.2132643730242343 -4.566231893171343 -5.472999413949782 11.17311643768682" Properties=species:S:1:pos:R:3 unique_starting_index=18 config_type=initial n_minim_iter=10 stress="0.005951978836226822 0.006348385766831457 0.0018184299449991144 0.006348385766831457 -0.004522394587789102 0.002567364323058284 0.0018184299449991144 0.002567364323058284 -0.00649651213926179" pbc="T T T"
Si       0.32824707       9.89116193      -1.00170666
Si      -1.34489238      -1.17867894       5.93298225
Si      -3.86151007      -3.85038575       9.89281469
Si       0.12842937      -2.97893628       8.93028241
Si      -5.34130702      -0.37350086       9.20404628
Si       4.20628406       2.18006275      -0.18268640
Si       2.36000358       0.80965379       0.15773549
Si      -1.93744356       1.69173704       8.18323624
Si      -1.78436563      -3.75378870       9.46811581
Si      -2.41767857       1.09756914       5.93963112
Si       1.22700657      -0.69274854       3.03697136
Si      -2.95903073       3.52497890       4.89837132
Si      -3.02486740      -2.69294547       6.48683145
Si      -0.72196154       7.28765875      -1.23263789
Si       1.17057628       1.26372426       3.86742395
Si       0.98962524       8.21219514      -2.10888890
Si      -0.95111331      -1.36621945       3.46191766
Si       2.51773548      -5.10797655       6.39521468
Si       0.29892076       2.81219301       2.72186211
Si      -3.16928575       2.84094135       6.89386493
Si      -1.22467572       4.11335067       3.41446688
Si      -1.63652304      -2.21338508       8.01838112
22
Lattice="5.437140614360723 -0.6419023204189529 -1.4317741987845969 -2.29658748860404 11.17448429779043 -2.1961266802661594 -4.563902907693811 -5.44889530627451 11.179434103534488" Properties=species:S:1:pos:R:3 unique_starting_index=18 config_type=initial n_minim_iter=11 stress="-0.0019275896506896104 0.00022087848425059644 0.0001583851921800039 0.00022087848425059644 -0.0032990665411178166 -0.0006322753992224362 0.0001583851921800039 -0.0006322753992224362 0.00029275671008194087" pbc="T T T"
Si       0.32502614       9.88197697      -0.98862328
Si      -1.34270133      -1.17343594       5.95515490
Si      -3.86028793      -3.82642495       9.90021893
Si       0.13208077      -2.96237448       8.93616924
Si      -5.33858199      -0.35178384       9.21560723
Si       4.20257227       2.17672301      -0.18355705
Si       2.36160839       0.81145508       0.15750460
Si      -1.94096479       1.70549135       8.20444345
Si      -1.78403502      -3.72854544       9.47340659
Si      -2.41484632       1.10840831       5.95389696
Si       1.22526718      -0.68355444       3.04444582
Si      -2.95015818       3.53101894       4.90866069
Si      -3.02701662      -2.68674423       6.49400852
Si      -0.72677087       7.28150977      -1.22274214
Si       1.17650578       1.27332336       3.87617031
Si       0.99426488       8.20199869      -2.09508089
Si      -0.94493850      -1.35914931       3.47060425
Si       2.51977375      -5.09015190       6.39715749
Si       0.29297625       2.81351835       2.72815377
Si      -3.17697241       2.84747866       6.90755234
Si      -1.22778555       4.11949796       3.42467167
Si      -1.63250108      -2.19548031       8.01211124
22
Lattice="5.4396715321395215 -0.6465840988179906 -1.4212371496903984 -2.2982322666953356 11.183728872607952 -2.1486147924116197 -4.548807953793372 -5.4127759941583165 11.127570544159827" Properties=species:S:1:pos:R:3 unique_starting_index=18 config_type=initial n_minim_iter=12 stress="-0.0038138513391418978 -0.0027016901605543915 0.0023672913654496012 -0.0027016901605543915 0.0011304838628572538 -0.002486365520105886 0.0023672913654496012 -0.002486365520105886 -0.0024833075765793144" pbc="T T T"
Si       0.32513005       9.88945073      -0.95073240
Si      -1.33064716      -1.16595671       5.97372433
Si      -3.84484794      -3.78638582       9.85795060
Si       0.14954571      -2.92887426       8.89881685
Si      -5.32124821      -0.30487467       9.18655996
Si       4.20069584       2.17842105      -0.17545855
Si       2.36879324       0.81748498       0.16489953
Si      -1.93550336       1.74249389       8.20296152
Si      -1.77156466      -3.67750839       9.42735996
Si      -2.39580270       1.13412319       5.95393845
Si       1.22961915      -0.66523474       3.04681491
Si      -2.92495669       3.55403453       4.90418029
Si      -3.02726588      -2.68216932       6.47035887
Si      -0.73402607       7.29052031      -1.19540053
Si       1.19601152       1.29736975       3.87963978
Si       1.00150726       8.20637374      -2.04672568
Si      -0.93041699      -1.34689785       3.47000804
Si       2.53594474      -5.06467034       6.37262015
Si       0.28529293       2.83114872       2.72757714
Si      -3.18016154       2.86827518       6.89936474
Si      -1.22705360       4.14532940       3.42830348
Si      -1.60902947      -2.16779307       7.95676334
22
Lattice="5.449447725117139 -0.6500364423535551 -1.4151207934668384 -2.2951446605478303 11.176673570467804 -2.0806385662347746 -4.5480840770511355 -5.353594366233697 11.073146124213942" Properties=species:S:1:pos:R:3 unique_starting_index=18 config_type=initial n_minim_iter=13 stress="0.0006971506642575381 -0.0038854587953050168 0.0052090498097237484 -0.0038854587953050168 0.005836029456433324 -0.0036442026514416567 0.0052090498097237484 -0.0036442026514416567 -0.0034543679667184213" pbc="T T T"
Si       0.33135907       9.88369815      -0.89711699
Si      -1.32375543      -1.15170709       6.00462299
Si      -3.84074977      -3.72540292       9.81483618
Si       0.16087755      -2.87490696       8.85589761
Si      -5.31427757      -0.24155795       9.16460509
Si       4.20323211       2.17909733      -0.16765624
Si       2.38067285       0.82559380       0.17176763
Si      -1.93657623       1.79085984       8.21098221
Si      -1.76945036      -3.60421025       9.38082068
Si      -2.37979767       1.16805557       5.96238628
Si       1.23337028      -0.63708635       3.05140901
Si      -2.89953047       3.57987138       4.90860785
Si      -3.03911242      -2.67008685       6.44736433
Si      -0.73895087       7.29042482      -1.15649961
Si       1.21818564       1.32826901       3.88533107
Si       1.01560384       8.19996167      -1.98176568
Si      -0.91761204      -1.32725544       3.47285934
Si       2.54960920      -5.01980349       6.34114084
Si       0.27542854       2.85033315       2.73199255
Si      -3.19244463       2.89443391       6.90132257
Si      -1.22895633       4.17395738       3.43994188
Si      -1.58737748      -2.12182345       7.88990417
22
Lattice="5.450418245918536 -0.6496059905859292 -1.4138823927179875 -2.294168789459775 11.17200378633869 -2.0746370052369416 -4.546735262082758 -5.346074421929557 11.069916441792408" Properties=species:S:1:pos:R:3 unique_starting_index=18 config_type=initial n_minim_iter=14 stress="0.0007467289549894503 -0.004498183295506587 0.006509594546353245 -0.004498183295506587 0.005620061253555467 -0.00036810188120910993 0.006509594546353245 -0.00036810188120910993 -0.006857387055413675" pbc="T T T"
Si       0.33245951       9.88101734      -0.89056297
Si      -1.32262545      -1.15000885       6.00888206
Si      -3.83864833      -3.71833656       9.81222706
Si       0.16297617      -2.86760061       8.85274545
Si      -5.31088530      -0.23490334       9.16517781
Si       4.20381342       2.17907274      -0.16534115
Si       2.38206870       0.82642897       0.17297260
Si      -1.93395640       1.79460789       8.21407683
Si      -1.76885431      -3.59533161       9.37762554
Si      -2.37744828       1.17132490       5.96451663
Si       1.23478181      -0.63345627       3.05277559
Si      -2.89648643       3.58075836       4.91087200
Si      -3.03924715      -2.66839549       6.44716154
Si      -0.73842647       7.28823691      -1.15303588
Si       1.22080837       1.33052686       3.88589037
Si       1.01682772       8.19559550      -1.97581780
Si      -0.91649127      -1.32480428       3.47421883
Si       2.55169942      -5.01330205       6.34064926
Si       0.27610613       2.85131610       2.73424914
Si      -3.19160858       2.89687369       6.90267493
Si      -1.22777326       4.17536863       3.44160827
Si      -1.58417055      -2.11754878       7.88407398
22
Lattice="5.453665130375229 -0.6478202421889104 -1.4176710692635295 -2.2953960584043984 11.165922940623975 -2.0914662293017994 -4.553446146343249 -5.35552421216411 11.095741191033714" Properties=species:S:1:pos:R:3 unique_starting_index=18 config_type=initial n_minim_iter=15 stress="-0.0003931645844999276 -0.0037616142010048403 0.005055831710532448 -0.0037616142010048403 0.005051988869124732 -0.0012151864168077086 0.005055831710532448 -0.0012151864168077086 0.004493295035453677" pbc="T T T"
Si       0.33175760       9.87778882      -0.89880954
Si      -1.32859473      -1.15536472       6.01398475
Si      -3.84347932      -3.72855213       9.83215662
Si       0.15551934      -2.87176428       8.86036239
Si      -5.31248497      -0.24491651       9.18879335
Si       4.20376921       2.17777781      -0.16672357
Si       2.38309506       0.82654781       0.16849604
Si      -1.93352273       1.78096140       8.22264040
Si      -1.77656358      -3.60385245       9.39836543
Si      -2.38233719       1.16418626       5.97331693
Si       1.23699054      -0.63673006       3.05538942
Si      -2.90545747       3.56964531       4.92003565
Si      -3.04291077      -2.67544770       6.46515804
Si      -0.73570113       7.28566901      -1.16462349
Si       1.21596895       1.31996729       3.88305775
Si       1.01039439       8.18836322      -1.99026477
Si      -0.92399221      -1.32765060       3.48235578
Si       2.54832970      -5.01993336       6.35656281
Si       0.27950310       2.84681451       2.73789472
Si      -3.18956219       2.88952653       6.91212907
Si      -1.22892916       4.16797702       3.44043227
Si      -1.58457249      -2.13169065       7.89863253
22
Lattice="5.455389787410359 -0.6480250115808819 -1.4112461941032635 -2.2985530996169348 11.198152649479525 -2.1033959249538015 -4.551003336537198 -5.386148472974909 11.07298011616315" Properties=species:S:1:pos:R:3 unique_starting_index=18 config_type=initial n_minim_iter=16 stress="0.004276109741404666 -0.002930361830818558 0.003010095441945315 -0.002930361830818558 0.004909545555407701 0.0048522976688028276 0.003010095441945315 0.0048522976688028276 -0.00042152622863783255" pbc="T T T"
Si       0.32926033       9.90655605      -0.90474143
Si      -1.33161255      -1.16847757       5.99533076
Si      -3.84540572      -3.75451459       9.80888679
Si       0.15723493      -2.89172483       8.83578998
Si      -5.30806047      -0.25925107       9.17494807
Si       4.20543772       2.18441176      -0.16517118
Si       2.38368088       0.82935261       0.16508890
Si      -1.92668952       1.77202689       8.19302611
Si      -1.76928480      -3.62387531       9.37527216
Si      -2.38804520       1.16111549       5.95308303
Si       1.24264603      -0.64881726       3.04248841
Si      -2.91041863       3.57049116       4.90533332
Si      -3.04747738      -2.69831422       6.45157640
Si      -0.73486803       7.30815498      -1.17284535
Si       1.21738007       1.31400497       3.86683133
Si       0.99918931       8.21180171      -1.99534603
Si      -0.92958015      -1.33603020       3.47788205
Si       2.54983444      -5.04552338       6.35163965
Si       0.28276745       2.85150750       2.72960317
Si      -3.17872633       2.88896557       6.89507665
Si      -1.22607448       4.17304404       3.42122556
Si      -1.57254742      -2.14753698       7.87345583
22
Lattice="5.465054749055605 -0.6490499090697038 -1.4129208232690602 -2.3071150002865575 11.199764256696247 -2.115695101172604 -4.562688571629863 -5.39800102919851 11.073766470733803" Properties=species:S:1:pos:R:3 unique_starting_index=18 config_type=initial n_minim_iter=17 stress="0.007098681947578061 -0.0007416805889256273 0.002053397012205025 -0.0007416805889256273 0.0036362310867940326 0.003132255108193706 0.002053397012205025 0.003132255108193706 0.004683490843973163" pbc="T T T"
Si       0.32466448       9.90433954      -0.91395617
Si      -1.34157016      -1.17636722       5.98757632
Si      -3.84975512      -3.76771158       9.80432164
Si       0.15462835      -2.90377843       8.83213608
Si      -5.31716657      -0.26741854       9.18242475
Si       4.21446234       2.18363532      -0.16764332
Si       2.38610835       0.82881339       0.15945394
Si      -1.93389927       1.76277188       8.17880421
Si      -1.77832397      -3.62938445       9.37350361
Si      -2.40086836       1.15347393       5.94444066
Si       1.24642132      -0.65876798       3.03382668
Si      -2.92574510       3.56390397       4.89991594
Si      -3.06067559      -2.71119948       6.45203943
Si      -0.74194402       7.30737706      -1.17926656
Si       1.21453627       1.30794876       3.85564163
Si       0.99264735       8.21673680      -2.00481907
Si      -0.93881119      -1.33979511       3.48042822
Si       2.54782029      -5.05896873       6.35143381
Si       0.28294571       2.84518834       2.72520889
Si      -3.18057786       2.88212323       6.89744358
Si      -1.23108227       4.16842750       3.41038151
Si      -1.57742263      -2.15603640       7.86211737
22
Lattice="5.470667435167571 -0.6515863902879893 -1.4158380679978444 -2.3177002144099106 11.191059501223068 -2.127705834685048 -4.571713086971397 -5.403468458471901 11.072795599708712" Properties=species:S:1:pos:R:3 unique_starting_index=18 config_type=initial n_minim_iter=18 stress="0.007542649837460933 -0.0003096552264511222 0.00030658732263977274 -0.0003096552264511222 0.0021775235547609084 0.002083192527159875 0.00030658732263977274 0.002083192527159875 0.004011077594875846" pbc="T T T"
Si       0.31457066       9.89523451      -0.92346414
Si      -1.35019462      -1.18283863       5.98013463
Si      -3.85475248      -3.77533859       9.79932789
Si       0.14908812      -2.91473205       8.82714173
Si      -5.32766403      -0.27517658       9.18507352
Si       4.21846240       2.17820655      -0.17398896
Si       2.38626414       0.82608354       0.15376494
Si      -1.94267914       1.75035814       8.16690596
Si      -1.78320882      -3.63027652       9.37031320
Si      -2.41372044       1.14491116       5.93457086
Si       1.24663144      -0.66388534       3.02739226
Si      -2.93756497       3.55730812       4.89370696
Si      -3.07216643      -2.71998878       6.45013969
Si      -0.75195074       7.29904871      -1.18587658
Si       1.20929843       1.29372626       3.84556241
Si       0.98788100       8.20844306      -2.01778062
Si      -0.94561311      -1.34216625       3.48175198
Si       2.54373396      -5.06856198       6.34647003