20
Lattice="7.848875400724206 -0.5444756721935061 -0.5664606687740577 -0.8427937835477478 7.822467478495353 -0.5664606687740543 -0.8427937835477507 -0.8755031109007704 7.793931578105397" Properties=species:S:1:pos:R:3 unique_starting_index=58 config_type=initial n_minim_iter=1 energy=-3246.692489143464 free_energy=-3246.692489143464 pbc="T T T"
Si       2.69903345       5.80795060       4.79801028
Si       5.70102308       4.67880209       3.10565954
Si       4.45844286       2.87079270       5.99323042
Si       1.70484498       0.52752994       3.55535071
Si       3.46425439       1.83801919       0.66777982
Si       0.46226475       3.48437158       1.86299997
Si       3.99671920       6.69748779      -0.91236170
Si       6.54052850      -1.07974243       4.20929379
Si      -1.32787968       3.94904371       6.65614756
Si       7.49116752      -0.09220855       2.45171645
Si       2.16656863       7.57911364       0.00486268
Si      -0.37724067       2.15377195       7.57337195
Si       4.77623581      -0.14320736       4.98378960
Si      -0.32487763       4.79127439       4.96077010
Si       4.80016746       4.96251582       0.05408205
Si       1.36312038       6.54478461       1.70024015
Si       1.38705202       1.41693534       6.60692820
Si       6.48816547       1.63516330       1.67722064
Si       1.36493311       1.41790698       1.47515964
Si       4.79835472       4.98458172       5.18585061
20
Lattice="7.839337358319645 -0.5297198119332883 -0.5511089921093033 -0.8276856145434942 7.813497924756774 -0.5511089921092999 -0.8276856145434969 -0.8598085848833164 7.785576416600324" Properties=species:S:1:pos:R:3 unique_starting_index=58 config_type=initial n_minim_iter=2 stress="-0.011244340002006435 0.0005461772514018378 0.0005682309548422107 0.0005461772514018378 -0.011202737025002924 0.0005902843357244119 0.0005682309548422107 0.0005902843357244119 -0.011155992732148087" pbc="T T T"
Si       2.71509043       5.82499287       4.81568577
Si       5.71744190       4.69580327       3.12303972
Si       4.47480685       2.88748456       6.01095865
Si       1.70915928       0.53195681       3.56031872
Si       3.46887570       1.84251262       0.67239979
Si       0.46652422       3.48915847       1.86767267
Si       3.99411996       6.69356460      -0.89332281
Si       6.53670706      -1.06060977       4.20730252
Si      -1.30861545       3.94717627       6.65298069
Si       7.49258158      -0.06763720       2.47605591
Si       2.18984617       7.58141526       0.03037775
Si      -0.35274094       2.17799945       7.57668125
Si       4.78198530      -0.12702282       4.98697669
Si      -0.30892364       4.79420731       4.96725248
Si       4.80249107       4.96835797       0.07038001
Si       1.38147506       6.55021138       1.71610596
Si       1.40198083       1.43587190       6.61297843
Si       6.49288977       1.65028287       1.69638175
Si       1.37243850       1.42570365       1.48327113
Si       4.81152763       4.99826588       5.20008731
20
Lattice="7.892743243615407 -0.49060578517426867 -0.5104156078354026 -0.7906324462992006 7.868353721137738 -0.5104156078353991 -0.7906324462992034 -0.821317361170143 7.841999245466977" Properties=species:S:1:pos:R:3 unique_starting_index=58 config_type=initial n_minim_iter=3 stress="0.0005462721367126391 0.005108839366669968 0.005315125564095787 0.005108839366669968 0.0009354185651960646 0.005521408744384705 0.005315125564095787 0.005521408744384705 0.0013726558958760751" pbc="T T T"
Si       2.79086121       5.94010088       4.91932709
Si       5.82958284       4.79619452       3.20717411
Si       4.57085751       2.96696842       6.13007698
Si       1.74062084       0.54853747       3.61399392
Si       3.52061714       1.87596760       0.69109105
Si       0.48189551       3.54152285       1.90184094
Si       4.02387879       6.75032799      -0.84557606
Si       6.59229677      -1.01416240       4.24106417
Si      -1.26431736       3.97864380       6.71158868
Si       7.57579571       0.00750671       2.58010387
Si       2.28759956       7.66841272       0.10957936
Si      -0.28081843       2.27856292       7.66674410
Si       4.84909640      -0.08083164       5.04779445
Si      -0.26532003       4.85225466       5.03842521
Si       4.85883690       5.03766369       0.11894120
Si       1.45264145       6.63689124       1.78274283
Si       1.46238195       1.50939030       6.70222683
Si       6.57679838       1.71392348       1.77337358
Si       1.41065635       1.46540477       1.52457530
Si       4.90082200       5.09102582       5.29659273
20
Lattice="7.936745138342767 -0.5487454725278058 -0.5709028763444255 -0.85040463776851 7.910111057165328 -0.5709028763444219 -0.8504046377685128 -0.8834093468946344 7.8813307858969335" Properties=species:S:1:pos:R:3 unique_starting_index=58 config_type=initial n_minim_iter=4 stress="-0.0030327745161764894 -0.00360248417842159 -0.0037479463292368295 -0.00360248417842159 -0.0033071800613679154 -0.003893406352527864 -0.0037479463292368295 -0.003893406352527864 -0.003615496775383867" pbc="T T T"
Si       2.70906835       5.92487808       4.86903686
Si       5.81748394       4.74920027       3.12293594
Si       4.52435777       2.88334530       6.11287643
Si       1.71157809       0.48394178       3.61658910
Si       3.52686751       1.84714184       0.62664861
Si       0.41845192       3.54536146       1.87048818
Si       3.96094795       6.73772841      -0.94389726
Si       6.58210134      -1.10989967       4.17385905
Si      -1.35959726       3.91203853       6.69510901
Si       7.59553312      -0.05713601       2.56566599
Si       2.27498792       7.68768411       0.04441603
Si      -0.34616548       2.26345335       7.68342230
Si       4.83341211      -0.17639335       5.01538227
Si      -0.36021560       4.82063182       5.01784816
Si       4.83084851       5.02090208       0.02217197
Si       1.40508735       6.65444723       1.72167688
Si       1.40252375       1.45952199       6.71735307
Si       6.59615146       1.65475896       1.72414277
Si       1.40309424       1.45754916       1.51640250
Si       4.83284162       5.02040708       5.22312253
20
Lattice="7.977844863684455 -0.5854034472001323 -0.6090410373482632 -0.8886002285921598 7.949785877541374 -0.6090410373482597 -0.8886002285921627 -0.9230873312860602 7.919465655127865" Properties=species:S:1:pos:R:3 unique_starting_index=58 config_type=initial n_minim_iter=5 stress="-0.012185825280006526 0.005467387493312918 0.005688151250967377 0.005467387493312918 -0.011769367810225273 0.005908911779739698 0.005688151250967377 0.005908911779739698 -0.011301444326675947" pbc="T T T"
Si       2.65021701       5.96072909       4.84126475
Si       5.85554875       4.72372261       3.06443786
Si       4.49744990       2.82342649       6.14760060
Si       1.70319451       0.41021304       3.63694572
Si       3.55042739       1.83964948       0.55378298
Si       0.34509566       3.56614461       1.86011884
Si       3.88098287       6.71253412      -0.99877660
Si       6.55996861      -1.16153668       4.09088515
Si      -1.41035453       3.83008236       6.66776321
Si       7.61099893      -0.06971525       2.61049844
Si       2.31966153       7.70486257       0.03362038
Si      -0.35932421       2.30765820       7.70016019
Si       4.84294019      -0.26523406       4.98493513
Si      -0.44935457       4.78996559       5.02277883
Si       4.80359695       5.02939917      -0.06780379
Si       1.39704745       6.70802758       1.67860476
Si       1.35770421       1.44976929       6.76918738
Si       6.64999897       1.61195775       1.71644846
Si       1.41562750       1.47056885       1.52994791
Si       4.78501690       4.97072625       5.17143568
20
Lattice="8.019697187586283 -0.6296719397282041 -0.6550970159047468 -0.9344294660940147 7.989923110090343 -0.655097015904743 -0.9344294660940177 -0.970695228717604 7.957749316128779" Properties=species:S:1:pos:R:3 unique_starting_index=58 config_type=initial n_minim_iter=6 stress="0.006741790803510766 0.007548355466182266 0.007853145152089978 0.007548355466182266 0.007316758102298023 0.008157930380154934 0.007853145152089978 0.008157930380154934 0.007962780135524693" pbc="T T T"
Si       2.59082255       5.96456902       4.80208732
Si       5.86164633       4.68691824       3.00372892
Si       4.46044013       2.76257943       6.14988752
Si       1.69039813       0.35378142       3.64382637
Si       3.56001570       1.82720900       0.49766777
Si       0.28919192       3.57361074       1.84546797
Si       3.83467076       6.69668169      -1.06644926
Si       6.54589022      -1.22730153       4.04136260
Si      -1.47553594       3.78125420       6.64924582
Si       7.62637420      -0.10488334       2.60619269
Si       2.31616749       7.72011590      -0.00169053
Si      -0.39505197       2.30280091       7.71400455
Si       4.84420619      -0.34804733       4.96040739
Si      -0.53215602       4.76553171       5.01992327
Si       4.78233203       5.02985620      -0.15152263
Si       1.36850623       6.73995979       1.62763202
Si       1.30663206       1.41926226       6.79907792
Si       6.68299428       1.56210522       1.68714789
Si       1.41560080       1.47054112       1.52991905
Si       4.73523745       4.91901483       5.11763624
20
Lattice="8.050436199175055 -0.711369924144749 -0.740093825227095 -1.0172381284644219 8.017530589649422 -0.7400938252270911 -1.0172381284644254 -1.0567177444623652 7.981972389994961" Properties=species:S:1:pos:R:3 unique_starting_index=58 config_type=initial n_minim_iter=7 stress="0.015001164204226059 0.005054688286738491 0.005258787956155762 0.005054688286738491 0.01538618587993709 0.0054628846404172066 0.005258787956155762 0.0054628846404172066 0.01581878871891866" pbc="T T T"
Si       2.47561171       5.91955905       4.68994839
Si       5.82105366       4.57948975       2.88254341
Si       4.35463434       2.64325538       6.10047616
Si       1.66132560       0.25832017       3.61924134
Si       3.54034823       1.79736634       0.40130859
Si       0.19490628       3.55033808       1.81183636
Si       3.74430744       6.63944202      -1.19234711
Si       6.49213107      -1.34944210       3.94397773
Si      -1.59554206       3.68625486       6.58706997
Si       7.61150200      -0.18662772       2.55780701
Si       2.27165251       7.70353754      -0.08528523
Si      -0.47617113       2.25516418       7.69413185
Si       4.80756377      -0.50101315       4.89627799
Si      -0.68361649       4.70313150       4.97498185
Si       4.72574131       4.99103192      -0.30690589
Si       1.29021863       6.75357234       1.52680290
Si       1.20839617       1.33717653       6.80869063
Si       6.69957643       1.46442965       1.60550675
Si       1.40090556       1.45527554       1.51403708
Si       4.61505438       4.79416739       4.98774767
20
Lattice="8.05549902645624 -0.7332407922099228 -0.7628478015451858 -1.0392858328998271 8.021757387389131 -0.7628478015451818 -1.0392858328998313 -1.0796211334030892 7.985295646296625" Properties=species:S:1:pos:R:3 unique_starting_index=58 config_type=initial n_minim_iter=8 stress="0.0025033961321047358 6.077811348183468e-05 6.323222977285539e-05 6.077811348183468e-05 0.0025080256739831953 6.568631016934584e-05 6.323222977285539e-05 6.568631016934584e-05 0.002513227336871852" pbc="T T T"
Si       2.45564343       5.89633413       4.65467316
Si       5.79860552       4.54506656       2.86032639
Si       4.32109042       2.62199508       6.07587380
Si       1.65583694       0.24151467       3.59927366
Si       3.52128393       1.79114763       0.38372624
Si       0.17832184       3.53062834       1.80492689
Si       3.73327446       6.62403818      -1.23050601
Si       6.47715828      -1.38711175       3.93086589
Si      -1.63261458       3.67380195       6.57016849
Si       7.60954194      -0.21077961       2.52873416
Si       2.24365290       7.70050968      -0.11056844
Si      -0.50023092       2.22622795       7.69010606
Si       4.79405974      -0.54706182       4.88516574
Si      -0.72911786       4.69263117       4.95930738
Si       4.71698027       4.97718444      -0.35335815
Si       1.25994709       6.75889291       1.50029267
Si       1.18286761       1.30591077       6.81295819
Si       6.70604522       1.43912895       1.57443431
Si       1.39539662       1.44955280       1.50808326
Si       4.58153074       4.75934267       4.95151679
20
Lattice="8.05203295837894 -0.7277593983715654 -0.7571450783969118 -1.0336764985098938 8.018502441302084 -0.7571450783969077 -1.0336764985098987 -1.073794097413578 7.982268869642759" Properties=species:S:1:pos:R:3 unique_starting_index=58 config_type=initial n_minim_iter=9 stress="0.007415832850726554 -0.0019465405120564598 -0.0020251384893143934 -0.0019465405120564598 0.007267562522809998 -0.002103735317002723 -0.0020251384893143934 -0.002103735317002723 0.0071009688767031945" pbc="T T T"
Si       2.48412622       5.86653276       4.66174193
Si       5.76774174       4.55104860       2.88791263
Si       4.32824274       2.65077092       6.04637543
Si       1.65643722       0.28018190       3.58006608
Si       3.50055374       1.79095882       0.42160328
Si       0.21693822       3.51135385       1.80623678
Si       3.77362841       6.63838676      -1.22851836
Si       6.48996067      -1.38674265       3.97178332
Si      -1.63273298       3.71418065       6.58458447
Si       7.61741294      -0.21553329       2.49619540
Si       2.21105155       7.70714475      -0.11660575
Si      -0.50528071       2.19341064       7.69649707
Si       4.79950610      -0.53222165       4.90266495
Si      -0.71449572       4.70987900       4.96600221
Si       4.73365913       4.98326996      -0.33783725
Si       1.25102083       6.75167842       1.50197651
Si       1.18517386       1.29706588       6.80581597
Si       6.69917568       1.44117524       1.56531377
Si       1.39140448       1.44540572       1.50376873
Si       4.59327548       4.77154324       4.96420999
20
Lattice="8.104555803988209 -0.7311824256650081 -0.760706321679029 -1.0390959608332613 8.070856962165829 -0.7607063216790253 -1.0390959608332666 -1.079423892288838 8.034441503448706" Properties=species:S:1:pos:R:3 unique_starting_index=58 config_type=initial n_minim_iter=10 stress="0.013470186201214535 -0.003319214981379342 -0.0034532392064114195 -0.003319214981379342 0.01321735761087336 -0.0035872614712115433 -0.0034532392064114195 -0.0035872614712115433 0.012933284342136423" pbc="T T T"
Si       2.52362085       5.89888289       4.69803910
Si       5.79856534       4.58570721       2.93001402
Si       4.36170316       2.69156855       6.08013628
Si       1.66466072       0.29136330       3.58301484
Si       3.50274303       1.79927166       0.43289259
Si       0.22779854       3.51395834       1.81498977
Si       3.78152979       6.68068752      -1.24619719
Si       6.53193007      -1.40478371       3.98058197
Si      -1.65235825       3.72134032       6.62615267
Si       7.67872213      -0.21348398       2.53244689
Si       2.24483409       7.76978501      -0.11312380
Si      -0.50556619       2.22720680       7.75922605
Si       4.84044164      -0.55838452       4.94227587
Si      -0.74219756       4.74787992       5.00744829
Si       4.77268678       5.02572157      -0.36241249
Si       1.25367710       6.82121565       1.50558058
Si       1.18592225       1.29975257       6.87544135
Si       6.76856144       1.44456676       1.57075300
Si       1.41068912       1.46543880       1.52461071
Si       4.61567477       4.79481185       4.98841815
20
Lattice="8.101216465929754 -0.7249336238500693 -0.7542052039323599 -1.032724597521737 8.067757860305038 -0.7542052039323561 -1.0327245975217425 -1.072805252582649 8.03160203646716" Properties=species:S:1:pos:R:3 unique_starting_index=58 config_type=initial n_minim_iter=11 stress="-0.013411566327730879 0.0005282248793925721 0.000549553696750534 0.0005282248793925721 -0.013371330804452628 0.0005708822021524739 0.000549553696750534 0.0005708822021524739 -0.013326122955919706" pbc="T T T"
Si       2.56332120       5.87639798       4.70077621
Si       5.77458581       4.58690648       2.96890778
Si       4.36381417       2.73137808       6.05777727
Si       1.67195309       0.32504815       3.55428386
Si       3.47244607       1.80541545       0.46541437
Si       0.26118146       3.48491083       1.82241542
Si       3.77865753       6.69211380      -1.24079887
Si       6.54345740      -1.39929328       3.97836215
Si      -1.64731049       3.71865823       6.63778358
Si       7.68307776      -0.21544357       2.54482949
Si       2.25710974       7.77461133      -0.11459195
Si      -0.50769013       2.23941045       7.76399051
Si       4.85881753      -0.57306076       4.96219662
Si      -0.75756252       4.76708068       5.02602652
Si       4.79245840       5.04486380      -0.37628910
Si       1.24330887       6.84560708       1.49716511
Si       1.17694974       1.28903510       6.89948074
Si       6.79332979       1.43653107       1.56099501
Si       1.41333039       1.46818259       1.52746529
Si       4.62243688       4.80183640       4.99572634
20
Lattice="8.116664085456163 -0.7459695612693268 -0.7760905365327982 -1.054333200703762 8.082393702633427 -0.7760905365327939 -1.0543332007037685 -1.0952524984895253 8.04536055437024" Properties=species:S:1:pos:R:3 unique_starting_index=58 config_type=initial n_minim_iter=12 stress="-0.006966097526108054 -0.002514476558579471 -0.0026160068222179636 -0.002514476558579471 -0.007157628224576708 -0.0027175356008770865 -0.0026160068222179636 -0.0027175356008770865 -0.007372828378584489" pbc="T T T"
Si       2.56531626       5.83180154       4.67282599
Si       5.72994575       4.55896642       2.96809809
Si       4.33759326       2.73237594       6.01210993
Si       1.67040442       0.34187188       3.52508140
Si       3.44268143       1.80273204       0.48106956
Si       0.27805193       3.45576713       1.82035350
Si       3.75198819       6.70424649      -1.27362049
Si       6.55659627      -1.43105309       3.95089583
Si      -1.67954733       3.69074179       6.64860822
Si       7.68754502      -0.25621155       2.54228366
Si       2.25600950       7.77903992      -0.15542874
Si      -0.54859859       2.23675139       7.76679997
Si       4.87340679      -0.62331640       4.97048794
Si      -0.80833699       4.77486439       5.03901070
Si       4.80216884       5.05983346      -0.42617735
Si       1.20582884       6.86720119       1.45416879
Si       1.13459090       1.24991464       6.91935684
Si       6.81633467       1.39501767       1.52269154
Si       1.40612244       1.46069490       1.51967526
Si       4.60187524       4.78047675       4.97350423
20
Lattice="8.155840270758723 -0.7945569249388542 -0.8266397748620866 -1.1043763319556805 8.119692367726413 -0.8266397748620826 -1.104376331955687 -1.147237833390595 8.08063010027905" Properties=species:S:1:pos:R:3 unique_starting_index=58 config_type=initial n_minim_iter=13 stress="-0.01319323900308436 0.0059919258331045016 0.00623386955194853 0.0059919258331045016 -0.012736826818158848 0.006475809732133371 0.00623386955194853 0.006475809732133371 -0.012224010996610381" pbc="T T T"
Si       2.55582680       5.74328882       4.60981888
Si       5.64185830       4.49651708       2.95276416
Si       4.27854160       2.72063059       5.92117371
Si       1.66854600       0.36899817       3.47458640
Si       3.39126080       1.79891390       0.50617684
Si       0.30522930       3.40534429       1.81753168
Si       3.69764087       6.71467656      -1.35409432
Si       6.56908714      -1.50933099       3.89384320
Si      -1.75824391       3.63335787       6.65584629
Si       7.70533151      -0.32898830       2.53350736
Si       2.24944673       7.79658936      -0.22849573
Si      -0.62199953       2.22738835       7.78144487
Si       4.91978162      -0.74460082       4.97721403
Si      -0.93129847       4.77993441       5.08096953
Si       4.81191486       5.10661310      -0.54710071
Si       1.13517275       6.92660661       1.34638102
Si       1.02730598       1.17512131       6.97445126
Si       6.87838608       1.29001824       1.45013652
Si       1.38731554       1.44115809       1.49934959
Si       4.55977206       4.73673953       4.92800097
20
Lattice="8.198276086344045 -0.8403316950204619 -0.8742628518839571 -1.1517329622919883 8.160355343313618 -0.8742628518839533 -1.1517329622919934 -1.1964324026797568 8.119377092434457" Properties=species:S:1:pos:R:3 unique_starting_index=58 config_type=initial n_minim_iter=14 stress="0.00725683096165055 0.00019511617186022612 0.00020299462922988376 0.00019511617186022612 0.007271693194746241 0.0002108729713748766 0.00020299462922988376 0.0002108729713748766 0.0072883921097360365" pbc="T T T"
Si       2.52524777       5.68497256       4.56185711
Si       5.58474807       4.44988962       2.91811599
Si       4.23412142       2.68833761       5.86100557
Si       1.66068874       0.37353521       3.45273540
Si       3.36956239       1.79022454       0.50984582
Si       0.31006209       3.38381421       1.80899428
Si       3.67256912       6.72614392      -1.43672697
Si       6.58150037      -1.59092500       3.86597605
Si      -1.84025122       3.60514464       6.66403541
Si       7.73506138      -0.39259359       2.50487534
Si       2.22224104       7.82530464      -0.29318401
Si      -0.68669021       2.19769915       7.80757836
Si       4.94252999      -0.83751303       4.97796927
Si      -1.02500913       4.77992960       5.10018022
Si       4.81547649       5.12951361      -0.63991029
Si       1.07933367       6.96594319       1.27067118
Si       0.95228017       1.11638435       7.01076168
Si       6.91981929       1.21651604       1.39288212
Si       1.37282384       1.42610395       1.48368759
Si       4.52198632       4.69748730       4.88716380
20
Lattice="8.220278493132865 -0.8608251692818394 -0.895583817591821 -1.1730489574629788 8.181561869235434 -0.8955838175918166 -1.1730489574629832 -1.218575684284883 8.139723477866385" Properties=species:S:1:pos:R:3 unique_starting_index=58 config_type=initial n_minim_iter=15 stress="0.004443311974233076 1.120215734837234e-05 1.1654481309918467e-05 1.120215734837234e-05 0.004444165256011436 1.2106798655315954e-05 1.1654481309918467e-05 1.2106798655315954e-05 0.0044451239867924364" pbc="T T T"
Si       2.50239292       5.66461721       4.53949055
Si       5.56527727       4.42847478       2.89363660
Si       4.21346312       2.66467941       5.83978124
Si       1.66071746       0.37237668       3.45491925
Si       3.37178766       1.79033803       0.50877460
Si       0.30890330       3.38599695       1.80906530
Si       3.65635200       6.73136869      -1.48404606
Si       6.58733854      -1.63757376       3.84810994
Si      -1.88708838       3.58713194       6.66738397
Si       7.76126895      -0.41808241       2.50044591
Si       2.21782858       7.85136316      -0.31882812
Si      -0.71315797       2.19227545       7.83260190
Si       4.95889130      -0.89029830       4.97477427
Si      -1.07837884       4.77616972       5.11438314
Si       4.81375049       5.14582104      -0.69278064
Si       1.06043009       6.99798710       1.23417271
Si       0.91528928       1.09605824       7.04133649
Si       6.95255942       1.18074526       1.37378158
Si       1.36735176       1.42041949       1.47777360
Si       4.50682882       4.68174153       4.87078224
20
Lattice="8.251152793053937 -0.8886186545536374 -0.9244995562715639 -1.201997321601174 8.211356037001838 -0.9244995562715594 -1.20199732160118 -1.2486475516304052 8.168350303932874" Properties=species:S:1:pos:R:3 unique_starting_index=58 config_type=initial n_minim_iter=16 stress="0.001823086170728547 -0.003826709672440341 -0.003981225665272787 -0.003826709672440341 0.001531601100456885 -0.004135739398154147 -0.003981225665272787 -0.004135739398154147 0.0012040941654801248" pbc="T T T"
Si       2.47170703       5.64210711       4.50571611
Si       5.54395133       4.39597385       2.86080469
Si       4.18179736       2.63276527       5.81595253
Si       1.66536079       0.36685291       3.45854651
Si       3.37545112       1.79512425       0.50339867
Si       0.30320682       3.38944612       1.81363508
Si       3.62563948       6.73997645      -1.54860315
Si       6.59710893      -1.70087905       3.81521692
Si      -1.95071965       3.55397372       6.67343087
Si       7.79787780      -0.45350763       2.50413428
Si       2.22151867       7.88813909      -0.35407967
Si      -0.74995078       2.19456694       7.86795435
Si       4.98087712      -0.96594354       4.97036908
Si      -1.15480601       4.77101267       5.13328489
Si       4.81150584       5.16773732      -0.76854094
Si       1.03565231       7.04648399       1.18606630
Si       0.86628102       1.06939599       7.08789214
Si       7.00196416       1.13358308       1.34898212
Si       1.36213077       1.41499588       1.47213099
Si       4.48502738       4.65909396       4.84722020
20
Lattice="8.277099037915553 -0.8902349002558302 -0.9261810632114047 -1.2045998587921096 8.237221973535412 -0.9261810632114 -1.2045998587921172 -1.2513510948356115 8.19412946203559" Properties=species:S:1:pos:R:3 unique_starting_index=58 config_type=initial n_minim_iter=17 stress="0.004198484557783343 -0.0023125291742489063 -0.002405905147840589 -0.0023125291742489063 0.004022336434051096 -0.0024992797557114124 -0.002405905147840589 -0.0024992797557114124 0.0038244198407370684" pbc="T T T"
Si       2.43917588       5.65783115       4.47856422
Si       5.56090205       4.37010567       2.82784629
Si       4.15530280       2.59920148       5.83059003
Si       1.71259652       0.37244511       3.51392105
Si       3.42872344       1.84442313       0.51117731
Si       0.30699727       3.44290142       1.86320312
Si       3.58806479       6.76131187      -1.61332507
Si       6.61985891      -1.76409690       3.77594955
Si      -2.01475751       3.51393287       6.69218895
Si       7.88265683      -0.45228904       2.56581779
Si       2.27983453       7.97520058      -0.35042161
Si      -0.75195959       2.25284857       7.95509241
Si       5.02732327      -1.03025568       4.96424847
Si      -1.22083920       4.76315744       5.17697322
Si       4.80616939       5.21401390      -0.83304487
Si       1.06172993       7.13431444       1.16479412
Si       0.84057605       1.09451353       7.17481222
Si       7.08873852       1.11116433       1.37751887
Si       1.36861004       1.42172662       1.47913351
Si       4.49928927       4.67390937       4.86263384
20
Lattice="8.257236840131622 -0.870187676532083 -0.9053243668747846 -1.1838112429568415 8.21813712269786 -0.9053243668747796 -1.1838112429568495 -1.2297556604714872 8.1758847222952" Properties=species:S:1:pos:R:3 unique_starting_index=58 config_type=initial n_minim_iter=18 stress="-0.011521960981771736 -0.002893737187733679 -0.0030105813470301546 -0.002893737187733679 -0.011742380417719269 -0.0031274237973656794 -0.0030105813470301546 -0.0031274237973656794 -0.011990039393231755" pbc="T T T"
Si       2.43969504       5.67016290       4.46385036
Si       5.57320510       4.35536423       2.82825149
Si       4.14010382       2.59914215       5.84232999
Si       1.74951053       0.38326981       3.53698451
Si       3.44991931       1.88217117       0.52290601
Si       0.31640925       3.46447112       1.90138563
Si       3.58204122       6.76181461      -1.61166331
Si       6.62059053      -1.76219906       3.77001992
Si      -2.01288890       3.50797610       6.69275704
Si       7.90250325      -0.43053455       2.59521607
Si       2.30757314       7.99611782      -0.32752104
Si      -0.73097618       2.28140645       7.97689931
Si       5.03122669      -1.02091238       4.95797698
Si      -1.21165123       4.75672247       5.18097795
Si       4.79938940       5.21766193      -0.82395702
Si       1.09022495       7.14793583       1.18425805
Si       0.85838766       1.12370757       7.18919301
Si       7.10126558       1.12946596       1.40725902
Si       1.37395922       1.42728339       1.48491466
Si       4.51565514       4.69091040       4.88032134
20
Lattice="8.238872451592345 -0.8325899932154539 -0.8662085533985052 -1.1455418859196325 8.201216931529975 -0.8662085533984997 -1.1455418859196402 -1.1900010469559372 8.160525346093735" Properties=species:S:1:pos:R:3 unique_starting_index=58 config_type=initial n_minim_iter=19 stress="0.0013719660484673602 -0.0015902486798485059 -0.0016544602021897207 -0.0015902486798485059 0.001250834897198579 -0.0017186707853665325 -0.0016544602021897207 -0.0017186707853665325 0.0011147343001795536" pbc="T T T"
Si       2.45852456       5.68874675       4.43493445
Si       5.59105888       4.32569855       2.84661532
Si       4.10978015       2.61683042       5.85975527
Si       1.83800853       0.42699008       3.58149292
Si       3.48926412       1.97223179       0.56835297
Si       0.35672979       3.50538008       1.99317379
Si       3.56713706       6.78751865      -1.62019607
Si       6.64684317      -1.77017461       3.75577811
Si      -2.02185779       3.49271954       6.71810337
Si       7.96964647      -0.39603253       2.67233013
Si       2.38065162       8.06609296      -0.28999513
Si      -0.69905450       2.35575367       8.04830432
Si       5.07518099      -1.01881815       4.96646464
Si      -1.21123133       4.76346259       5.22528146
Si       4.80610866       5.26190400      -0.82152862
Si       1.14168001       7.20769183       1.20282679
Si       0.87260769       1.17574152       7.24963687
Si       7.15902001       1.14589590       1.46164361
Si       1.38592209       1.43971056       1.49784361
Si       4.56186658       4.73891534       4.93026464
20