14
Lattice="6.01138983731401 0.08808853012969817 -2.390795257948286e-15 -0.038573554233428405 2.5761674660380636 7.532014451611566e-14 1.176355668264309e-14 -4.1384978729548093e-13 14.160794247246086" Properties=species:S:1:pos:R:3 unique_starting_index=0 config_type=initial n_minim_iter=11 energy=-2278.8124663228164 free_energy=-2278.8124663228164 pbc="T T T"
Si       2.10652511       0.04258851      11.31533966
Si       0.87988303       1.28953949       4.23494253
Si       3.86629117       2.62166749       2.84545459
Si       5.09293325       1.37471650       9.92585171
Si       4.61916999       1.34632013       4.86281333
Si       4.37862798       0.07389640      11.94321045
Si       1.35364629       1.31793586       9.29798092
Si       1.59418830       2.59035960       2.21758379
Si       2.43546629       1.31550242       6.00364762
Si       0.55094186       0.01662557      13.08404474
Si       3.53735000       1.34875357       8.15714663
Si       5.42187443       2.64763042       1.07674950
Si       3.00569492       0.04404427      -0.00000000
Si      -0.01928678       1.28808373       7.08039712
8
Lattice="6.429018720080123 -1.0827677183506314e-78 2.5308812436797468e-64 4.620083009724187e-79 5.266791224722332 -7.218123895354875e-16 -7.08839130775662e-63 -8.871164959135982e-16 6.4290187200801245" Properties=species:S:1:pos:R:3 unique_starting_index=2 config_type=initial n_minim_iter=13 energy=-1297.6069968815182 free_energy=-1297.6069968815182 pbc="T T T"
Si       3.65442582       1.75294761       4.31448647
Si       2.77525360       1.75294761       2.11400128
Si       4.31508230       3.51383378       2.77465776
Si       2.11459712       3.51383378       3.65382998
Si       5.98976296       3.51383378       1.09997711
Si       0.43991646       3.51383378       5.32851064
Si       5.32910648       1.75294761       5.98916712
Si       1.10057294       1.75294761       0.43932062
16
Lattice="5.4585067014300765 0.22789379500326729 0.46851424124951846 2.295490438791152 5.178468992687873 0.6294705187753028 3.7126988770313063 1.811133057541615 13.125267322032533" Properties=species:S:1:pos:R:3 unique_starting_index=3 config_type=initial n_minim_iter=4 energy=-2610.231963750601 free_energy=-2610.231963750601 pbc="T T T"
Si       6.68528359       6.79368336       7.05171987
Si       6.71715052       3.78388284      13.24729680
Si       1.65471496       2.05569649       3.45816620
Si       5.40914908       2.20602709       2.65781235
Si       6.44422815       1.64174780       5.86233368
Si       7.61790348       2.13227951       7.56902844
Si       3.51710635       3.05697054       3.25700127
Si       7.33783770       3.37544050       2.11918181
Si       3.77472647       1.69756466       8.45271473
Si       5.77749013       1.15845641       8.01134716
Si       8.36272509       3.76848018       9.49886600
Si       2.85794904       2.40808422       5.17774581
Si       5.22644531       7.12580471      11.06043978
Si       4.98549696       2.32398803      10.07230315
Si       6.63056951       3.35295117      11.04296841
Si       4.83805123       0.66954356       1.02791908
20
Lattice="5.612883432269019 -2.4867714585043155e-16 4.8569138761062475e-14 2.32151826968472e-16 5.23989101976587 7.484275629888072e-15 -1.5574207895320885e-13 -2.5707456333314617e-14 17.998304210500205" Properties=species:S:1:pos:R:3 unique_starting_index=4 config_type=initial n_minim_iter=1 energy=-3252.5869122326103 free_energy=-3252.5869122326103 pbc="T T T"
Si       3.28015954       3.21185226      10.78729961
Si       3.28015954       2.02803876       7.21100460
Si       1.43134786       2.19606333      10.98322598
Si       1.43134786       3.04382769       7.01507823
Si       2.33272390       0.59190675      16.21015671
Si       2.33272390       4.64798427       1.78814750
Si       4.18153557       4.81600884      16.01423033
Si       4.18153557       0.42388218       1.98407388
Si       3.15539570       4.07986426       3.65485716
Si       3.15539570       1.16002676      14.34344705
Si       2.59216272       4.38502096      14.68158494
Si       2.59216272       0.85487006       3.31671927
Si       2.45748773       1.45991875       5.34429494
Si       2.45748773       3.77997227      12.65400927
Si       3.02072072       1.76507545      12.31587138
Si       3.02072072       3.47481557       5.68243283
Si       5.10631868       3.27992130      17.16688300
Si       5.10631868       1.95996972       0.83142121
Si       0.50656475       4.57991523       8.16773089
Si       0.50656475       0.65997579       9.83057332
22
Lattice="9.177835175904084 0.46251033690163446 0.047545762753162656 -3.444500147309364 8.519506620866558 -0.04754576275316915 -2.826589745022402 -4.516590625915487 7.487298208204729" Properties=species:S:1:pos:R:3 unique_starting_index=6 config_type=initial n_minim_iter=10 energy=-3597.5063075955172 free_energy=-3597.5063075955172 pbc="T T T"
Si      -2.99607878       5.21027991       5.81820091
Si       2.77878231       1.24766809       5.37823527
Si       6.13496381       2.81298090      -0.05321925
Si      -0.09931335      -0.34636801       3.83142701
Si       6.31618726      -1.01030223       2.15663246
Si      -0.28053679       3.47691511       1.62157530
Si       2.63753825       4.22750362       3.65589496
Si      -2.85483471       2.23044439       7.54054121
Si       0.01715432       5.56981905       1.81852986
Si       1.67030453       5.99313815       2.98423300
Si       1.68440963       4.26697539       1.75914885
Si       1.82857512       6.13072554       0.87788827
Si       1.90943210      -0.48033861       4.50308897
Si       2.22146306      -2.15805771       5.66879211
Si       1.96759658      -0.27885223       6.60943370
Si       0.33777267      -1.19428781       5.72817312
Si      -1.65577304       1.89516303       1.41703139
Si       3.72185469       3.10527584       5.07007857
Si      -1.57374860       0.16468778       2.41724340
Si      -3.85181423       3.29692390       6.02274482
Si       2.86788337       4.48943554       0.00001188
Si       3.17683857      -2.02861309       3.76743387
20
Lattice="8.649138230069621 -2.6614026588488242e-12 -3.1478023846899767e-14 4.324569115037114 7.490373428082131 3.3613980545893316e-14 4.324569115035616 2.496791142693104 8.371904725475883" Properties=species:S:1:pos:R:3 unique_starting_index=8 config_type=initial n_minim_iter=9 energy=-3255.992934373094 free_energy=-3255.992934373094 pbc="T T T"
Si       9.86144645       4.45886742       3.76669884
Si       8.50606078       6.31082943       3.76669884
Si       7.57990747       4.21105001       3.76669884
Si       6.94890753       4.75170027       5.76409541
Si       9.70872955       3.64208032       5.76409541
Si       9.28977761       6.58696627       5.76409541
Si       8.05801383       3.05026154       6.98505021
Si      10.62766556       5.45331391       6.98505021
Si       7.26173530       6.47717140       6.98505021
Si       5.58736046       5.80700256       0.58847787
Si       9.47558450       1.93529482       0.58847787
Si      10.88446974       7.23844948       0.58847787
Si      11.99884248       6.73325908       5.99175801
Si      14.11682004       7.02467287       5.99175801
Si      12.80545952       8.71318834       5.99175801
Si       9.24796324       1.06498590       2.50825623
Si      11.75199000       7.47647815       2.50825623
Si       4.94746146       6.43928281       2.50825623
Si      12.97370735       7.49037343       0.77682743
Si      12.97370735       7.49037343       4.25119764
14
Lattice="5.253093555262389 6.473434440677438e-42 7.7565718810925e-25 2.517080720481126e-41 6.871306537499148 -2.278139882019072e-16 -2.494425228958809e-24 5.600887738935195e-16 16.89335094833393" Properties=species:S:1:pos:R:3 unique_starting_index=9 config_type=initial n_minim_iter=1 energy=-2277.173604328712 free_energy=-2277.173604328712 pbc="T T T"
Si       2.59473880       1.64681468       7.41326728
Si       2.65835476       1.64681468       9.48008367
Si       5.22128557       5.22449186       1.03340820
Si       0.03180798       5.22449186      15.85994275
Si       2.65835476       5.22449186       9.48008367
Si       2.59473880       5.22449186       7.41326728
Si       0.03180798       1.64681468      15.85994275
Si       5.22128557       1.64681468       1.03340820
Si      -0.58852423       3.43565327       2.01748473
Si       5.84161779       3.43565327      14.87586622
Si       2.03802254       3.43565327       6.42919075
Si       3.21507101       3.43565327      10.46416020
Si      -0.00000000       3.43565327      -0.00000000
Si       2.62654678       3.43565327       8.44667547
14
Lattice="6.842027224450378 1.8576980537445815 -1.1503884248418612 -1.1139548822737249 7.001677281833123 1.1503877121810553 -4.454822752064502 -3.401156451616537 4.871368773558659" Properties=species:S:1:pos:R:3 unique_starting_index=10 config_type=initial n_minim_iter=14 energy=-2278.620979072676 free_energy=-2278.620979072676 pbc="T T T"
Si       2.40505164       5.09685752       2.67721774
Si      -0.79402293       0.88379052       2.19415028
Si       1.10343284       3.07359623       2.75056667
Si       3.62321974       7.72585989       2.12080097
Si      -1.37021789      -2.62521166       4.05464067
Si      -0.55834780       3.13131374       0.81672779
Si      -0.06859910      -0.60195037       3.98129175
Si       0.75248187       5.14861970       0.89007639
Si       4.36618292       6.75299664      -0.00000054
Si      -2.72467718      -0.72521101       4.87136856
Si       0.00951869       6.12148295       3.01087790
Si      -3.08251631       1.33915882       3.01087828
Si       2.46474157       1.19429005       1.86049002
Si       3.02491493       4.67851227      -0.00000038
6
Lattice="4.481286141630652 -2.293101789070533e-16 2.741811442881196e-14 2.279858876625021e-16 4.455406226359263 2.5853701188826408e-14 -3.5008541133163013e-14 -3.320278566688495e-14 5.721884727926125" Properties=species:S:1:pos:R:3 unique_starting_index=12 config_type=initial n_minim_iter=1 energy=-974.3171934070468 free_energy=-974.3171934070468 pbc="T T T"
Si       0.31746020       2.22770311       4.16476215
Si       0.31746020       2.22770311       1.55712258
Si       2.55598999       1.16435886       2.86094236
Si       2.55598999       3.29104736       2.86094236
Si       0.31119155       0.00000000       0.00000000
Si       2.55208274       0.00000000       0.00000000
10
Lattice="6.9092027703491175 0.00996238577904396 -8.415940530373908e-19 -3.4867110218739668 4.741797264061907 -4.0057356406820116e-16 2.256425621344905e-30 6.673830882623472e-16 7.9001601350426975" Properties=species:S:1:pos:R:3 unique_starting_index=14 config_type=initial n_minim_iter=17 energy=-1628.6483135252683 free_energy=-1628.6483135252683 pbc="T T T"
Si       0.81160852       1.81866950       1.18018871
Si       2.61088322       2.93309015       1.18018871
Si       2.57943557       0.65641379       1.04172700
Si       0.84305617       4.09534586       1.04172700
Si       2.33903406       0.43923922       5.17824203
Si       1.08345768       4.31252043       5.17824203
Si       0.90294156       3.06251785       2.89326813
Si       2.51955018       1.68924180       2.89326813
Si      -0.78479849       3.09003776       4.19659201
Si       4.20729023       1.66172189       4.19659201
24
Lattice="9.23050799203037 -1.260069323815192 -0.9547308653757506 2.2539628439815873 9.039342010882564 -0.9547308653757615 2.253962843981615 1.5267740098976874 8.960478566332757" Properties=species:S:1:pos:R:3 unique_starting_index=15 config_type=initial n_minim_iter=19 energy=-3915.9063556856054 free_energy=-3915.9063556856054 pbc="T T T"
Si       9.62862739       0.27690740       1.54170887
Si       3.82896142       3.87585285       8.09202252
Si       5.01969207       8.36325451      -0.15058202
Si       5.01969207       2.11798782       8.09202252
Si       9.62862739       1.55912443      -0.15058202
Si       3.82896142       8.83890251       1.54170887
Si       9.83239863       0.42626718       3.63909660
Si       4.04325483       5.93121214       7.65333938
Si       7.00789491       7.78847653      -0.57431085
Si       7.00789491       1.55454044       7.65333938
Si       9.83239863       3.61868689      -0.57431085
Si       4.04325483       8.97272851       3.63909660
Si      12.07350524       6.08700242       1.72071021
Si      10.13145103       4.07933101       8.15443005
Si       7.54660773       9.98657849       5.39434267
Si       7.54660773       7.89531210       8.15443005
Si      12.07350524       3.30356009       5.39434267
Si      10.13145103       8.95403972       1.72071021
Si       9.36884998       7.63128439       7.10749771
Si      10.56223614       8.43055004       3.72738097
Si      11.74716959       5.39616680       5.42344592
Si      11.74716959       6.68124336       3.72738097
Si       9.36884998       8.90725881       5.42344592
Si      10.56223614       5.86949906       7.10749771
8
Lattice="6.690062184395637 -0.04593003820395415 -0.06574560814751423 -3.3050967463539576 5.8168184686072655 0.06574560814751411 -3.305097111249039 -1.9395510397552567 5.484326661849951" Properties=species:S:1:pos:R:3 unique_starting_index=16 config_type=initial n_minim_iter=7 energy=-1305.5334306502189 free_energy=-1305.5334306502189 pbc="T T T"
Si      -1.80969200       1.06164091       3.36614628
Si       3.36711839       1.90332204       0.87801896
Si       1.88956677       1.03624680       3.32979640
Si      -3.28724346       3.66205789       3.39554201
Si       1.88956685       2.76999291       2.11860554
Si      -3.28724354       1.92831178       4.60673286
Si       3.36711831       0.16957593       2.08920981
Si      -1.80969192       2.79538702       2.15495542
22
Lattice="5.4487414014561315 -0.7737925316178722 -1.4014503362243809 -2.5864977541724796 11.648173262326884 -2.4235234828611794 -4.4858912604538 -5.818480266896213 10.932202673688874" Properties=species:S:1:pos:R:3 unique_starting_index=18 config_type=initial n_minim_iter=21 energy=-3586.0985895747276 free_energy=-3586.0985895747276 pbc="T T T"
Si       0.03995287      10.49901874      -1.37767128
Si      -1.53648758      -1.61699939       5.61132642
Si      -3.75250588      -3.98527998       9.57943205
Si       0.25714659      -3.22424989       8.57253975
Si      -5.56959128      -0.54923145       8.89979204
Si       4.22444749       2.28153885      -0.29641705
Si       2.39806664       0.92704649      -0.00762720
Si      -2.12407338       1.68758851       8.20194340
Si      -1.68819737      -3.91111401       9.08917761
Si      -2.57230435       1.00427561       5.77005724
Si       1.20937789      -0.78320274       2.88433180
Si      -2.93939431       3.48074295       4.77432502
Si      -3.33308913      -2.93221449       6.45543337
Si      -0.96444162       7.54821953      -1.21406940
Si       1.09316464       1.16894985       3.71404974
Si       0.66101062       8.60659633      -2.10127715
Si      -0.86521607      -1.74261889       3.28556847
Si       2.40583354      -5.44485171       6.23726211
Si       0.23382911       2.77303281       2.62722463
Si      -3.24427415       2.76186761       6.75089309
Si      -1.11389472       4.28140522       3.29257399
Si      -1.34779289      -3.02957131       7.18896056
14
Lattice="10.148007120913936 0.22097712243217463 3.081301953732054 -0.21490467894996845 8.453043625727847 0.3350601423193797 -1.567864738841111 0.34543463016247666 5.114857881537395" Properties=species:S:1:pos:R:3 unique_starting_index=20 config_type=initial n_minim_iter=1 energy=-2287.131102766582 free_energy=-2287.131102766582 pbc="T T T"
Si       6.08856352       5.75009355       7.35096138
Si       7.53464017       3.38689644       2.78611477
Si       2.27667418       3.26936183       1.18025860
Si       0.83059753       5.63255893       5.74510521
Si       7.26007451       5.75674107       5.56873901
Si       7.51222754       3.40647982       4.91860424
Si       1.10516319       3.26271431       2.96248097
Si       0.85301017       5.61297556       3.61261573
Si       2.54920403       4.74824774       2.67990405
Si       1.95496637       4.18554060       4.67164157
Si       5.81603367       4.27120764       5.85131593
Si       6.41027133       4.83391478       3.85957840
Si       4.65595796       4.48430349       2.71525821
Si       3.70927975       4.53515189       5.81596176
10
Lattice="7.435463334620252 -0.43954580375371655 -0.6594310493619652 -3.793464732818136 4.970681751291039 1.398332279937239 -2.3714487945838956 -1.194433769500415 5.831204292580633" Properties=species:S:1:pos:R:3 unique_starting_index=21 config_type=initial n_minim_iter=1 energy=-1626.6091679492774 free_energy=-1626.6091679492774 pbc="T T T"
Si       1.55638111       0.04973396       5.62925905
Si      -0.18306570       0.57698242       3.87056262
Si      -0.64816443       2.33663717       2.46234151
Si       0.67832672       4.40688820       2.51212644
Si       1.69138313       1.31381311       2.55873257
Si      -1.95804583       2.96449117       5.81404769
Si       2.69155429       3.40577778       3.17038177
Si      -3.68430109       1.31728110       6.05387056
Si      -0.54927175       1.07041278       6.19927377
Si      -1.16062612       4.09192886       3.86597492
6
Lattice="3.866817040340571 -1.056143729290352 1.3510549004691138e-13 -2.1992609140146824 7.161500667151312 1.531353196287866e-13 -4.076176706472034e-13 -3.209940916679167e-13 9.159995573513562" Properties=species:S:1:pos:R:3 unique_starting_index=22 config_type=initial n_minim_iter=11 energy=-980.4115796549869 free_energy=-980.4115796549869 pbc="T T T"
Si       2.46712571       1.43176325      -0.09848409
Si      -0.80249638       4.67439308      -0.09848409
Si       1.13091214       4.14632122       6.10081057
Si       0.53371719       1.95983511       6.10081057
Si      -0.13438959       3.31711410       7.58116103
Si       1.79901893       2.78904223       7.58116103
24
Lattice="8.759490448967908 -1.470581808881649e-12 -4.579692371917048e-14 4.379745224485229 7.585941253012635 2.035434060173694e-14 4.379745224484492 2.5286470843369284 20.816139068299147" Properties=species:S:1:pos:R:3 unique_starting_index=24 config_type=initial n_minim_iter=18 energy=-3925.5749667588257 free_energy=-3925.5749667588257 pbc="T T T"
Si       8.55778682       3.87261516      22.42308069
Si       9.88630350       5.47495321      22.42308069
Si       7.83437971       5.82431338      22.42308069
Si       9.97388681       5.19450011      15.43672078
Si       8.03346756       6.04038930      15.43672078
Si       8.27111566       3.93699234      15.43672078
Si      10.50457943       4.09492826       2.74659160
Si       8.72037841       7.04976851       2.74659160
Si       7.05351220       4.02718498       2.74659160
Si       8.72582105       6.90583857       4.84942254
Si       7.17543786       4.10386341       4.84942254
Si      10.37721113       4.16217977       4.84942254
Si       9.69570462       7.14191708      16.13234624
Si       6.48604609       4.82576797      16.13234624
Si      10.09671933       3.20419670      16.13234624
Si      11.80123961       4.38062016      16.13426368
Si       7.82463188       8.02986322      16.13426368
Si       6.65259855       2.76139837      16.13426368
Si       9.48622226       9.13202676      15.43695493
Si       4.86730174       3.64929608      15.43695493
Si      11.92494604       2.39055891      15.43695493
Si       4.25244391       1.33794301       3.72563772
Si       5.47457499       3.01375295       3.72563772
Si       3.41221546       3.23424454       3.72563772
10
Lattice="5.629499054725838 -1.0865178793325048 -5.765139868429923e-15 -3.0857287938587565 4.83218982657131 -1.3336437695554812e-14 -1.2718851304335241 -1.8728359736193707 7.744384797551392" Properties=species:S:1:pos:R:3 unique_starting_index=26 config_type=initial n_minim_iter=8 energy=-1628.0289282102196 free_energy=-1628.0289282102196 pbc="T T T"
Si       1.15326590       3.31924857       1.62260016
Si       1.39050411       0.42642301       1.62260016
Si       1.38823135       0.42307640       6.12178464
Si      -1.38823160      -0.42307677       6.12178464
Si       3.13538366       1.97781559       0.90346253
Si      -0.59161365       1.76785598       0.90346253
Si      -0.58954745       1.77089844       6.84092227
Si       0.58954720      -1.77089882       6.84092227
Si       4.90582249      -1.96335400       3.87219240
Si       0.72367632       0.87683575       3.87219240
10
Lattice="8.01049693185047 2.570706368493015e-46 2.6310747458528176e-31 -1.6219268594080688e-46 6.842101418802267 1.3637980633036729e-15 -2.3404601084480636e-31 -1.37882905175713e-15 7.125821356549282" Properties=species:S:1:pos:R:3 unique_starting_index=27 config_type=initial n_minim_iter=9 energy=-1631.080156444361 free_energy=-1631.080156444361 pbc="T T T"
Si       0.95083618       0.94828848       7.57810404
Si       7.06038450       0.94828848      -0.45442535
Si       4.95608465       0.94828848      -0.45442535
Si       3.05513604       0.94828848       7.57810404
Si       7.06038450       4.35211732      -0.45442535
Si       0.95083618       4.35211732       7.57810404
Si       3.05513604       4.35211732       7.57810404
Si       4.95608465       4.35211732      -0.45442535
Si       2.00298611       6.07125361       6.93000305
Si       6.00823458       6.07125361       0.19367563
18
Lattice="7.262442580608444 -2.5982254697518524e-15 4.874761800391325e-14 -3.6312212903042203 6.289459768332728 1.0967019938456777e-13 -9.782590143227938e-14 -3.106112875160797e-13 14.57414784843755" Properties=species:S:1:pos:R:3 unique_starting_index=28 config_type=initial n_minim_iter=15 energy=-2943.172341100318 free_energy=-2943.172341100318 pbc="T T T"
Si      -1.15215500       3.85469442       1.24074502
Si       0.28311950       5.35990806       1.24074502
Si       0.86903549       3.36431707       1.24074502
Si      -0.28311950       5.35990806       8.52781894
Si      -0.86903550       3.36431707       8.52781894
Si       1.15215499       3.85469442       8.52781894
Si      -2.17998120       4.85564235       7.78798987
Si       1.66387893       5.74955769       7.78798987
Si       0.51610226       1.97371950       7.78798987
Si      -1.66387894       5.74955769      15.07506380
Si      -0.51610226       1.97371950      15.07506380
Si       2.17998119       4.85564235      15.07506380
Si       5.41577276       0.50781213       1.24669372
Si       1.36311311       1.34535691       1.24669372
Si       4.11477799       4.43629073       1.24669372
Si       5.89932946       1.34535691       8.53376764
Si       3.14766458       4.43629073       8.53376764
Si       1.84666982       0.50781213       8.53376764
16
Lattice="9.945313008700705 -1.067257155227596 -0.2020974048193752 1.1050042428866318 8.456645264607296 0.4011903160956608 2.3253360344824934 2.921408907869577 7.9916380428859215" Properties=species:S:1:pos:R:3 unique_starting_index=30 config_type=initial n_minim_iter=1 energy=-2619.5617773804724 free_energy=-2619.5617773804724 pbc="T T T"
Si       8.45347756       4.94038469       4.77007918
Si       4.92217573       5.37041232       3.42065178
Si       3.26545493       4.84531757       2.25999712
Si      10.11019836       5.46547945       5.93073384
Si       8.49763787       4.42671494       6.82517126
Si       4.87801542       5.88408208       1.36555969
Si       5.87190595       4.67426107      -0.06489931
Si       7.50374734       5.63653594       8.25563026
Si       3.16503040       6.55468127       3.50060139
Si      10.21062289       3.75611575       4.69012956
Si      11.45512003       4.21220176       3.03919190
Si       1.92053326       6.09859526       5.15153905
Si       3.17692432       4.62362426       4.36815226
Si      10.19872897       5.68717276       3.82257870
Si       5.53282736       7.89089970       1.20836606
Si       7.84282593       2.41989732       6.98236490
22
Lattice="5.44449518979654 -4.2505154508661877e-35 2.0175540565497166e-22 6.849790100185269e-35 8.808958139638891 9.232350034496376e-16 -6.068055982618302e-22 -2.14026119081219e-15 16.081528788324306" Properties=species:S:1:pos:R:3 unique_starting_index=32 config_type=initial n_minim_iter=16 energy=-3581.6324411787837 free_energy=-3581.6324411787837 pbc="T T T"
Si       1.69715003       0.13539911       8.07656397
Si       3.74734516       8.67355903       8.07656397
Si       1.69715003       4.26907996       0.03579958
Si       3.74734516       4.53987818       0.03579958
Si       5.36053817       3.34892913      15.43686585
Si       0.08395702       5.46002901      15.43686585
Si       5.36053817       1.05554994       7.39610145
Si       0.08395702       7.75340820       7.39610145
Si       3.55647997       3.57313115      12.40856612
Si       1.88801522       5.23582699      12.40856612
Si       3.55647997       0.83134792       4.36780173
Si       1.88801522       7.97761022       4.36780173
Si       1.88802870       5.28165937       9.68702101
Si       3.55646648       3.52729877       9.68702101
Si       1.88802870       7.93177784       1.64625662
Si       3.55646648       0.87718030       1.64625662
Si       1.95651219       0.73357239       2.98536487
Si       3.48798300       8.07538575       2.98536487
Si       1.95651219       3.67090668      11.02612926
Si       3.48798300       5.13805146      11.02612926
Si       2.72224759       4.40447907       1.88776301
Si       2.72224759      -0.00000000       9.92852740
14
Lattice="7.640465357842666 3.572706622692351e-12 -7.642086831952387e-15 3.820232678918237 6.616837096628502 -7.662162486422914e-15 3.820232678920314 2.2056123655440287 7.738567059341886" Properties=species:S:1:pos:R:3 unique_starting_index=33 config_type=initial n_minim_iter=15 energy=-2282.7544997251166 free_energy=-2282.7544997251166 pbc="T T T"
Si       7.57168338       6.22073154       0.96926492
Si       9.24193560       3.56603892       0.96926492
Si       6.10777824       3.44690438       0.96926492
Si       8.70031251       3.80202060       5.89626183
Si       6.58295591       3.79797290       5.89626183
Si       7.63812880       5.63368135       5.89626183
Si       6.56162959       4.98085163       2.36499510
Si       8.67319499       5.06071112       2.36499510
Si       7.68657264       3.19211210       2.36499510
Si       7.85003025       1.20567560       3.08737930
Si       4.75959632       5.83251143       3.08737930
Si      10.31177066       6.19548781       3.08737930
Si       7.64046574       4.41122495       4.12017916
Si       7.64046574       4.41122495       7.86323527
8
Lattice="5.41385574769471 3.7075793153668646e-16 8.331229465358298e-17 1.3729132799319654e-16 5.278348106240985 0.43047033859009637 -8.642574641769596e-17 0.9303462025697008 8.689343817443484" Properties=species:S:1:pos:R:3 unique_starting_index=34 config_type=initial n_minim_iter=13 energy=-1299.7948559739932 free_energy=-1299.7948559739932 pbc="T T T"
Si       1.14243758       2.75399345       5.55924528
Si       1.14243758       3.45470086       3.56056888
Si       0.52564701       5.32384750       8.53893543
Si       0.52564701       0.88484681       0.58087872
Si       4.27141817       1.28069991       7.69000562
Si       4.27141817       4.92799440       1.42980854
Si       4.88820874       3.98919396       5.14078580
Si       4.88820874       2.21950035       3.97902835
18
Lattice="4.275307605760614 0.0 0.0 0.0 11.656425296738826 -2.4771078558068618e-16 0.0 2.1383947097456748e-16 10.059531355816562" Properties=species:S:1:pos:R:3 unique_starting_index=36 config_type=initial n_minim_iter=9 energy=-2928.0866220020444 free_energy=-2928.0866220020444 pbc="T T T"
Si       4.25892426      11.15495610       8.51788702
Si       0.01638334      11.15495610       1.54164433
Si       2.15403715      11.15495610       3.48812135
Si       2.12127046      11.15495610       6.57141001
Si       0.01730761       2.16878225       1.88603109
Si       4.25799999       2.16878225       8.17350027
Si       2.12034619       2.16878225       6.91579676
Si       2.15496142       2.16878225       3.14373459
Si       0.22515621       8.67499147       2.22659570
Si       4.05015140       8.67499147       7.83293566
Si       1.91249760       8.67499147       7.25636137
Si       2.36281001       8.67499147       2.80316998
Si       2.15494944       0.57951616       1.22658022
Si       2.12035816       0.57951616       8.83295114
Si      -0.01729564       0.57951616       6.25634590
Si       4.29260324       0.57951616       3.80318546
Si      -0.00000000       9.27857586       0.00000000
Si       2.13765380       9.27857586       5.02976568
8
Lattice="9.295826168177886 -0.580787938208839 1.2559735218689458 -2.281009654416554 9.03032079909703 -1.2559735218704948 -2.5572673437921027 -5.013575028180877 3.7197359530954732" Properties=species:S:1:pos:R:3 unique_starting_index=38 config_type=initial n_minim_iter=18 energy=-1308.4907218300427 free_energy=-1308.4907218300427 pbc="T T T"
Si       4.49136848       4.78356857       1.19228616
Si       1.31838720       0.28116029       2.52744954
Si      -0.03382118      -1.34761063       2.52744954
Si       3.13916010       3.15479765       1.19228616
Si       3.22466434       0.07817734       3.31801341
Si       3.94115601       6.61996745       0.40172229
Si       1.23288297       3.35778061       0.40172229
Si       0.51639129      -3.18400950       3.31801341
18
Lattice="12.947704250426249 2.620616649993532 2.0148290890739418 6.937029867213765 11.24225482739616 2.014829089073954 6.937029867213749 4.836230291793882 10.346917725923346" Properties=species:S:1:pos:R:3 unique_starting_index=39 config_type=initial n_minim_iter=16 energy=-2929.3481501445185 free_energy=-2929.3481501445185 pbc="T T T"
Si      14.94566965      11.71379195       5.26668039
Si      12.76932074      11.22177661       9.96694853
Si      16.16004094       7.65241499       8.28356849