24
Lattice="7.004271541067275 0.6116201720248015 -0.4619683465305314 -2.788492929453584 6.877937582210718 1.1431359886757346 -0.5232580113392715 1.2130241260898942 8.655933281065371" Properties=species:S:1:pos:R:3 unique_starting_index=90 config_type=initial n_minim_iter=1 energy=-3906.3706061622233 free_energy=-3906.3706061622233 pbc="T T T"
Si       5.26636416       0.87533363       5.40761250
Si       0.71996060       2.19812300       1.41063640
Si       4.67008993       6.29648761       3.26414596
Si       1.68411819       0.93600408       3.25932359
Si       3.56783296       3.62169353       8.55801426
Si      -1.78223003       5.99694691       7.93543215
Si       1.45657610       4.32500573       4.13163098
Si       0.69047798       6.40776046       7.80044653
Si      -2.20093822       7.95702711       6.57441006
Si       3.08925230       2.61250868       4.40674417
Si       1.44817392       4.45938906       1.67947535
Si       2.62883020       6.56005557       2.03639065
Si       3.05466344       7.75563059       0.02393856
Si       5.96626039       4.39252632       7.23457893
Si      -0.97934219       5.22819237       1.69123915
Si      -1.99769488       8.69380499       9.44976939
Si      -1.51144442       2.76710959       1.97665533
Si       3.10020970       6.10871881       8.69669461
Si       2.85900403       1.87783136       6.66893487
Si      -0.21766122       3.35525675       5.48556802
Si       0.07815793       5.99033009       5.54003164
Si       3.21167166       0.65473299       1.33201119
Si       4.91353145       3.93357981       3.69271531
Si       2.59664055       6.35445166       4.60778131
24
Lattice="7.013951815469387 0.6141631397070686 -0.46013677478752724 -2.7883958441631043 6.857566372420633 1.1336761133967441 -0.5193552733745982 1.197642206595801 8.664710032583267" Properties=species:S:1:pos:R:3 unique_starting_index=90 config_type=initial n_minim_iter=2 stress="0.0002267327197349348 0.00015086798434727988 -0.0001431392902039044 0.00015086798434727988 -0.0003975630426843191 0.00022572294314888322 -0.0001431392902039044 0.00022572294314888322 0.0002810510777061839" pbc="T T T"
Si       5.27657967       0.86811498       5.41542770
Si       0.72266203       2.19103171       1.40958635
Si       4.68143126       6.27827060       3.26136443
Si       1.68857353       0.92988280       3.26289872
Si       3.57838082       3.60248680       8.56540528
Si      -1.77797485       5.96988311       7.93616195
Si       1.46257569       4.30894094       4.13134625
Si       0.69834502       6.38115359       7.80169289
Si      -2.19699017       7.92684687       6.57021088
Si       3.09676006       2.60135118       4.41011340
Si       1.45306308       4.44647137       1.67606947
Si       2.63651281       6.54143376       2.03110554
Si       3.06241981       7.73779993       0.01447794
Si       5.97995827       4.37434178       7.24036492
Si      -0.97729237       5.21204989       1.68551492
Si      -1.99164562       8.65778089       9.44828266
Si      -1.51124856       2.75646284       1.97466004
Si       3.11128346       6.08253567       8.70032221
Si       2.86688471       1.86518193       6.67609721
Si      -0.21357595       3.33896613       5.48762530
Si       0.08401849       5.96721358       5.53828000
Si       3.21701991       0.65280743       1.33411408
Si       4.92379812       3.92115702       3.69397236
Si       2.60519601       6.33321953       4.60609050
24
Lattice="7.011204669830149 0.6125469075128595 -0.45594774039501085 -2.7892237068855326 6.860577950003103 1.1222265806306637 -0.5137851100066257 1.1872030366368418 8.65798487549215" Properties=species:S:1:pos:R:3 unique_starting_index=90 config_type=initial n_minim_iter=3 stress="-0.0003079388868736177 -8.413186267974712e-05 0.00036912986209123054 -8.413186267974712e-05 -2.5025507037870594e-05 -0.0006788759903178128 0.00036912986209123054 -0.0006788759903178128 -0.0007268681051856608" pbc="T T T"
Si       5.27841984       0.85941340       5.41461431
Si       0.72240013       2.18998047       1.40634512
Si       4.68064303       6.27568407       3.25369730
Si       1.69044819       0.92533537       3.26117905
Si       3.58142335       3.59211606       8.55901459
Si      -1.77428018       5.96382586       7.92324313
Si       1.46298742       4.30480810       4.12423004
Si       0.70161834       6.37401002       7.78992488
Si      -2.19461818       7.92351885       6.55407197
Si       3.09777345       2.59596919       4.40691012
Si       1.45182725       4.44613733       1.67048781
Si       2.63474518       6.53997874       2.02358205
Si       3.05787197       7.74129714       0.00638069
Si       5.98168107       4.36493197       7.23513452
Si      -0.97766464       5.21275220       1.67686599
Si      -1.98743912       8.65103548       9.42992417
Si      -1.51043388       2.75533707       1.96921978
Si       3.11327698       6.07312463       8.68928253
Si       2.86953872       1.85674112       6.67236236
Si      -0.21065188       3.33371114       5.47997229
Si       0.08633036       5.96232198       5.52678660
Si       3.21652514       0.65023382       1.33432114
Si       4.92313017       3.91710456       3.68997445
Si       2.60453126       6.32964746       4.59762953
24
Lattice="7.013791956259237 0.6106361245711983 -0.45646462370238616 -2.792845796849911 6.868113157716579 1.1226299134849502 -0.5142320000834831 1.187306674759051 8.66897913373362" Properties=species:S:1:pos:R:3 unique_starting_index=90 config_type=initial n_minim_iter=4 stress="0.0011684374970470706 -0.00037977893385860383 0.0002797379952912306 -0.00037977893385860383 0.00207840943797213 -0.0007600945787570144 0.0002797379952912306 -0.0007600945787570144 0.0018934935965914117" pbc="T T T"
Si       5.28079597       0.85695752       5.42106573
Si       0.72144580       2.19146552       1.40774425
Si       4.68210886       6.27995192       3.25512208
Si       1.69225327       0.92459270       3.26565274
Si       3.58084389       3.59360057       8.57121690
Si      -1.77717682       5.97061181       7.93357412
Si       1.46127282       4.30670554       4.12850505
Si       0.70102028       6.37885566       7.80006806
Si      -2.19798557       7.93191935       6.55980646
Si       3.09804730       2.59708176       4.41371273
Si       1.44998471       4.44990342       1.67251880
Si       2.63374088       6.54226148       2.02613971
Si       3.05427779       7.74943523       0.00542709
Si       5.98343404       4.36571659       7.24515807
Si      -0.97974023       5.21776573       1.67761366
Si      -1.99043270       8.65968890       9.43959915
Si      -1.51196418       2.75703360       1.97199043
Si       3.11077379       6.07640516       8.69863841
Si       2.86953745       1.85724778       6.68188795
Si      -0.21101825       3.33637243       5.48617888
Si       0.08605641       5.96568173       5.53125455
Si       3.21730364       0.64948644       1.33497482
Si       4.92336722       3.92000122       3.69408778
Si       2.60176233       6.33440911       4.60407446
24
Lattice="7.004121385183972 0.6064421333350303 -0.4596010515564728 -2.7922668258499797 6.860245246291856 1.132821415187983 -0.5188286074809486 1.1965988580752804 8.670414988363712" Properties=species:S:1:pos:R:3 unique_starting_index=90 config_type=initial n_minim_iter=5 stress="-0.0014165870146023378 -0.0008740727785179649 0.00020645186287084584 -0.0008740727785179649 -0.000557270292435359 6.526763801877755e-05 0.00020645186287084584 6.526763801877755e-05 0.000900964798163356" pbc="T T T"
Si       5.27180464       0.85827533       5.41716755
Si       0.71713195       2.18898919       1.40970825
Si       4.67790943       6.27402620       3.25307935
Si       1.69286913       0.92452943       3.26702123
Si       3.56632909       3.59950721       8.57921105
Si      -1.78204401       5.97763246       7.94528041
Si       1.45243637       4.30054352       4.13121904
Si       0.69777972       6.37897358       7.81073115
Si      -2.20057828       7.93190816       6.56522161
Si       3.08986250       2.59882797       4.42029881
Si       1.44217962       4.44545927       1.67901912
Si       2.62768898       6.52371338       2.03570332
Si       3.03978071       7.74284170       0.01400242
Si       5.97232708       4.36522425       7.25132319
Si      -0.98057901       5.21181009       1.68225623
Si      -1.99349975       8.66229699       9.44690725
Si      -1.51181701       2.75133122       1.97864205
Si       3.09291867       6.07612814       8.70026885
Si       2.85891045       1.86420506       6.68636613
Si      -0.21228832       3.33871100       5.48893125
Si       0.08692952       5.95789691       5.53207597
Si       3.21073614       0.64892778       1.33004858
Si       4.91169804       3.92210645       3.69548644
Si       2.58737934       6.33041252       4.61523520
24
Lattice="7.020426816033775 0.6175544264767728 -0.46275208836105597 -2.7882282961672225 6.860154050468023 1.1347071827108255 -0.5233609450690722 1.1995501993001176 8.65393552300088" Properties=species:S:1:pos:R:3 unique_starting_index=90 config_type=initial n_minim_iter=6 stress="-2.0819645610732733e-05 0.00024220093494398376 -6.826361423279659e-05 0.00024220093494398376 0.00011020552081269209 -1.403938743449161e-06 -6.826361423279659e-05 -1.403938743449161e-06 -0.00013306112805026635" pbc="T T T"
Si       5.28193384       0.86820470       5.40298658
Si       0.72058387       2.19145603       1.40721376
Si       4.69840072       6.28666947       3.24296731
Si       1.69829553       0.92792618       3.26025775
Si       3.57285286       3.61107980       8.56377706
Si      -1.78148693       5.98314547       7.93399406
Si       1.45883995       4.30481100       4.12269656
Si       0.70608829       6.38659107       7.79786245
Si      -2.19647248       7.93633136       6.55391355
Si       3.09777443       2.60734227       4.41270433
Si       1.44963391       4.45085086       1.67717452
Si       2.64310744       6.52816938       2.03343907
Si       3.05511676       7.75428181       0.01521438
Si       5.98888738       4.37976574       7.23651461
Si      -0.97517591       5.21361264       1.68025745
Si      -1.98890888       8.66866385       9.43063776
Si      -1.51185122       2.74923763       1.97784900
Si       3.10110607       6.08717996       8.68152578
Si       2.86308093       1.87296551       6.67367750
Si      -0.21008732       3.34230375       5.47908772
Si       0.09588049       5.96127317       5.52093555
Si       3.21738673       0.65469277       1.32417005
Si       4.92578011       3.93549806       3.68632824
Si       2.59773121       6.33982925       4.60843357
24
Lattice="7.0406316783203 0.6017391861105983 -0.4593776765917681 -2.8112784429141406 6.862176635304654 1.136974669207398 -0.5247561413165904 1.2058753765194166 8.64234211755155" Properties=species:S:1:pos:R:3 unique_starting_index=90 config_type=initial n_minim_iter=7 stress="0.0014464018124765443 -0.0011331087181106001 0.00013927549972706025 -0.0011331087181106001 -0.00044124579312735177 0.0003413488064784858 0.00013927549972706025 0.0003413488064784858 -0.0006639904405803257" pbc="T T T"
Si       5.30050042       0.86140104       5.39979771
Si       0.71739406       2.18936446       1.40849371
Si       4.70345602       6.27716354       3.23936877
Si       1.70878877       0.92388397       3.25689060
Si       3.57534044       3.60951203       8.56111196
Si      -1.79653602       5.98967595       7.92670855
Si       1.45621681       4.29844915       4.11754309
Si       0.69677425       6.38741628       7.78768739
Si      -2.21855829       7.94071092       6.54410300
Si       3.10504492       2.60506661       4.41123356
Si       1.43872231       4.44301201       1.68015003
Si       2.64118100       6.51282465       2.03695197
Si       3.03941090       7.74587630       0.02348781
Si       6.00283744       4.37327656       7.23327587
Si      -0.98675220       5.21271403       1.67910354
Si      -2.01068438       8.67514935       9.41905285
Si      -1.52055944       2.74743927       1.97990577
Si       3.09569847       6.08220600       8.67040526
Si       2.86984557       1.86947415       6.67051911
Si      -0.21793698       3.34380695       5.47517423
Si       0.09206461       5.95951647       5.51728053
Si       3.22619118       0.64762304       1.32177446
Si       4.93222903       3.92755553       3.68773360
Si       2.59042947       6.33060274       4.60607166
24
Lattice="7.031717752412985 0.6153395114436534 -0.46089691382734926 -2.7946246346604937 6.861049089855491 1.135451301447006 -0.522549114750516 1.2016398483708444 8.65285515205437" Properties=species:S:1:pos:R:3 unique_starting_index=90 config_type=initial n_minim_iter=8 stress="-0.00047517882976397003 0.0001691675557424126 -0.0004846513797744989 0.0001691675557424126 -0.00015447418960462758 -0.0002895982346903228 -0.0004846513797744989 -0.0002895982346903228 0.00042550981198235594" pbc="T T T"
Si       5.30021129       0.87287045       5.41123544
Si       0.71713913       2.19072543       1.41306907
Si       4.71435258       6.29512214       3.22879856
Si       1.72288005       0.92128990       3.26027575
Si       3.56787196       3.62124087       8.58347075
Si      -1.78174447       5.98915062       7.93427978
Si       1.46443085       4.29436934       4.11431468
Si       0.70568654       6.39271792       7.78528046
Si      -2.20235829       7.93966746       6.53630419
Si       3.10927262       2.61809087       4.41954985
Si       1.42900423       4.44121312       1.68384990
Si       2.65760622       6.50583690       2.03867804
Si       3.02924393       7.76512798       0.02422035
Si       6.00787338       4.39504595       7.24443216
Si      -0.97016618       5.21234459       1.67410611
Si      -1.99355862       8.67668045       9.41870368
Si      -1.50965685       2.73458503       1.98953126
Si       3.09073736       6.08758781       8.66870940
Si       2.86851719       1.87084520       6.68748284
Si      -0.21687345       3.34167139       5.48439422
Si       0.11884551       5.95892518       5.52143066
Si       3.22263667       0.65113749       1.31841581
Si       4.92926859       3.94401366       3.69653721
Si       2.59117219       6.33150048       4.60530863
24
Lattice="7.035435975399836 0.6169598961312233 -0.4444941250028311 -2.7919611562789997 6.862565634866048 1.1355725021680798 -0.5031917500556466 1.2101428724572816 8.650221721096285" Properties=species:S:1:pos:R:3 unique_starting_index=90 config_type=initial n_minim_iter=9 stress="2.5008843866928373e-05 0.0002938782891151599 0.0008574637926327048 0.0002938782891151599 -2.8760120937644806e-05 0.00035129328425623696 0.0008574637926327048 0.00035129328425623696 0.0001671221096674662" pbc="T T T"
Si       5.31680009       0.87989506       5.42184545
Si       0.72151933       2.19126837       1.41658651
Si       4.72601253       6.30036177       3.24542740
Si       1.73190648       0.92530972       3.26406946
Si       3.59040281       3.63159124       8.59252554
Si      -1.76477884       5.99828300       7.93309456
Si       1.47533421       4.29916346       4.12136951
Si       0.72535802       6.40147601       7.79139960
Si      -2.18711794       7.94581817       6.53760022
Si       3.12149922       2.62286153       4.42809171
Si       1.43497015       4.44476925       1.69044007
Si       2.66542983       6.50945994       2.04926046
Si       3.03374077       7.76830225       0.03880990
Si       6.02937749       4.40338465       7.25963687
Si      -0.96553087       5.21464067       1.67669935
Si      -1.97243581       8.68664439       9.42026571
Si      -1.50524135       2.73675594       1.98880806
Si       3.11382149       6.09836540       8.67895528
Si       2.88588879       1.87916106       6.69255731
Si      -0.20349573       3.34771741       5.48512372
Si       0.13263395       5.96599095       5.52467961
Si       3.22841637       0.65271291       1.32594053
Si       4.94281728       3.95024696       3.71023081
Si       2.60584116       6.33834605       4.61573472
24
Lattice="7.042866731162127 0.6095972035927032 -0.45210656274863786 -2.803726778459352 6.864945002699472 1.1336426252088643 -0.514682346505117 1.2059336886728076 8.64081501597278" Properties=species:S:1:pos:R:3 unique_starting_index=90 config_type=initial n_minim_iter=10 stress="0.0005531695288420341 -0.0002775348449743482 0.0001484309990228301 -0.0002775348449743482 0.0002990513650907742 0.0002569394397729434 0.0001484309990228301 0.0002569394397729434 -0.000560853902067487" pbc="T T T"
Si       5.31730216       0.87131762       5.40872451
Si       0.71896571       2.18655415       1.41370719
Si       4.71926064       6.29279673       3.23588707
Si       1.72980383       0.92225757       3.25825558
Si       3.58121645       3.62421356       8.57793300
Si      -1.78507450       5.99764477       7.92189653
Si       1.46701179       4.29491404       4.11496777
Si       0.71027781       6.39591497       7.78003828
Si      -2.20606452       7.94233874       6.52996414
Si       3.11595157       2.61483059       4.41900633
Si       1.42984401       4.44377812       1.68341918
Si       2.65835028       6.50489972       2.03808563
Si       3.02938995       7.76713249       0.03141572
Si       6.02331301       4.39020308       7.24215645
Si      -0.97392855       5.21485169       1.67330062
Si      -1.99712063       8.68313747       9.40891374
Si      -1.51217817       2.73766170       1.98771010
Si       3.10076519       6.09110670       8.66302022
Si       2.87967741       1.87386804       6.67850831
Si      -0.21321625       3.34513565       5.47654162
Si       0.11914358       5.96451846       5.51303867
Si       3.23092188       0.64661492       1.32074708
Si       4.94240043       3.94411232       3.69896169
Si       2.59882162       6.33411758       4.60418208
24
Lattice="7.06096699105636 0.6005259555523462 -0.45124752737497037 -2.820478432221749 6.86166514994609 1.1175003384581097 -0.5154646366717003 1.1873637776651134 8.632593437370069" Properties=species:S:1:pos:R:3 unique_starting_index=90 config_type=initial n_minim_iter=11 stress="8.461206152374898e-05 -0.0006191282447950827 -0.0008317767398970903 -0.0006191282447950827 0.0002369971244412272 -0.00031139147071655 -0.0008317767398970903 -0.00031139147071655 -0.00025562993839889424" pbc="T T T"
Si       5.35162184       0.85876891       5.40973597
Si       0.71638364       2.16291806       1.41945578
Si       4.72591720       6.28271382       3.21790980
Si       1.76257278       0.90796442       3.25479183
Si       3.57605729       3.61615195       8.59115351
Si      -1.80905109       5.98966068       7.89631322
Si       1.46783107       4.26716583       4.10456343
Si       0.70102298       6.37736268       7.75262117
Si      -2.22620878       7.91594643       6.49472128
Si       3.12455662       2.60177638       4.41975876
Si       1.40108469       4.43106448       1.67299533
Si       2.66878573       6.46523103       2.01320141
Si       2.99756113       7.78247348       0.02460760
Si       6.04667367       4.37057780       7.23366362
Si      -0.97343231       5.20798169       1.65467572
Si      -2.02830765       8.66283306       9.37769886
Si      -1.51212979       2.71797340       1.99849198
Si       3.08446810       6.06878707       8.63014379
Si       2.88741011       1.85884490       6.67256940
Si      -0.22228898       3.32961630       5.46703554
Si       0.13486447       5.95499632       5.48504292
Si       3.24608620       0.62458340       1.31217135
Si       4.95842071       3.94260763       3.70270521
Si       2.59972959       6.31251908       4.58073132
24
Lattice="7.064195645774337 0.6143903801932075 -0.4299259512732874 -2.8043486133578153 6.857399917376186 1.1167208511467848 -0.48752538069414136 1.1953990013209586 8.63458932752935" Properties=species:S:1:pos:R:3 unique_starting_index=90 config_type=initial n_minim_iter=12 stress="-0.00024452652309077584 0.0006754948922132321 0.0006677665641799166 0.0006754948922132321 -0.0004091466848392446 0.00022966038721516723 0.0006677665641799166 0.00022966038721516723 4.8655098883819895e-05" pbc="T T T"
Si       5.37650071       0.87572363       5.43082105
Si       0.72462434       2.16179307       1.42990630
Si       4.75117936       6.29897040       3.23731304
Si       1.78355797       0.91391568       3.26167493
Si       3.60531391       3.63761907       8.61723122
Si      -1.77639647       5.99183514       7.89943474
Si       1.49119924       4.27193990       4.11432590
Si       0.73503288       6.38833136       7.75927754
Si      -2.19109963       7.91928349       6.49240226
Si       3.14852896       2.61820591       4.43324183
Si       1.40556306       4.43117062       1.68333342
Si       2.69524134       6.46420335       2.02438349
Si       3.00379682       7.79544578       0.04365231
Si       6.08333698       4.39869549       7.25993698
Si      -0.95694247       5.20864227       1.65635407
Si      -1.98698368       8.66884542       9.38088003
Si      -1.49686613       2.71258950       2.00160186
Si       3.11777596       6.08512080       8.64159196
Si       2.91164303       1.87320821       6.68756594
Si      -0.19689733       3.33281078       5.47287594
Si       0.17263236       5.96216461       5.48968390
Si       3.25467304       0.62805966       1.31727124
Si       4.97612128       3.95924379       3.72732418
Si       2.62722222       6.32125813       4.59457201
24
Lattice="7.090076372972277 0.6035842828037968 -0.42587725264010645 -2.8262844368567213 6.862676708188781 1.0982057351530952 -0.4859680912826448 1.1782073271120483 8.617267778449973" Properties=species:S:1:pos:R:3 unique_starting_index=90 config_type=initial n_minim_iter=13 stress="0.00023542786389312793 -0.0004643635031999443 0.00040214040043291767 -0.0004643635031999443 0.0008168938200019768 -0.0002922730817563685 0.00040214040043291767 -0.0002922730817563685 0.0015532646993738004" pbc="T T T"
Si       5.41866972       0.85408594       5.42925957
Si       0.72570427       2.13233615       1.44548526
Si       4.75535314       6.29247279       3.22870337
Si       1.81955889       0.90487100       3.25547292
Si       3.60318652       3.63514027       8.63110299
Si      -1.81094494       5.97726089       7.86888668
Si       1.49597762       4.25679091       4.10875508
Si       0.72143983       6.37415003       7.72528644
Si      -2.20771310       7.90798484       6.45240228
Si       3.16684719       2.61375678       4.42391562
Si       1.37321753       4.41760811       1.67119641
Si       2.71228714       6.42691552       1.98370104
Si       2.97126585       7.82444242       0.03265416
Si       6.11586762       4.38880021       7.24571865
Si      -0.96770245       5.21251257       1.63960782
Si      -2.02538107       8.65326536       9.34371945
Si      -1.49241502       2.70148781       2.00593311
Si       3.10388831       6.06918207       8.59631454
Si       2.92072915       1.86686384       6.67150900
Si      -0.18808764       3.31495823       5.45558387
Si       0.19078000       5.96177858       5.44616777
Si       3.27843478       0.59630745       1.29600141
Si       4.99006036       3.95666976       3.73331868
Si       2.63804501       6.31056318       4.57123972
24
Lattice="7.096620308215331 0.6067175049625472 -0.43235400520944933 -2.8267702351800486 6.862293763778397 1.0992113013898535 -0.4948506254259635 1.1781933790648125 8.603114467990517" Properties=species:S:1:pos:R:3 unique_starting_index=90 config_type=initial n_minim_iter=14 stress="0.0002913305128644042 -0.0003392380574887608 -7.450925737310765e-05 -0.0003392380574887608 0.00014064028105446863 9.116082614331323e-06 -7.450925737310765e-05 9.116082614331323e-06 0.0007056247660045469" pbc="T T T"
Si       5.41803229       0.85214363       5.41584758
Si       0.72783671       2.12768412       1.44885565
Si       4.75370441       6.29392213       3.22644292
Si       1.81899550       0.90881982       3.24772801
Si       3.59724361       3.63912437       8.61837104
Si      -1.82567100       5.97049339       7.85894691
Si       1.49705577       4.26428807       4.10558079
Si       0.71222980       6.37439468       7.71143072
Si      -2.20873080       7.91001955       6.44675178
Si       3.16772771       2.61894005       4.40924547
Si       1.37164670       4.41559789       1.66727444
Si       2.71769035       6.42628425       1.96770254
Si       2.97695404       7.83134872       0.02610839
Si       6.11681975       4.39395092       7.22577796
Si      -0.97360601       5.21527055       1.64090552
Si      -2.03769752       8.65081604       9.33265089
Si      -1.49156269       2.70517310       2.00230129
Si       3.09899184       6.07105298       8.57563217
Si       2.91495390       1.87262446       6.65395249
Si      -0.18420462       3.31143574       5.44494716
Si       0.18877852       5.96493290       5.43081390
Si       3.28305441       0.59153067       1.28306049
Si       4.99107319       3.95776203       3.72478432
Si       2.64351201       6.31515626       4.56204987
24
Lattice="7.117668790338964 0.6201559224081364 -0.4341531542019489 -2.822974487219289 6.866067333722557 1.0931850444858053 -0.49889772203913063 1.1762669783164321 8.561468295970247" Properties=species:S:1:pos:R:3 unique_starting_index=90 config_type=initial n_minim_iter=15 stress="-0.0003725933975074884 0.0002303223627909171 -0.0006332316809633643 0.0002303223627909171 -0.000465503202030607 0.00011878310520068751 -0.0006332316809633643 0.00011878310520068751 -0.001700076102125355" pbc="T T T"
Si       5.43872330       0.85236701       5.39461579
Si       0.73533580       2.11654654       1.46029479
Si       4.77003164       6.31076919       3.21916747
Si       1.84247422       0.91531986       3.22997954
Si       3.59757008       3.65809839       8.60176725
Si      -1.84773805       5.96272389       7.82449049
Si       1.51523493       4.28349737       4.09279685
Si       0.70836196       6.38371359       7.66510979
Si      -2.19265892       7.91886344       6.41368835
Si       3.18309981       2.64096887       4.38106675
Si       1.36031969       4.41064710       1.66314605
Si       2.74757840       6.41463497       1.93006025
Si       2.98113764       7.87147245       0.01480416
Si       6.15092128       4.41621157       7.18527798
Si      -0.97878910       5.22468759       1.63715448
Si      -2.04773776       8.65456539       9.28441299
Si      -1.48173047       2.70754197       1.99692458
Si       3.09914504       6.07873703       8.51365615
Si       2.91690236       1.88786005       6.61851915
Si      -0.16601078       3.30240484       5.41497781
Si       0.21423279       5.97436216       5.38408328
Si       3.30012083       0.57823087       1.25117416
Si       5.01307441       3.97540330       3.71484803
Si       2.66751376       6.32926940       4.53716987
24
Lattice="7.112167833619866 0.6299530607599454 -0.4193150453384807 -2.8093440577663773 6.869665012542096 1.08882582983972 -0.47827114910599705 1.1779191114652308 8.566413073167784" Properties=species:S:1:pos:R:3 unique_starting_index=90 config_type=initial n_minim_iter=16 stress="0.0002854847179403583 0.00035633688135181 -0.00025371231816643234 0.00035633688135181 -0.0006594553267518184 6.134341646175916e-05 -0.00025371231816643234 6.134341646175916e-05 -0.0012431534928111433" pbc="T T T"
Si       5.44156012       0.85556438       5.41695610
Si       0.74154959       2.12840821       1.46378867
Si       4.77748199       6.32022334       3.24495853
Si       1.85031265       0.92017601       3.23498627
Si       3.61991019       3.65878336       8.61921012
Si      -1.83236327       5.96252974       7.83140486
Si       1.53795947       4.31360846       4.10175226
Si       0.72296592       6.39660388       7.66663842
Si      -2.15284561       7.92739674       6.42873529
Si       3.18676972       2.65628160       4.38557326
Si       1.36873022       4.41150403       1.67960930
Si       2.75538992       6.42370123       1.92865858
Si       2.99666537       7.88674202       0.01030783
Si       6.17695569       4.42087529       7.19554090
Si      -0.97972118       5.22969534       1.64720468
Si      -2.01498016       8.66662926       9.28485837
Si      -1.47531191       2.72186756       1.99059422
Si       3.12355540       6.07685577       8.52394737
Si       2.92925668       1.89143260       6.62924818
Si      -0.14940854       3.30039678       5.41403417
Si       0.23046442       5.97853949       5.38937320
Si       3.29905121       0.58083872       1.25169422
Si       5.04049944       3.98298429       3.72759734
Si       2.68750324       6.34039960       4.54447487
24
Lattice="7.123037148079213 0.6298556134171374 -0.40536133027192645 -2.812314297384661 6.872406850370896 1.0799525982779832 -0.46165147204433504 1.17444822845889 8.564917525269633" Properties=species:S:1:pos:R:3 unique_starting_index=90 config_type=initial n_minim_iter=17 stress="0.0002737513974844589 3.563346939771976e-05 9.669428273940285e-05 3.563346939771976e-05 0.00016050179395292333 -4.962695002519492e-05 9.669428273940285e-05 -4.962695002519492e-05 9.880817066510662e-05" pbc="T T T"
Si       5.47396296       0.85300929       5.43373148
Si       0.74398229       2.11846802       1.47487550
Si       4.79166802       6.32606009       3.25333862
Si       1.88278854       0.91626600       3.23812629
Si       3.63314637       3.66538105       8.64812293
Si      -1.83338897       5.96251056       7.82466688
Si       1.55230662       4.31249874       4.10517311
Si       0.73190660       6.39936675       7.65588635
Si      -2.13942386       7.92463385       6.41525903
Si       3.20280306       2.66449452       4.39440804
Si       1.35181112       4.40570041       1.68662238
Si       2.77325126       6.40175836       1.91779982
Si       2.97858180       7.91079111       0.01441998
Si       6.21413481       4.42639349       7.20686571
Si      -0.97758172       5.23213510       1.64173234
Si      -2.01002150       8.66996218       9.27020597
Si      -1.46795523       2.71490687       1.99680014