8
Lattice="5.406140661133807 0.4955809465654471 -0.8323937578578436 2.1717180780753242 6.575185663923364 -2.348043012231503 0.007177091469472281 -0.5570217970149793 5.405818554277361" Properties=species:S:1:pos:R:3 unique_starting_index=84 config_type=initial n_minim_iter=1 energy=-1305.7561983875264 free_energy=-1305.7561983875264 pbc="T T T"
Si       4.91058492       4.09839551      -1.95216687
Si       2.67445091       2.41534931       4.17754865
Si       4.59768201       2.10170401      -1.29795505
Si       2.98735382       4.41204080       3.52333684
Si       2.02283853       5.64539463       2.09183428
Si       5.56219730       0.86835018       0.13354750
Si       6.78307467       3.95112211       1.69469088
Si       0.80196117       2.56262271       0.53069091
8
Lattice="5.408524442830064 0.4877955078113472 -0.8325422481308569 2.1668296436544003 6.553581370487526 -2.337794375011647 0.00813164903987969 -0.5435265406694451 5.415786683060942" Properties=species:S:1:pos:R:3 unique_starting_index=84 config_type=initial n_minim_iter=2 stress="0.010305269266667805 -0.0024518715833744442 -0.0003111611629923416 -0.0024518715833744442 -0.03091771097048989 0.0025042216938172975 -0.0003111611629923416 0.0025042216938172975 -0.027295760776176823" pbc="T T T"
Si       4.90996691       4.07984098      -1.94623729
Si       2.67351883       2.41800936       4.19168735
Si       4.59882087       2.09017984      -1.29535649
Si       2.98466486       4.40767050       3.54080655
Si       2.01867854       5.63536750       2.10870013
Si       5.56480719       0.86248284       0.13674993
Si       6.78347958       3.94048498       1.70786504
Si       0.80000616       2.55736536       0.53758502
8
Lattice="5.404975402257447 0.4839685236363636 -0.8350079814822698 2.16170443095684 6.556420476675378 -2.336856855655798 0.009012651492167062 -0.5345197930368157 5.440353735362274" Properties=species:S:1:pos:R:3 unique_starting_index=84 config_type=initial n_minim_iter=3 stress="0.03221673773957861 -0.00562949441452011 0.008436684999687442 -0.00562949441452011 -0.0029927291996895504 -0.001537433165097383 0.008436684999687442 -0.001537433165097383 -0.0028525563463201167" pbc="T T T"
Si       4.90544343       4.07872495      -1.94749260
Si       2.67024906       2.42714426       4.21598150
Si       4.59536603       2.08730790      -1.29667107
Si       2.98032646       4.41856131       3.56515997
Si       2.01375079       5.64402490       2.12786020
Si       5.56194170       0.86184431       0.14062870
Si       6.77787045       3.94511453       1.72393706
Si       0.79782203       2.56075468       0.54455184
8
Lattice="5.387771414216838 0.4821475436663009 -0.841106220980892 2.1558584341924187 6.55370611160753 -2.3343735403349126 0.005066959735858386 -0.5241337939354751 5.4594447770311705" Properties=species:S:1:pos:R:3 unique_starting_index=84 config_type=initial n_minim_iter=4 stress="-0.007082809269406452 -0.00013979211639119095 -0.0006496508669892934 -0.00013979211639119095 -0.011329053848451832 0.007778613359399034 -0.0006496508669892934 0.007778613359399034 0.006429777744483146" pbc="T T T"
Si       4.89112253       4.07601066      -1.95029039
Si       2.65757428       2.43570920       4.23425540
Si       4.58174819       2.08430869      -1.29973150
Si       2.96694862       4.42741118       3.58369651
Si       2.00424950       5.64840524       2.14419660
Si       5.54444731       0.86331462       0.13976842
Si       6.75476616       3.94974172       1.73345658
Si       0.79393065       2.56197815       0.55050844
8
Lattice="5.387641251168562 0.4805243748698652 -0.8426721035468986 2.1546688580591287 6.553927078774747 -2.3332237897108428 0.0034024990696389194 -0.5230432605318516 5.4583681350210105" Properties=species:S:1:pos:R:3 unique_starting_index=84 config_type=initial n_minim_iter=5 stress="-0.00010276748490403797 -0.0066458371303959 -0.010977204755899887 -0.0066458371303959 -0.003996205848996707 0.007047690226387827 -0.010977204755899887 0.007047690226387827 -0.002279076473441643" pbc="T T T"
Si       4.89168291       4.07505569      -1.95067575
Si       2.65402970       2.43635251       4.23314799
Si       4.58225242       2.08156560      -1.29986894
Si       2.96346019       4.42984259       3.58234118
Si       2.00074660       5.64915643       2.14468557
Si       5.54496601       0.86225176       0.13778667
Si       6.75318998       3.94934120       1.73200333
Si       0.79252263       2.56206700       0.55046891
8
Lattice="5.378654249474592 0.4869739808082749 -0.8293368548623621 2.154461371859608 6.546532984831274 -2.3288562132571724 0.016201068621323398 -0.522642184033555 5.459519957674111" Properties=species:S:1:pos:R:3 unique_starting_index=84 config_type=initial n_minim_iter=6 stress="0.0074826919845893 0.008166832001900583 -0.0013588700531328055 0.008166832001900583 -0.001229080898765166 0.009131755389676116 -0.0013588700531328055 0.009131755389676116 0.00048085458903788256" pbc="T T T"
Si       4.88859766       4.07507278      -1.93875774
Si       2.66071903       2.43579200       4.24008463
Si       4.57589845       2.08034129      -1.28791273
Si       2.97341824       4.43052349       3.58923962
Si       2.00621849       5.64267235       2.15043635
Si       5.54309820       0.86819243       0.15089054
Si       6.75393624       3.95246801       1.74924602
Si       0.79538045       2.55839677       0.55208087
8
Lattice="5.369151242166092 0.4838810712166845 -0.8219464116614753 2.1435872084205503 6.540979781836242 -2.33271488302813 0.024595785085156537 -0.5275522775102403 5.461134169869346" Properties=species:S:1:pos:R:3 unique_starting_index=84 config_type=initial n_minim_iter=7 stress="0.0002844091507258641 -0.002853350081856681 -0.0009948705423609033 -0.002853350081856681 -0.006186903654362661 -0.00223834553523179 -0.0009948705423609033 -0.00223834553523179 0.002719763932026911" pbc="T T T"
Si       4.87779420       4.06940749      -1.93555824
Si       2.65954004       2.42790109       4.24203112
Si       4.56610122       2.07512996      -1.28307356
Si       2.97123302       4.42217861       3.58954644
Si       1.99966486       5.63384311       2.14839424
Si       5.53766938       0.86346547       0.15807863
Si       6.74477243       3.94308796       1.75604934
Si       0.79256181       2.55422061       0.55042353
8
Lattice="5.351805892351354 0.4829791563284517 -0.8008334594839995 2.128943473790014 6.563272808343385 -2.302614348084318 0.0406965891712764 -0.5202611868499822 5.432476880908103" Properties=species:S:1:pos:R:3 unique_starting_index=84 config_type=initial n_minim_iter=8 stress="-0.0021164994000270544 -0.004878438038677936 0.005835090842368991 -0.004878438038677936 0.008891814148835648 6.313007413470487e-05 0.005835090842368991 6.313007413470487e-05 -0.0035870818721886392" pbc="T T T"
Si       4.86271491       4.07797865      -1.90106275
Si       2.65873104       2.44801213       4.23009182
Si       4.54597644       2.08041245      -1.25791304
Si       2.97546952       4.44557833       3.58694211
Si       1.98725038       5.65782043       2.15542350
Si       5.53419558       0.86817035       0.17360558
Si       6.73232692       3.96218252       1.77496985
Si       0.78911904       2.56380826       0.55405923
8
Lattice="5.363568253043852 0.5265346416393997 -0.8235522105309222 2.189380794434898 6.606381143187255 -2.323251471397567 0.01350190657589931 -0.5349714663784879 5.423685329516614" Properties=species:S:1:pos:R:3 unique_starting_index=84 config_type=initial n_minim_iter=9 stress="-0.009108146989385434 0.00706112496772801 0.0037620943387845674 0.00706112496772801 0.019458962973158946 -0.008523510453603736 0.0037620943387845674 -0.008523510453603736 -0.004403695019477162" pbc="T T T"
Si       4.91915458       4.11981688      -1.91830696
Si       2.64729637       2.47812743       4.19518861
Si       4.55974050       2.12758022      -1.27502924
Si       3.00671045       4.47036410       3.55191089
Si       1.98388472       5.67881170       2.13951674
Si       5.58256623       0.91913262       0.13736490
Si       6.76706049       4.02678702       1.73398263
Si       0.79939046       2.57115729       0.54289902
8
Lattice="5.365624767764053 0.5474933102718875 -0.83946181965665 2.2182162696956067 6.625028765805063 -2.3406707664886413 -0.0032817262064603926 -0.5443103461266344 5.426449988861861" Properties=species:S:1:pos:R:3 unique_starting_index=84 config_type=initial n_minim_iter=10 stress="0.003600044162408962 0.006326813086944624 0.006323731908420214 0.006326813086944624 0.025156433365690397 -0.007163278750660969 0.006323731908420214 -0.007163278750660969 0.007059933757507591" pbc="T T T"
Si       4.94913106       4.13253689      -1.93097851
Si       2.63142825       2.49567484       4.17729591
Si       4.55865341       2.14700167      -1.28435388
Si       3.02190590       4.48121006       3.53067128
Si       1.95989863       5.67829775       2.13531713
Si       5.62066068       0.94991398       0.11100028
Si       6.77838520       4.05619535       1.70685790
Si       0.80217411       2.57201638       0.53945950
8
Lattice="5.352938157926657 0.5508256656262464 -0.8588436494344814 2.221162442662045 6.632516171293697 -2.3649747020181358 -0.02027716247460239 -0.5552728705054081 5.4377539723377515" Properties=species:S:1:pos:R:3 unique_starting_index=84 config_type=initial n_minim_iter=11 stress="-0.012231318208560136 0.005640586341286278 -0.0012207904531512555 0.005640586341286278 0.007422738825104575 -0.004157832573829466 -0.0012207904531512555 -0.004157832573829466 0.0029080836854790118" pbc="T T T"
Si       4.95048779       4.12562297      -1.95141538
Si       2.60333565       2.50244600       4.16535100
Si       4.53934914       2.14883830      -1.29637908
Si       3.01447429       4.47923066       3.51031470
Si       1.91431662       5.66559990       2.13788075
Si       5.63950681       0.96246907       0.07605487
Si       6.75548024       4.05697859       1.67411891
Si       0.79834320       2.57109038       0.53981671
8
Lattice="5.357705609712833 0.5470780794117877 -0.8633339639074343 2.2189740420463835 6.627311210262754 -2.377788611979462 -0.02398390495189578 -0.5653894334039705 5.434269292918145" Properties=species:S:1:pos:R:3 unique_starting_index=84 config_type=initial n_minim_iter=12 stress="0.009710407330731956 -0.004802629222949644 0.003420072916306142 -0.004802629222949644 0.0006856414363635525 0.0003552925600732658 0.003420072916306142 0.0003552925600732658 0.007368573934216946" pbc="T T T"
Si       4.95235355       4.11301933      -1.96065516
Si       2.60034219       2.49598053       4.15380188
Si       4.53909376       2.14275660      -1.29467030
Si       3.01360199       4.46624325       3.48781702
Si       1.89180825       5.64630166       2.12637605
Si       5.66088749       0.96269820       0.06677067
Si       6.75462070       4.03953457       1.65311944
Si       0.79807504       2.56946529       0.54002728
8
Lattice="5.358105737611713 0.5434590563417976 -0.8662175443469629 2.215502028271894 6.625286916058016 -2.3821343723024206 -0.0267283011221584 -0.5692533318723182 5.430446462674231" Properties=species:S:1:pos:R:3 unique_starting_index=84 config_type=initial n_minim_iter=13 stress="0.004993626130734193 -0.0029298349337785 0.00011794449640844206 -0.0029298349337785 -0.00710147647769108 0.0017221138443711996 0.00011794449640844206 0.0017221138443711996 -0.00034142817412144676" pbc="T T T"
Si       4.94704792       4.10736689      -1.96741180
Si       2.59983154       2.49212575       4.14950635
Si       4.53940282       2.13950585      -1.29291966
Si       3.00747664       4.45998679       3.47501421
Si       1.88412342       5.64157531       2.11926666
Si       5.66275605       0.95791733       0.06282788
Si       6.74812997       4.02663691       1.64169146
Si       0.79874949       2.57285573       0.54040309
8
Lattice="5.358889775356754 0.5441477147619164 -0.8628707058988273 2.2153687975549277 6.630301978685706 -2.3780583443759356 -0.024513633267477238 -0.5695944370427971 5.423345652548664" Properties=species:S:1:pos:R:3 unique_starting_index=84 config_type=initial n_minim_iter=14 stress="-0.0007810897501803901 0.0012903397063095076 -0.0006082189223680975 0.0012903397063095076 -0.003984915366720479 0.0017760633838361354 -0.0006082189223680975 0.0017760633838361354 -0.0031293376134961465" pbc="T T T"
Si       4.94381649       4.10827214      -1.96642494
Si       2.60592845       2.49658311       4.14884155
Si       4.54147169       2.14245655      -1.28089721
Si       3.00827325       4.46239871       3.46331381
Si       1.87919165       5.64750706       2.11689272
Si       5.67055329       0.95734820       0.06552388
Si       6.74857539       4.02386367       1.64135021
Si       0.80116955       2.58099158       0.54106639
8
Lattice="5.363196208390422 0.5409986269891437 -0.8571371736213376 2.212058650376084 6.631304255524689 -2.369147120951981 -0.018937761364663686 -0.5641770918622036 5.423404792235694" Properties=species:S:1:pos:R:3 unique_starting_index=84 config_type=initial n_minim_iter=15 stress="-0.0032076213464909183 0.0019735310391371373 -0.000303920373634332 0.0019735310391371373 0.0007927580321919247 -0.00019332664918141672 -0.000303920373634332 -0.00019332664918141672 -0.0014656175729008628" pbc="T T T"
Si       4.93980715       4.10654481      -1.96280418
Si       2.61650995       2.50158098       4.15992467
Si       4.54616750       2.14267792      -1.26514740
Si       3.01014960       4.46544787       3.46226790
Si       1.87692789       5.65752442       2.12539162
Si       5.67938921       0.95060137       0.07172888
Si       6.75334932       4.01929098       1.65430905
Si       0.80296778       2.58883481       0.54281145
8
Lattice="5.3670920744349955 0.5406275665895408 -0.8560855126246373 2.2135182595380014 6.631493310374126 -2.363821566868205 -0.018185056004100125 -0.5599587179361859 5.423693163634595" Properties=species:S:1:pos:R:3 unique_starting_index=84 config_type=initial n_minim_iter=16 stress="-0.0022231310218634183 0.0007037832057659557 0.0007281247854111613 0.0007037832057659557 0.0030583159742635356 -0.001362468847422311 0.0007281247854111613 -0.001362468847422311 0.0010450330545413204" pbc="T T T"
Si       4.94247862       4.10527897      -1.96173177
Si       2.61994666       2.50688319       4.16551785
Si       4.54910523       2.14417992      -1.25577649
Si       3.01332004       4.46798224       3.45956258
Si       1.87014404       5.66326288       2.13295882
Si       5.69228124       0.94889927       0.07082726
Si       6.75764833       4.01941450       1.66009916
Si       0.80477695       2.59274766       0.54368692
8
Lattice="5.371192772960785 0.5395064156850915 -0.8558255153221632 2.214761270848565 6.627934006154216 -2.358976900893854 -0.01790768032912336 -0.5549368979035222 5.426010354747807" Properties=species:S:1:pos:R:3 unique_starting_index=84 config_type=initial n_minim_iter=17 stress="-0.0008955113055325375 0.00019108826347339318 0.00026716015691828377 0.00019108826347339318 0.0015234876809669946 -0.0007359323562420242 0.00026716015691828377 -0.0007359323562420242 0.0012117526503816047" pbc="T T T"
Si       4.94583214       4.10359894      -1.96093366
Si       2.62221422       2.50890458       4.17214160
Si       4.55268656       2.14404629      -1.25106699
Si       3.01535980       4.46845723       3.46227493
Si       1.86898081       5.66622134       2.14086776
Si       5.69906555       0.94628218       0.07034017
Si       6.76140366       4.01967861       1.66656292
Si       0.80664270       2.59282492       0.54464502
8
Lattice="5.373516258902256 0.5389912849475251 -0.856910384550649 2.2160771711048928 6.6253363562722045 -2.3570302256751385 -0.019142543356767776 -0.5527124037227 5.425995415893658" Properties=species:S:1:pos:R:3 unique_starting_index=84 config_type=initial n_minim_iter=18 stress="0.0005142173128193387 -0.00042472619489216393 6.676129061018372e-05 -0.00042472619489216393 0.00012259222441885135 -0.0001086826117964931 6.676129061018372e-05 -0.0001086826117964931 0.0006695434377233908" pbc="T T T"
Si       4.94917879       4.10235203      -1.96160420
Si       2.62127210       2.50926321       4.17365901
Si       4.55423594       2.14425501      -1.24922116
Si       3.01621495       4.46736023       3.46127597
Si       1.86588372       5.66615984       2.14420793
Si       5.70456717       0.94545540       0.06784688
Si       6.76177015       4.02026184       1.66690665
Si       0.80868074       2.59135340       0.54514816
8
Lattice="5.373982215050992 0.538817015233522 -0.8570517155602946 2.216437720395069 6.6236890773188515 -2.3559070803488895 -0.019424372757391582 -0.5517123000841426 5.425557662107201" Properties=species:S:1:pos:R:3 unique_starting_index=84 config_type=initial n_minim_iter=19 stress="0.0006641274154682924 -0.00027798821168460285 -0.00032445462302980825 -0.00027798821168460285 -0.0009550129927907079 0.0004802600111075131 -0.00032445462302980825 0.0004802600111075131 -0.0003892665509684935" pbc="T T T"
Si       4.95048491       4.10216054      -1.96188314
Si       2.62051065       2.50863325       4.17448201
Si       4.55489795       2.14477264      -1.24806217
Si       3.01609761       4.46602116       3.46066104
Si       1.86515244       5.66588599       2.14540048
Si       5.70584313       0.94490780       0.06719839
Si       6.75990256       4.02131811       1.66715412
Si       0.81109300       2.58947568       0.54544474
8
Lattice="5.3733237869035175 0.5392316716891313 -0.8569429937134243 2.2166460729694593 6.623832233321057 -2.355719561628033 -0.019464199988370148 -0.551824028031019 5.424809561652788" Properties=species:S:1:pos:R:3 unique_starting_index=84 config_type=initial n_minim_iter=20 stress="0.0005115678738615397 -6.413006560186512e-05 -0.00032462371748244044 -6.413006560186512e-05 -0.0009684103850229572 0.0006041767105066906 -0.00032462371748244044 0.0006041767105066906 -0.0008326700910442611" pbc="T T T"
Si       4.95061232       4.10297701      -1.96231153
Si       2.61989334       2.50826287       4.17445854
Si       4.55510557       2.14607460      -1.24704430
Si       3.01540009       4.46516528       3.45919130
Si       1.86485081       5.66638832       2.14489648
Si       5.70565485       0.94485156       0.06725052
Si       6.75658865       4.02308193       1.66674758
Si       0.81391701       2.58815795       0.54539943
8
Lattice="5.37202334524373 0.5400385143813747 -0.8568158416100604 2.2168342470425424 6.625316272822802 -2.356235702000744 -0.019404317264953463 -0.5524956490568795 5.424523991272127" Properties=species:S:1:pos:R:3 unique_starting_index=84 config_type=initial n_minim_iter=21 stress="0.000124062106013977 0.00012637465068710105 -0.00016766300760805025 0.00012637465068710105 -0.0005097489909630752 0.00039964277181713144 -0.00016766300760805025 0.00039964277181713144 -0.0006967770253389804" pbc="T T T"
Si       4.94981943       4.10452591      -1.96282708
Si       2.61963385       2.50833322       4.17429953
Si       4.55523197       2.14778005      -1.24652373
Si       3.01422130       4.46507909       3.45799618
Si       1.86536875       5.66788676       2.14361908
Si       5.70408452       0.94497238       0.06785337
Si       6.75266905       4.02541619       1.66647904
Si       0.81678423       2.58744295       0.54499340
