22
Lattice="5.453000671854926 0.5848722565475958 0.03465183632005766 3.3390331489743508 6.1665367884798465 0.44747531537316215 1.1028525207971038 1.652233724301917 16.3800790728666" Properties=species:S:1:pos:R:3 unique_starting_index=40 config_type=initial n_minim_iter=1 energy=-3579.4165605386743 free_energy=-3579.4165605386743 pbc="T T T"
Si       6.54287086       3.86005075      12.99114423
Si       1.66958416       3.67087865       5.35283694
Si       4.97480780       1.40294307       7.08759411
Si       4.49682757       5.16820811      14.26022837
Si       4.15278357       3.48148983      15.70256182
Si       6.81146947       6.38612220       6.60734635
Si       6.26152718       3.05197509       2.24508028
Si       5.82711388       5.83905732      10.33321939
Si       4.79967084       2.88842093       0.44279447
Si       6.33071722       6.07610394      15.21588290
Si       5.06206598       3.73148686      11.14462507
Si       3.83593337       5.91889525      12.09289128
Si       2.58653617       3.31075137       0.78926041
Si       0.98040084       0.50665215       8.54758446
Si       2.67867887       1.79994169      16.17803434
Si       7.60884992       6.18590747       8.97099206
Si       3.83791405       3.56605639       4.46206934
Si       4.72628937       7.48453244       6.62220609
Si       5.54245080       4.72078135       3.66282841
Si       4.65524110       2.52867380       8.85922286
Si       6.12653538       2.91508255      15.13208476
Si       4.87968137       1.70767160       4.99208547
22
Lattice="5.446341374406912 0.581845544435868 0.030461502387508 3.3319994554262107 6.1597674824491415 0.43416858699102195 1.0914486266036396 1.6205544679815838 16.372307504056213" Properties=species:S:1:pos:R:3 unique_starting_index=40 config_type=initial n_minim_iter=2 stress="-0.0044873704842824476 0.000543976319507992 -0.00033170970477934764 0.000543976319507992 -0.0009972158190935804 -0.003409615875096541 -0.00033170970477934764 -0.003409615875096541 -0.0035113218756050147" pbc="T T T"
Si       6.52629275       3.83055374      12.97729278
Si       1.66282221       3.65760695       5.34350300
Si       4.96390579       1.38727747       7.07979493
Si       4.48086200       5.13614191      14.24449882
Si       4.13730388       3.44890104      15.68995963
Si       6.79730638       6.36660029       6.59034799
Si       6.25181749       3.04280466       2.23528845
Si       5.81196266       5.81307523      10.31645303
Si       4.79262806       2.88299883       0.43487220
Si       6.31175062       6.04125192      15.19718717
Si       5.04793836       3.70615228      11.13203313
Si       3.82191161       5.89038363      12.07710512
Si       2.58132254       3.30536974       0.78110873
Si       0.97399089       0.49016229       8.54377178
Si       2.66558564       1.76800873      16.16898507
Si       7.59158125       6.16094463       8.95370227
Si       3.82892850       3.55320579       4.45223953
Si       4.71359891       7.46487148       6.60435289
Si       5.53197030       4.70810940       3.65033751
Si       4.64361197       2.50854601       8.84974947
Si       6.10918781       2.88244372      15.11952498
Si       4.87017845       1.69520207       4.98491223
22
Lattice="5.449788227853302 0.5787068246119447 0.028621618562088322 3.3307583462969452 6.1566259062749005 0.4323220389942892 1.0860163067913498 1.6163254781377667 16.388869170123073" Properties=species:S:1:pos:R:3 unique_starting_index=40 config_type=initial n_minim_iter=3 stress="0.0002806792769070993 0.0006545877523343294 -0.002911909397757324 0.0006545877523343294 0.0020110443291923856 -0.0045308697563337 -0.002911909397757324 -0.0045308697563337 0.0036642145315967634" pbc="T T T"
Si       6.52496805       3.82371096      12.98844995
Si       1.66014675       3.65474357       5.34731496
Si       4.96396572       1.38344354       7.08488097
Si       4.47617806       5.12942490      14.25682358
Si       4.13302424       3.44344680      15.70429917
Si       6.79655602       6.36021065       6.59379029
Si       6.25427950       3.03834214       2.23490371
Si       5.80990683       5.80632718      10.32402514
Si       4.79454156       2.87923507       0.43354191
Si       6.30781746       6.03395733      15.20978172
Si       5.04558311       3.70053355      11.14126120
Si       3.81759349       5.88404329      12.08787006
Si       2.58055722       3.30284579       0.78006787
Si       0.97140225       0.48775299       8.55206840
Si       2.66141642       1.76331287      16.18453334
Si       7.59019688       6.15331751       8.95991983
Si       3.82770123       3.54890579       4.45501884
Si       4.71096816       7.45950446       6.60857330
Si       5.53249121       4.70336186       3.65185940
Si       4.64253032       2.50420313       8.85774833
Si       6.10678331       2.87537434      15.13295599
Si       4.87071775       1.69144620       4.98819072
22
Lattice="5.453074335287614 0.5570423658326144 0.03404691839409284 3.3123824211933304 6.12180179378832 0.4432021703435082 1.0952113108414172 1.6271081689889475 16.39606424922607" Properties=species:S:1:pos:R:3 unique_starting_index=40 config_type=initial n_minim_iter=4 stress="-0.0025517230836972185 -0.005596018496385754 -0.00013557843788651594 -0.005596018496385754 -0.004009454772544546 0.0010697857010131626 -0.00013557843788651594 0.0010697857010131626 -0.00041349882659723856" pbc="T T T"
Si       6.53167397       3.80323164      13.00464316
Si       1.65276892       3.64073378       5.35126074
Si       4.96838211       1.37329080       7.09116160
Si       4.47209431       5.10973266      14.26958825
Si       4.13753130       3.43968413      15.71500711
Si       6.78666972       6.31924752       6.60889744
Si       6.25485536       3.00754587       2.24399589
Si       5.80661538       5.77457065      10.33746381
Si       4.79142558       2.84884233       0.44353144
Si       6.30495548       6.01057017      15.22586301
Si       5.04541150       3.68355544      11.15238719
Si       3.81186081       5.85925296      12.10476570
Si       2.56890105       3.28024950       0.78439420
Si       0.97633730       0.49301192       8.55380185
Si       2.67264225       1.77016464      16.19152321
Si       7.58177496       6.11303456       8.97801394
Si       3.81947625       3.52362510       4.46424038
Si       4.69599989       7.42265038       6.62611537
Si       5.52724365       4.67012888       3.66617047
Si       4.64546563       2.49204191       8.87075879
Si       6.11378273       2.86154381      15.14628171
Si       4.87184778       1.67559573       4.99627002
22
Lattice="5.465961353398408 0.5508964025787256 0.04368489680634343 3.316372831360617 6.100191735243221 0.45252473456634396 1.1244843073881197 1.63149723996913 16.388446917370153" Properties=species:S:1:pos:R:3 unique_starting_index=40 config_type=initial n_minim_iter=5 stress="0.010915499135202336 0.00032511827460775293 0.006019984672846132 0.00032511827460775293 -0.0049401492746234095 -0.003595250895616872 0.006019984672846132 -0.003595250895616872 -0.000818832878483496" pbc="T T T"
Si       6.57184526       3.79579129      13.01392535
Si       1.66220611       3.62973081       5.34680200
Si       4.98948589       1.37894527       7.09736464
Si       4.49935844       5.09524153      14.26919607
Si       4.17223004       3.44184506      15.71073251
Si       6.80864356       6.29529782       6.61830493
Si       6.27738495       2.99500828       2.25386160
Si       5.83894576       5.75498729      10.34156073
Si       4.80508710       2.83139533       0.45695224
Si       6.34064717       6.00109946      15.22897146
Si       5.07142089       3.67666564      11.15491598
Si       3.83943723       5.83833846      12.11240692
Si       2.56858791       3.26599183       0.78701264
Si       0.99000125       0.49567040       8.54677844
Si       2.70733146       1.77712028      16.18392369
Si       7.60790046       6.09107575       8.99188099
Si       3.82827062       3.50593014       4.47055134
Si       4.71648104       7.40000560       6.63798810
Si       5.54862624       4.65298460       3.68073472
Si       4.67014975       2.48944902       8.87851024
Si       6.14824988       2.85708423      15.15012496
Si       4.88776074       1.67256808       5.00285492
22
Lattice="5.4496691809275655 0.5384278855684708 0.0381125606777573 3.293612699633435 6.082567938088626 0.4709228346805056 1.094655690478194 1.6870216466559032 16.39816382914222" Properties=species:S:1:pos:R:3 unique_starting_index=40 config_type=initial n_minim_iter=6 stress="0.00038928160573501163 0.003978281410673666 0.003966025806291085 0.003978281410673666 0.0003263397395202028 0.0024177989410251004 0.003966025806291085 0.0024177989410251004 0.004770371227898808" pbc="T T T"
Si       6.53630685       3.82554607      13.03009610
Si       1.64090109       3.63591538       5.34874150
Si       4.95932828       1.40749876       7.10259057
Si       4.44927733       5.12200499      14.28297258
Si       4.13354377       3.49412826      15.71443677
Si       6.76644158       6.28850404       6.63153030
Si       6.26082048       2.98506193       2.25467289
Si       5.80492414       5.76391499      10.35304584
Si       4.79107722       2.80858493       0.46762146
Si       6.28699405       6.04085387      15.24418528
Si       5.02967472       3.70311666      11.16301595
Si       3.80343281       5.85102730      12.14175465
Si       2.54371712       3.25449649       0.79174482
Si       0.96788393       0.52391282       8.54257515
Si       2.67675204       1.83622526      16.18684047
Si       7.55658463       6.09268719       9.01113582
Si       3.79449077       3.49639273       4.48030721
Si       4.68470964       7.40032886       6.66700362
Si       5.52774374       4.64500335       3.69953095
Si       4.63989520       2.51384242       8.89114677
Si       6.09613819       2.89487174      15.15954424
Si       4.85823135       1.68300877       5.00383619
22
Lattice="5.455855134389614 0.5289700107916007 0.030296512731702238 3.2868578065883347 6.075271578703918 0.4691092767368361 1.0688810048228097 1.6950681920344342 16.36963051739571" Properties=species:S:1:pos:R:3 unique_starting_index=40 config_type=initial n_minim_iter=7 stress="0.010349409684927754 0.0031019422083584406 4.579823322789685e-05 0.0031019422083584406 -0.002540846660241115 0.003533681094000284 4.579823322789685e-05 0.003533681094000284 -0.0008148629382322767" pbc="T T T"
Si       6.52195707       3.82220520      13.00271950
Si       1.62855654       3.63436658       5.33602415
Si       4.94948096       1.40716338       7.08738803
Si       4.42324813       5.11970913      14.25452941
Si       4.11014720       3.49898211      15.68049821
Si       6.75515916       6.27816017       6.61380272
Si       6.26387086       2.97515352       2.24277808
Si       5.79000201       5.75701679      10.32870033
Si       4.79349189       2.79704653       0.46362228
Si       6.26132506       6.04031850      15.21160177
Si       5.01209079       3.70131566      11.13835045
Si       3.78183414       5.84622527      12.12185621
Si       2.53733243       3.24921048       0.78773491
Si       0.95404822       0.52715558       8.52500851
Si       2.65435733       1.84414742      16.15481229
Si       7.54188551       6.08337426       8.98845746
Si       3.78373599       3.48835659       4.46921008
Si       4.67078802       7.39437115       6.65488782
Si       5.52464110       4.63613536       3.69040020
Si       4.62895332       2.51220180       8.87192278
Si       6.07488459       2.89297035      15.12716672
Si       4.85277183       1.67901889       4.98914424
22
Lattice="5.451318869060301 0.5119665341168685 0.03792384395795119 3.264168501123304 6.087423353515837 0.47001253857888387 1.0865920175455286 1.6864821144309912 16.377807101722833" Properties=species:S:1:pos:R:3 unique_starting_index=40 config_type=initial n_minim_iter=8 stress="0.008105214676247375 -0.0004657965371055027 0.0029905000534674628 -0.0004657965371055027 0.0007311761119642941 0.0032475002905377674 0.0029905000534674628 0.0032475002905377674 0.005347582737933932" pbc="T T T"
Si       6.52826173       3.80594432      13.01834004
Si       1.62251614       3.63783248       5.33413351
Si       4.94825964       1.39569397       7.10119415
Si       4.42171349       5.11147809      14.26457996
Si       4.11951683       3.49191356      15.68615075
Si       6.73997630       6.27353400       6.62275420
Si       6.25768914       2.96391188       2.25054649
Si       5.78474563       5.75029720      10.33566477
Si       4.78302295       2.78753418       0.47171137
Si       6.25672929       6.03405201      15.22237791
Si       5.01121630       3.69153661      11.14822369
Si       3.77901507       5.84176680      12.13225455
Si       2.52237656       3.25232918       0.78856550
Si       0.96405357       0.51871704       8.52940090
Si       2.67230080       1.83500232      16.16305779
Si       7.52944824       6.07536331       8.99799511
Si       3.77162086       3.48222854       4.47378098
Si       4.65177376       7.40198040       6.66290410
Si       5.51472132       4.63192445       3.69985642
Si       4.63183541       2.50158242       8.88241714
Si       6.08211813       2.87196729      15.14223783
Si       4.85022759       1.66716741       4.99687588
22
Lattice="5.4486768841347715 0.5082588762055993 0.033330860860137104 3.253925821779088 6.125513884868971 0.46524833523436404 1.070592339707027 1.6946847860632344 16.32515983234731" Properties=species:S:1:pos:R:3 unique_starting_index=40 config_type=initial n_minim_iter=9 stress="0.007314625453785141 -0.0012332851800098523 -3.88019537761149e-05 -0.0012332851800098523 0.009314149432417432 0.0032765563572401983 -3.88019537761149e-05 0.0032765563572401983 0.0020293788269145903" pbc="T T T"
Si       6.51540547       3.82260276      12.97461400
Si       1.61253149       3.65839738       5.31002199
Si       4.93311526       1.40437115       7.07381609
Si       4.39872851       5.13515677      14.21750812
Si       4.10076355       3.51710590      15.62526108
Si       6.72467102       6.30595000       6.59679688
Si       6.25501851       2.97682298       2.23791554
Si       5.76918182       5.77910110      10.29421520
Si       4.77753759       2.79629589       0.46933522
Si       6.22878014       6.06810716      15.16696797
Si       4.99292554       3.71057893      11.10889792
Si       3.76260938       5.86752850      12.09415361
Si       2.51324459       3.27032529       0.78132199
Si       0.95686884       0.51760884       8.50212420
Si       2.65844043       1.84870486      16.10696609
Si       7.51097987       6.10756451       8.95974754
Si       3.75559763       3.49638784       4.45473487
Si       4.63216881       7.44533413       6.64192512
Si       5.50868153       4.65536084       3.68648580
Si       4.62085101       2.51617930       8.85466223
Si       6.06204238       2.88092111      15.09087529
Si       4.84057932       1.67409622       4.97934625
22
Lattice="5.435018084220839 0.5189328034328926 0.02311423602197394 3.255494694002516 6.138185960998906 0.45588908421966307 1.040940400122157 1.6887637427120983 16.336072915661024" Properties=species:S:1:pos:R:3 unique_starting_index=40 config_type=initial n_minim_iter=10 stress="-0.0021749653881435595 -0.0004387877648678436 -0.0008808765844404221 -0.0004387877648678436 0.0039792396183183885 0.00476414970606637 -0.0008808765844404221 0.00476414970606637 0.0006532199154406647" pbc="T T T"
Si       6.48979539       3.83157421      12.97550933
Si       1.60568674       3.65919757       5.30111529
Si       4.89946146       1.41774268       7.07305845
Si       4.36646733       5.13351251      14.22359737
Si       4.06787372       3.53505715      15.61626620
Si       6.70863695       6.31927950       6.58849773
Si       6.24825135       2.99212531       2.22701596
Si       5.74911743       5.78663889      10.28306432
Si       4.76842826       2.80203143       0.46363733
Si       6.18583451       6.07933871      15.16249099
Si       4.96248051       3.72000811      11.10796048
Si       3.74628008       5.85991496      12.09927437
Si       2.50845242       3.27475464       0.77003969
Si       0.94127042       0.51049726       8.50896858
Si       2.62992062       1.85735440      16.11004395
Si       7.48744954       6.12689659       8.94180198
Si       3.73417867       3.49733596       4.44640225
Si       4.61692089       7.45598353       6.64177486
Si       5.50429921       4.66665637       3.68091763
Si       4.59950113       2.53034365       8.86047054
Si       6.02133194       2.88468680      15.09407117
Si       4.81914733       1.68646567       4.97350105
22
Lattice="5.437766085132604 0.5209622845933798 0.007731689184888404 3.259344066495725 6.128547972453307 0.4401204450324553 0.9981175179642725 1.6679252736251056 16.339464684856566" Properties=species:S:1:pos:R:3 unique_starting_index=40 config_type=initial n_minim_iter=11 stress="-0.0021232928193673476 -0.0017189275305928447 -0.0015326820287495787 -0.0017189275305928447 0.00046634915671409766 0.003776062946829584 -0.0015326820287495787 0.003776062946829584 -0.0019133979220283778" pbc="T T T"
Si       6.46428316       3.81302241      12.96090756
Si       1.59522345       3.64579836       5.29275960
Si       4.88345600       1.41673318       7.06431465
Si       4.33193683       5.10898572      14.21715948
Si       4.02626304       3.51979467      15.60058523
Si       6.69882862       6.30273719       6.56759676
Si       6.25105546       2.98895343       2.20910485
Si       5.72809756       5.76616988      10.26260326
Si       4.76873548       2.79768039       0.44828346
Si       6.14273400       6.05260004      15.14611650
Si       4.93525161       3.70576625      11.09727278
Si       3.72197452       5.82965135      12.08996206
Si       2.50962388       3.26970300       0.75882725
Si       0.91873135       0.49775611       8.51086579
Si       2.59216568       1.84527433      16.10603508
Si       7.47212276       6.11203567       8.91344572
Si       3.72144596       3.48503263       4.43104389
Si       4.59696807       7.43510426       6.62974119
Si       5.50294129       4.65568421       3.66289569
Si       4.58176252       2.52145789       8.85206293
Si       5.98812430       2.86374994      15.08352098
Si       4.80818575       1.68239531       4.96123771
22
Lattice="5.446139316036588 0.5447346348118317 -0.005485808943071574 3.291837800828 6.116090210489333 0.40361178205572684 0.9762590546297376 1.5810907339855231 16.396881020337336" Properties=species:S:1:pos:R:3 unique_starting_index=40 config_type=initial n_minim_iter=12 stress="-0.009891434502516836 -0.0015833535011491064 -0.0027462653308637677 -0.0015833535011491064 -0.0013463514128229154 -0.0043082166728567635 -0.0027462653308637677 -0.0043082166728567635 2.735854822756226e-05" pbc="T T T"
Si       6.46868327       3.75715045      12.97990971
Si       1.60822159       3.60824071       5.29688927
Si       4.87993742       1.39957169       7.07645072
Si       4.33668409       5.04321497      14.24590002
Si       4.01633657       3.43669082      15.62949322
Si       6.72796471       6.27465058       6.55301577
Si       6.27076084       2.99690710       2.19577252
Si       5.74063183       5.71534545      10.26026610
Si       4.77814487       2.81026283       0.42205876
Si       6.13292535       5.96648746      15.16961699
Si       4.93707489       3.66029337      11.11932947
Si       3.73588131       5.75035149      12.09987685
Si       2.53301099       3.26830668       0.74260799
Si       0.90573642       0.45135254       8.54553583
Si       2.58009698       1.77945657      16.15523313
Si       7.50002081       6.08323789       8.89034987
Si       3.73188989       3.46603523       4.41517852
Si       4.61076881       7.38688904       6.61558720
Si       5.52308519       4.64060641       3.63800988
Si       4.58738542       2.49066128       8.87064375
Si       5.98366005       2.80121538      15.12442800
Si       4.81351541       1.67119545       4.97144436
22
Lattice="5.450995712469759 0.545893176150831 -0.0018606736490790145 3.298155460062525 6.100229647505631 0.3980772480595416 0.9913381724612687 1.5515845642458557 16.445391387321465" Properties=species:S:1:pos:R:3 unique_starting_index=40 config_type=initial n_minim_iter=13 stress="-0.004064276546862168 -0.002871593579421895 0.003233545165031506 -0.002871593579421895 -0.00333387218276796 -0.004278190899818285 0.003233545165031506 -0.004278190899818285 0.0041485887247766735" pbc="T T T"
Si       6.49474604       3.72594017      13.01963466
Si       1.61890320       3.58603604       5.30889906
Si       4.88193382       1.39934982       7.10228935
Si       4.34937852       5.00999144      14.29177670
Si       4.03440573       3.40878768      15.65907626
Si       6.74630630       6.24929726       6.57115193
Si       6.28718824       2.99019802       2.20667032
Si       5.76184260       5.68272807      10.27974181
Si       4.77794293       2.80485364       0.42255784
Si       6.13682867       5.92157485      15.21658255
Si       4.95021077       3.64141373      11.15643717
Si       3.75851913       5.69966650      12.13179115
Si       2.54073721       3.25978427       0.73935364
Si       0.90801301       0.43280232       8.56944153
Si       2.60638570       1.76903002      16.19775468
Si       7.51902426       6.05790496       8.90713317
Si       3.73435974       3.44893930       4.41514322
Si       4.62030605       7.35568671       6.63334750
Si       5.53369651       4.62155149       3.64494645
Si       4.60553723       2.47933398       8.90563757
Si       6.00167113       2.77206902      15.17759917
Si       4.82139179       1.65999270       4.99837644
22
Lattice="5.458914046998473 0.5532189047938949 -0.00019948887224104057 3.3110824488888535 6.104511634522015 0.3796655737143573 1.0059341466105072 1.495052037186411 16.48923780652843" Properties=species:S:1:pos:R:3 unique_starting_index=40 config_type=initial n_minim_iter=14 stress="-0.0008955450622892821 0.000833550791159998 9.196920331080496e-05 0.000833550791159998 -0.006109788981157359 -0.003389865620692154 9.196920331080496e-05 -0.003389865620692154 -0.006358572974562254" pbc="T T T"
Si       6.53072563       3.68114463      13.04946249
Si       1.63517327       3.56132403       5.31498207
Si       4.88657031       1.39788899       7.13213399
Si       4.36041743       4.97191828      14.32709921
Si       4.05010644       3.36683511      15.67676188
Si       6.77463450       6.23444918       6.57634403
Si       6.31416062       2.99424457       2.21322706
Si       5.79402874       5.64939858      10.27923675
Si       4.77707028       2.81282826       0.41619449
Si       6.13483102       5.86275180      15.25559062
Si       4.96629469       3.62055417      11.18881763
Si       3.79086844       5.63128614      12.14979778
Si       2.55766517       3.25724145       0.72174164
Si       0.89876989       0.39816280       8.58321797
Si       2.64190320       1.74897500      16.22989682
Si       7.54754810       6.04162966       8.90329702
Si       3.73756300       3.43667822       4.39641036
Si       4.63536077       7.33514306       6.63819181
Si       5.54809760       4.61132722       3.63932606
Si       4.63078627       2.46887519       8.94326317
Si       6.02483816       2.72542611      15.22714271
Si       4.83173539       1.64515545       5.02909369
22
Lattice="5.45222045297802 0.5734976897239745 0.006200748395561073 3.327714725252249 6.12961786041658 0.3849738058345354 1.0288346868937917 1.5009995631099549 16.564397845962134" Properties=species:S:1:pos:R:3 unique_starting_index=40 config_type=initial n_minim_iter=15 stress="0.008079023763851879 0.001350197748948325 0.0035893320744110205 0.001350197748948325 0.004151631822150595 -0.005238948931083462 0.0035893320744110205 -0.005238948931083462 0.007146082826675163" pbc="T T T"
Si       6.56063586       3.69912641      13.11421984
Si       1.65422797       3.56598515       5.34378063
Si       4.87743539       1.43865387       7.17962613
Si       4.36601772       5.01277805      14.39171686
Si       4.06219814       3.38563215      15.74235056
Si       6.80285948       6.27370225       6.61949543
Si       6.32831934       3.02377513       2.23340405
Si       5.82765203       5.67767914      10.31430401
Si       4.76989068       2.84072634       0.42462992
Si       6.14340044       5.88428624      15.35022286
Si       4.98295071       3.65891071      11.25582967
Si       3.83096445       5.62154603      12.20723707
Si       2.57432400       3.26955449       0.71709467
Si       0.90036561       0.39215252       8.61887963
Si       2.68193730       1.79432911      16.29381542
Si       7.56953790       6.08413670       8.93854062
Si       3.74370234       3.45297213       4.39526730
Si       4.65424776       7.36240719       6.68308736
Si       5.55550684       4.63632339       3.65997612
Si       4.65349434       2.50220543       9.00334115
Si       6.05001039       2.74991157      15.31111340
Si       4.83330227       1.66133095       5.07234346
22
Lattice="5.4755989357384145 0.5823993506695438 -0.005898512314483709 3.3527145968342307 6.1143280539473475 0.38953619568463715 0.9967341880975639 1.529707676937095 16.580479478404982" Properties=species:S:1:pos:R:3 unique_starting_index=40 config_type=initial n_minim_iter=16 stress="0.009571016711292284 0.0017372328054709853 0.0014368221740394468 0.0017372328054709853 0.0028543809962762435 0.00462515930803513 0.0014368221740394468 0.00462515930803513 0.005945820978292314" pbc="T T T"
Si       6.57628587       3.70864467      13.11810045
Si       1.65526754       3.55806740       5.35309592
Si       4.87528437       1.47969384       7.18752840
Si       4.32688837       5.04305358      14.39808384
Si       4.05330587       3.41134355      15.73768928
Si       6.84107712       6.28512431       6.63050243
Si       6.36667626       3.02912284       2.22455421
Si       5.85246759       5.68489351      10.29977671
Si       4.79053184       2.84058655       0.42505501
Si       6.13286129       5.90196955      15.38294845
Si       4.98356989       3.69238521      11.27256473
Si       3.84135168       5.59447698      12.21907264
Si       2.58855516       3.26322238       0.70995106
Si       0.87668743       0.39937029       8.61932514
Si       2.67147512       1.84995314      16.29531309
Si       7.59021165       6.09348222       8.93228203
Si       3.75138422       3.44740908       4.37077021
Si       4.65923899       7.35225872       6.70866961
Si       5.57485357       4.63504795       3.66133882
Si       4.66581131       2.53167206       9.01903820
Si       6.04218195       2.78587087      15.32555808
Si       4.84013220       1.67255460       5.07735804
22
Lattice="5.480159658528362 0.5802706712882425 -0.03317786015466986 3.34951479272994 6.128480916862046 0.36257967756564663 0.9177555066433077 1.5071596900191486 16.538154134383596" Properties=species:S:1:pos:R:3 unique_starting_index=40 config_type=initial n_minim_iter=17 stress="0.00427369251933439 0.0027011279003557255 -7.55010988222303e-05 0.0027011279003557255 0.003570007966875883 0.0022190185105871825 -7.55010988222303e-05 0.0022190185105871825 0.002034895088680725" pbc="T T T"
Si       6.52616657       3.67513907      13.05221668
Si       1.62539571       3.55292455       5.32919102
Si       4.83868650       1.48605262       7.15698018
Si       4.22958276       5.04794546      14.33831265
Si       3.99308366       3.40386689      15.66953583
Si       6.81535366       6.29238885       6.57752603
Si       6.36757231       3.02804132       2.17791063
Si       5.81768318       5.67925792      10.21892071
Si       4.78966234       2.83870849       0.40814515
Si       6.05338046       5.89410770      15.32463828
Si       4.93470643       3.69607724      11.22789429
Si       3.79273882       5.55472385      12.15882981
Si       2.57946039       3.26777555       0.68040570
Si       0.83942517       0.37271115       8.59815899
Si       2.59332787       1.83266575      16.24071788
Si       7.55300717       6.09668996       8.85430220
Si       3.73081411       3.43614384       4.31325484
Si       4.61446740       7.35579029       6.67528172
Si       5.55387342       4.63816639       3.62354326
Si       4.63150489       2.53387139       8.99001121
Si       5.97680905       2.77168674      15.26542482
Si       4.81574363       1.66538733       5.04369423
22
Lattice="5.458190508324054 0.5682883664871458 -0.07116101891161848 3.3236508377995384 6.0912006775959675 0.32214231639150626 0.8019680571567426 1.4468673873157398 16.55139702077477" Properties=species:S:1:pos:R:3 unique_starting_index=40 config_type=initial n_minim_iter=18 stress="-0.0001278923563251972 -0.0028406362409748066 -0.004172958346584718 -0.0028406362409748066 -0.0006949582217005916 0.0019060681037768885 -0.004172958346584718 0.0019060681037768885 0.0004551527334601453" pbc="T T T"
Si       6.42504899       3.56134448      13.01609611
Si       1.57288351       3.50406440       5.32102690
Si       4.75497858       1.49166620       7.15053268
Si       4.05193108       5.01200756      14.32663056
Si       3.87820864       3.34260501      15.63271261
Si       6.73714093       6.23734381       6.52863808
Si       6.33874197       2.99374124       2.11978823
Si       5.74758321       5.60656939      10.12973429
Si       4.75700994       2.80657377       0.39096408
Si       5.89303411       5.80886710      15.31824883
Si       4.84416565       3.66804729      11.21967676
Si       3.70808859       5.41053592      12.10960060
Si       2.54887954       3.24717539       0.63811363
Si       0.77708872       0.31543161       8.60317622
Si       2.47501106       1.78631738      16.22898721
Si       7.46121243       6.03295716       8.77716382
Si       3.67939594       3.37647794       4.22876057
Si       4.52999581       7.28610013       6.65786661
Si       5.48624894       4.59283275       3.58169029