22
Lattice="5.475008882138847 -0.14330142367477186 -0.036677187715655424 2.684138488389078 6.33739528644649 0.06795278252987952 0.8611942686869221 0.5393319529285241 15.84024105673942" Properties=species:S:1:pos:R:3 unique_starting_index=40 config_type=initial n_minim_iter=4 energy=-3597.089377451896 free_energy=-3597.089377451896 pbc="T T T"
Si       5.36628058       2.70108020      12.10384784
Si       1.65378123       3.74129010       4.84566461
Si       5.03148520       0.72611531       7.10769356
Si       3.86358819       3.80720287      13.10775860
Si       3.51262599       2.65555440      14.85826652
Si       7.33197933       5.21753276       6.21250033
Si       5.86977277       2.63544362       1.74829233
Si       4.94927181       4.62409542       9.08922385
Si       4.19172397       2.52147984       0.42648476
Si       4.28799583       4.61173168      15.03463752
Si       5.01613910       2.70845501      10.01571921
Si       4.47358696       4.38050381      11.16220068
Si       2.21081831       3.23209909       0.75284024
Si       0.66165349      -0.69358081       8.05138037
Si       1.52668609       2.68495911      15.62068134
Si       6.70770703       5.52444592       8.22808029
Si       3.41361486       2.61227361       4.30913494
Si       3.78409945       6.22802732       6.12829763
Si       5.48077269       2.64820535       3.83986576
Si       5.44506059       0.81026417       9.17026545
Si       5.48693391       3.06310489      14.19481484
Si       5.11874914       0.91020147       4.99984218
