16
Lattice="9.8147338108801 -0.8134409711581455 -0.08861048017206105 1.311536212750685 8.426089748313103 0.6124327922417521 2.4912093131606037 3.1232924363062837 8.416545975582768" Properties=species:S:1:pos:R:3 unique_starting_index=30 config_type=initial n_minim_iter=1 energy=-2619.534119744035 free_energy=-2619.534119744035 pbc="T T T"
Si       8.53046021       5.31788140       5.27376785
Si       5.08701913       5.41805982       3.66660044
Si       3.39583075       4.96921436       2.52010204
Si      10.22164859       5.76672685       6.42026624
Si       8.58509354       4.77075913       7.31948259
Si       5.03238580       5.96518208       1.62088570
Si       5.93139441       4.78034974       0.10979320
Si       7.68608492       5.95559147       8.83057509
Si       3.35675511       6.63399061       3.82137315
Si      10.26072423       4.10195060       5.11899514
Si      11.48468849       4.58920574       3.46152542
Si       2.13279085       6.14673547       5.47884287
Si       3.34431337       4.67352763       4.61985498
Si      10.27316597       6.06241358       4.32051330
Si       5.69796122       7.97029305       1.48948860
Si       7.91951811       2.76564817       7.45087968
16
Lattice="9.815042511368247 -0.8138723279311344 -0.08847752852345411 1.3112040399881393 8.425887125562177 0.6130307967647525 2.491300613348587 3.1236481100463678 8.417290691124443" Properties=species:S:1:pos:R:3 unique_starting_index=30 config_type=initial n_minim_iter=2 stress="0.0001491768533847674 -0.00029348672546817894 -4.486169077873036e-05 -0.00029348672546817894 -6.671454935983129e-05 9.00053911953474e-05 -4.486169077873036e-05 9.00053911953474e-05 0.0004652098297884404" pbc="T T T"
Si       8.53056914       5.31771442       5.27457872
Si       5.08697803       5.41794848       3.66726524
Si       3.39576062       4.96907978       2.52059695
Si      10.22178654       5.76658313       6.42124701
Si       8.58526811       4.77068774       7.32038163
Si       5.03227906       5.96497516       1.62146233
Si       5.93137443       4.77998001       0.11020706
Si       7.68617273       5.95568290       8.83163690
Si       3.35660898       6.63394051       3.82208378
Si      10.26093818       4.10172240       5.11976018
Si      11.48486022       4.58880117       3.46222830
Si       2.13268694       6.14686174       5.47961566
Si       3.34426249       4.67357417       4.62051762
Si      10.27328467       6.06208874       4.32132633
Si       5.69776522       7.96997588       1.49020462
Si       7.91978194       2.76568703       7.45163934
16
Lattice="9.81481986183379 -0.8132499625444337 -0.08767982350458903 1.3117680053315128 8.425875105709274 0.6142080026083784 2.4922236701858855 3.1248799720521467 8.416776380027736" Properties=species:S:1:pos:R:3 unique_starting_index=30 config_type=initial n_minim_iter=3 stress="-0.001157624876684207 -0.0002960944318066314 0.0006303225191876974 -0.0002960944318066314 -0.0008999673155091737 0.0007499184660981372 0.0006303225191876974 0.0007499184660981372 -0.0010443906188254974" pbc="T T T"
Si       8.53132889       5.31880933       5.27533368
Si       5.08748265       5.41869579       3.66797088
Si       3.39628665       4.96930482       2.52104818
Si      10.22252489       5.76820029       6.42225638
Si       8.58610799       4.77190828       7.32082563
Si       5.03270355       5.96559684       1.62247893
Si       5.93173274       4.78027511       0.11135937
Si       7.68707879       5.95723001       8.83194518
Si       3.35727083       6.63454006       3.82272452
Si      10.26154070       4.10296505       5.12058004
Si      11.48527311       4.58987272       3.46340960
Si       2.13353843       6.14763239       5.47989496
Si       3.34474520       4.67433033       4.62096198
Si      10.27406633       6.06317478       4.32234258
Si       5.69819586       7.97052496       1.49162444
Si       7.92061567       2.76698016       7.45168012
16
Lattice="9.815616835204583 -0.8123696970061224 -0.08735134464265681 1.3127135721597316 8.426562205552733 0.6148619259829994 2.4930748834796335 3.1259425730777686 8.416670941701966" Properties=species:S:1:pos:R:3 unique_starting_index=30 config_type=initial n_minim_iter=4 stress="-0.0005718492312393342 0.00018082031017637793 0.00019994273730886066 0.00018082031017637793 -0.00020338014803300094 0.0007486909233883627 0.00019994273730886066 0.0007486909233883627 -0.00041211590632309547" pbc="T T T"
Si       8.53289579       5.32030066       5.27577238
Si       5.08850950       5.41983442       3.66840914
Si       3.39720401       4.96986396       2.52121974
Si      10.22420128       5.77027112       6.42296178
Si       8.58762975       4.77333679       7.32118630
Si       5.03377554       5.96679830       1.62299522
Si       5.93288765       4.78115493       0.11192653
Si       7.68851764       5.95898015       8.83225500
Si       3.35830509       6.63558211       3.82309605
Si      10.26310020       4.10455297       5.12108547
Si      11.48688311       4.59149357       3.46400310
Si       2.13452218       6.14864151       5.48017842
Si       3.34547230       4.67529102       4.62137836
Si      10.27593299       6.06484406       4.32280316
Si       5.69939381       7.97185342       1.49241009
Si       7.92201148       2.76828167       7.45177143
16
Lattice="9.817969259503217 -0.8128076690331597 -0.0847770522786176 1.3127308519718073 8.42568852526818 0.6138327586220046 2.495589291571029 3.1243696576260023 8.414398110583235" Properties=species:S:1:pos:R:3 unique_starting_index=30 config_type=initial n_minim_iter=5 stress="0.00024544343105277326 -0.00029407906389500006 0.001148998371935874 -0.00029407906389500006 -0.000632128600429366 -0.00012422825818774385 0.001148998371935874 -0.00012422825818774385 -0.000752930810648388" pbc="T T T"
Si       8.53625500       5.31859251       5.27546004
Si       5.09003440       5.41865801       3.66799378
Si       3.39857643       4.96811135       2.51998716
Si      10.22771297       5.76913917       6.42346666
Si       8.59128386       4.77073986       7.32076360
Si       5.03500554       5.96651065       1.62269022
Si       5.93456049       4.78051087       0.11271655
Si       7.69172891       5.95673965       8.83073726
Si       3.35953624       6.63445041       3.82158335
Si      10.26675316       4.10280010       5.12187046
Si      11.49031885       4.59004845       3.46511078
Si       2.13597055       6.14720206       5.47834304
Si       3.34662315       4.67408685       4.62074737
Si      10.27966625       6.06316366       4.32270644
Si       5.70023797       7.97123288       1.49242909
Si       7.92605143       2.76601763       7.45102473
16
Lattice="9.816599442467092 -0.8139382970099226 -0.08557784916174951 1.3114213465924918 8.424514454424493 0.6128888784897593 2.494059251918829 3.12306713153009 8.411309567742173" Properties=species:S:1:pos:R:3 unique_starting_index=30 config_type=initial n_minim_iter=6 stress="-0.0012002437988144403 0.0002033729231945842 -0.00018927058793790058 0.0002033729231945842 -0.0011338729020992334 -0.00032493721649780213 -0.00018927058793790058 -0.00032493721649780213 0.00028036406420891955" pbc="T T T"
Si       8.53434659       5.31647694       5.27236550
Si       5.08773345       5.41716635       3.66625510
Si       3.39759981       4.96587300       2.51768403
Si      10.22448023       5.76777029       6.42093657
Si       8.58893258       4.76771226       7.31766473
Si       5.03314747       5.96593103       1.62095586
Si       5.93373863       4.77933517       0.11182378
Si       7.68834141       5.95430812       8.82679682
Si       3.35771296       6.63315371       3.81901364
Si      10.26436708       4.10048958       5.11960696
Si      11.48804430       4.58787724       3.46238422
Si       2.13403574       6.14576605       5.47623638
Si       3.34436808       4.67293301       4.61920433
Si      10.27771196       6.06071028       4.31941627
Si       5.69759614       7.97038364       1.49111265
Si       7.92448390       2.76325965       7.44750795
16
Lattice="9.818035442947869 -0.8156166871914959 -0.08532452697736391 1.3103083843608547 8.42595760171105 0.6129612591193531 2.494119322649489 3.1235737438154345 8.408038022646828" Properties=species:S:1:pos:R:3 unique_starting_index=30 config_type=initial n_minim_iter=7 stress="-0.0008184771338403716 -0.0005502152072133643 -0.00012993401056336787 -0.0005502152072133643 -0.0002997261455140029 -9.595727025217282e-05 -0.00012993401056336787 -9.595727025217282e-05 -0.00048076549884486355" pbc="T T T"
Si       8.53512586       5.31637830       5.27042085
Si       5.08733729       5.41753636       3.66525390
Si       3.39760735       4.96573421       2.51647154
Si      10.22485580       5.76818045       6.41920322
Si       8.58970131       4.76712403       7.31525241
Si       5.03276184       5.96679063       1.62042235
Si       5.93421506       4.77942762       0.11214248
Si       7.68824809       5.95448704       8.82353227
Si       3.35712431       6.63413305       3.81737785
Si      10.26533884       4.09978161       5.11829690
Si      11.48916134       4.58711856       3.46109704
Si       2.13330181       6.14679610       5.47457771
Si       3.34380393       4.67361518       4.61781828
Si      10.27865922       6.06029948       4.31785648
Si       5.69680544       7.97174184       1.49102431
Si       7.92565771       2.76217282       7.44465044
16
Lattice="9.82126769764966 -0.8158300308183093 -0.08292141405957805 1.3106962494082122 8.42580218838391 0.6131858382443289 2.4969089262894064 3.1236878167591065 8.404366072348331" Properties=species:S:1:pos:R:3 unique_starting_index=30 config_type=initial n_minim_iter=8 stress="-0.0010695376933968284 1.2893052106780428e-06 0.0004410979264510781 1.2893052106780428e-06 0.0005869211243101577 0.0005144274199449518 0.0004410979264510781 0.0005144274199449518 0.0007691825771336383" pbc="T T T"
Si       8.53987386       5.31623585       5.26942688
Si       5.08899901       5.41742413       3.66520362
Si       3.39973910       4.96430239       2.51531742
Si      10.22913378       5.76935759       6.41931308
Si       8.59456202       4.76626011       7.31421190
Si       5.03431085       5.96739986       1.62041860
Si       5.93690873       4.77941557       0.11383274
Si       7.69196415       5.95424440       8.82079776
Si       3.35886598       6.63400708       3.81561220
Si      10.27000690       4.09965289       5.11901829
Si      11.49402300       4.58685324       3.46130545
Si       2.13484988       6.14680673       5.47332505
Si       3.34517384       4.67399581       4.61681848
Si      10.28369903       6.05966416       4.31781202
Si       5.69814659       7.97292067       1.49204779
Si       7.93072628       2.76073930       7.44258271
16
Lattice="9.82474358124507 -0.8159907352756302 -0.08330134327578596 1.3108483451013992 8.424019650596755 0.612856442618231 2.497320847534111 3.1229154313347927 8.40111197041147" Properties=species:S:1:pos:R:3 unique_starting_index=30 config_type=initial n_minim_iter=9 stress="-1.2943698276076288e-05 0.00019369255339872864 -0.0001917182946733878 0.00019369255339872864 -0.0009411515657394345 0.00022940579983534885 -0.0001917182946733878 0.00022940579983534885 9.376314004040286e-05" pbc="T T T"
Si       8.54278501       5.31481443       5.26688152
Si       5.09012776       5.41612991       3.66378555
Si       3.40086593       4.96263601       2.51395140
Si      10.23204685       5.76830833       6.41671567
Si       8.59729188       4.76458607       7.31129435
Si       5.03562089       5.96635828       1.61937272
Si       5.93920482       4.77827704       0.11356280
Si       7.69370795       5.95266730       8.81710427
Si       3.35955529       6.63235638       3.81368778
Si      10.27335748       4.09858796       5.11697929
Si      11.49786630       4.58547339       3.45915243
Si       2.13504647       6.14547096       5.47151464
Si       3.34564439       4.67310430       4.61511878
Si      10.28726838       6.05784004       4.31554829
Si       5.69949249       7.97169809       1.49131052
Si       7.93342029       2.75924625       7.43935655
16
Lattice="9.827171860000847 -0.8181270982093382 -0.08228903891590791 1.3094759390588757 8.425177810252537 0.610424985335186 2.497904641948762 3.1207566092459285 8.39647245679969" Properties=species:S:1:pos:R:3 unique_starting_index=30 config_type=initial n_minim_iter=10 stress="-4.418850712823596e-05 0.00019182052628249858 0.0005374651181590588 0.00019182052628249858 0.00024829382671046236 -0.00018193337786621237 0.0005374651181590588 -0.00018193337786621237 0.00020840894626944408" pbc="T T T"
Si       8.54488850       5.31258280       5.26299936
Si       5.08966394       5.41522452       3.66160904
Si       3.40130895       4.96143220       2.51136521
Si      10.23324349       5.76637512       6.41324319
Si       8.59959819       4.76112790       7.30758277
Si       5.03495425       5.96667942       1.61702563
Si       5.94045488       4.77783925       0.11272660
Si       7.69409757       5.94996807       8.81188180
Si       3.35883773       6.63115123       3.80991477
Si      10.27571471       4.09665609       5.11469363
Si      11.49979071       4.58283971       3.45669824
Si       2.13476173       6.14496762       5.46791016
Si       3.34509429       4.67242831       4.61244251
Si      10.28945815       6.05537901       4.31216590
Si       5.69860726       7.97308596       1.48917241
Si       7.93594518       2.75472136       7.43543599
16
Lattice="9.827418581474149 -0.8212541769240929 -0.08443482522492912 1.3067753076308577 8.426459297562895 0.6080688169150498 2.494931874413643 3.1189454468092825 8.390926919552333" Properties=species:S:1:pos:R:3 unique_starting_index=30 config_type=initial n_minim_iter=11 stress="-0.00014807890329898964 0.00026640618487339715 0.0002259498804170065 0.00026640618487339715 0.0005776809506154079 -0.0001617395618042624 0.0002259498804170065 -0.0001617395618042624 0.0005517784533917396" pbc="T T T"
Si       8.54281281       5.30989820       5.25645455
Si       5.08631295       5.41425236       3.65810636
Si       3.39941025       4.96011191       2.50819282
Si      10.22971552       5.76403866       6.40636810
Si       8.59690614       4.75706778       7.30145462
Si       5.03221962       5.96708278       1.61310629
Si       5.93952471       4.77693833       0.11070464
Si       7.68960106       5.94721223       8.80385628
Si       3.35531693       6.63029290       3.80567235
Si      10.27380884       4.09385766       5.10888856
Si      11.49748604       4.57895562       3.45048969
Si       2.13163972       6.14519495       5.46407122
Si       3.34172385       4.67155325       4.60882914
Si      10.28740191       6.05259731       4.30573177
Si       5.69523677       7.97346094       1.48509113
Si       7.93388900       2.75068963       7.42946978
16
Lattice="9.830290854283643 -0.8257991641005807 -0.08873213199845739 1.3030122122419736 8.42713786926247 0.6044059778138561 2.4901834203203363 3.1159563365956746 8.380036820626652" Properties=species:S:1:pos:R:3 unique_starting_index=30 config_type=initial n_minim_iter=12 stress="-0.0002313542153591312 0.00027786513613708074 -2.5172708930600898e-05 0.00027786513613708074 0.0007457492207742747 1.7624182673214645e-05 -2.5172708930600898e-05 1.7624182673214645e-05 0.0005757836030109726" pbc="T T T"
Si       8.54154445       5.30469390       5.24473032
Si       5.08194204       5.41260114       3.65098035
Si       3.39745798       4.95753550       2.50189573
Si      10.22602851       5.75975954       6.39381493
Si       8.59485805       4.75100570       7.28880880
Si       5.02862843       5.96628934       1.60690186
Si       5.93943653       4.77493673       0.10764967
Si       7.68404996       5.94235831       8.78806099
Si       3.35075818       6.62812575       3.79807740
Si      10.27272831       4.08916929       5.09763327
Si      11.49647322       4.57250648       3.43874064
Si       2.12701327       6.14478856       5.45697003
Si       3.33697496       4.66942302       4.60256712
Si      10.28651153       6.04787202       4.29314355
Si       5.69109578       7.97269852       1.47833201
Si       7.93239071       2.74459653       7.41737865
16
Lattice="9.83668126531993 -0.8302850887297459 -0.09308511002008735 1.2998309820562317 8.428381860080702 0.602697533868402 2.4864831792170548 3.115034548632485 8.370568203123353" Properties=species:S:1:pos:R:3 unique_starting_index=30 config_type=initial n_minim_iter=13 stress="0.0007041096830511695 -7.035203956623117e-05 -0.0009138599855982884 -7.035203956623117e-05 0.0006537079666439849 0.0004173963127298169 -0.0009138599855982884 0.0004173963127298169 -1.6421765123868194e-05" pbc="T T T"
Si       8.54371255       5.30119703       5.23426183
Si       5.07928288       5.41193429       3.64591880
Si       3.39614152       4.95563216       2.49678925
Si      10.22685390       5.75749916       6.38339138
Si       8.59604510       4.74711527       7.27797538
Si       5.02695033       5.96601605       1.60220525
Si       5.94136304       4.77319106       0.10590669
Si       7.68163238       5.93994026       8.77427394
Si       3.34767706       6.62723214       3.79265120
Si      10.27531837       4.08589918       5.08752943
Si      11.50001404       4.56756652       3.42934876
Si       2.12298139       6.14556480       5.45083187
Si       3.33413012       4.66923045       4.59758903
Si      10.28886530       6.04390087       4.28259159
Si       5.68910206       7.97254910       1.47365388
Si       7.93389337       2.74058222       7.40652674
16
Lattice="9.844875144954678 -0.8354347963041117 -0.09596501657738855 1.2963543895157539 8.429200514327729 0.5984240020073054 2.4840367785631443 3.111281680291821 8.358743473822551" Properties=species:S:1:pos:R:3 unique_starting_index=30 config_type=initial n_minim_iter=14 stress="0.0006518337674025482 -0.0002184458435527239 -0.0009020298510135279 -0.0002184458435527239 0.00032259405165995046 0.000445004158648329 -0.0009020298510135279 0.000445004158648329 0.0001104472667098787" pbc="T T T"
Si       8.54826651       5.29503935       5.22137260
Si       5.07699981       5.41000805       3.63982986
Si       3.39455899       4.95267627       2.48982316
Si      10.23070732       5.75237113       6.37137929
Si       8.60048900       4.73989010       7.26469503
Si       5.02477731       5.96515730       1.59650743
Si       5.94424484       4.77042793       0.10388347
Si       7.68102147       5.93461947       8.75731899
Si       3.34529582       6.62468284       3.78438816
Si      10.27997050       4.08036456       5.07681430
Si      11.50629464       4.56022861       3.41874083
Si       2.11897167       6.14481879       5.44246163
Si       3.33180730       4.66771796       4.59147975
Si      10.29345902       6.03732944       4.26972271
Si       5.68755872       7.97120459       1.46601951
Si       7.93770759       2.73384281       7.39518295
16
Lattice="9.869233825970166 -0.849348226606596 -0.10045618018571793 1.2876223787813112 8.433549797914104 0.5848681517572061 2.4806638126238783 3.1001450379677378 8.31955467724807" Properties=species:S:1:pos:R:3 unique_starting_index=30 config_type=initial n_minim_iter=15 stress="0.00037327133020461837 -0.0009047110957456625 -0.0004433089557238928 -0.0009047110957456625 -0.0006885968222479542 0.0006250534121837036 -0.0004433089557238928 0.0006250534121837036 0.0006777155130674074" pbc="T T T"
Si       8.56442691       5.27878054       5.18172322
Si       5.07309311       5.40556607       3.62224343
Si       3.39017392       4.94552267       2.46890661
Si      10.24734610       5.73882394       6.33506004
Si       8.61881399       4.72031829       7.22404605
Si       5.01870602       5.96402831       1.57992060
Si       5.95337939       4.76437917       0.10120949
Si       7.68414063       5.91996744       8.70275716
Si       3.33941360       6.61931022       3.75850411
Si      10.29810641       4.06503639       5.04546254
Si      11.52772950       4.53894613       3.38842608
Si       2.10979052       6.14540048       5.41554057
Si       3.32627677       4.66515798       4.57179896
Si      10.31124324       6.01918863       4.23216769
Si       5.68275226       7.96901230       1.44594641
Si       7.95476776       2.71533431       7.35802024
16
Lattice="9.877437563665099 -0.8529416161746712 -0.10764768488547398 1.2851919862035563 8.434089398884375 0.5806976235594076 2.47506551738314 3.097639824915058 8.301562155464232" Properties=species:S:1:pos:R:3 unique_starting_index=30 config_type=initial n_minim_iter=16 stress="-0.00025198046572830803 -0.00015403576437689965 -0.000202729122531807 -0.00015403576437689965 -0.0004972095061089341 0.00017462880829363582 -0.000202729122531807 0.00017462880829363582 0.00010806629789608691" pbc="T T T"
Si       8.56801400       5.27382294       5.16046559
Si       5.06968107       5.40496466       3.61414650
Si       3.38781005       4.94354311       2.46060046
Si      10.24988502       5.73524449       6.31401164
Si       8.62221332       4.71530752       7.20300742
Si       5.01548175       5.96348009       1.57160467
Si       5.95697457       4.76314901       0.09804854
Si       7.68072049       5.91563860       8.67656355
Si       3.33672044       6.61902457       3.74707769
Si      10.30097463       4.05976304       5.02753440
Si      11.53131117       4.53303540       3.37081172
Si       2.10638390       6.14575221       5.40380037
Si       3.32242498       4.66525465       4.56247518
Si      10.31527008       6.01353296       4.21213691
Si       5.68140672       7.96772077       1.43649551
Si       7.95628835       2.71106684       7.33811658
16
Lattice="9.88401273700257 -0.8563933542866092 -0.11487732872266207 1.2824452978886516 8.431892000918616 0.5775172661909764 2.469074587116506 3.0947584167674327 8.287949248994124" Properties=species:S:1:pos:R:3 unique_starting_index=30 config_type=initial n_minim_iter=17 stress="0.00017499127608784848 3.340519263335839e-05 0.00017869371213935782 3.340519263335839e-05 -0.0001512273501351729 -0.00020478984536121008 0.00017869371213935782 -0.00020478984536121008 -0.00037888461881954786" pbc="T T T"
Si       8.56905379       5.26775692       5.14285905
Si       5.06647884       5.40250014       3.60773014
Si       3.38512822       4.94027021       2.45352659
Si      10.25040440       5.72998686       6.29706260
Si       8.62356999       4.70986394       7.18624846
Si       5.01196264       5.96039313       1.56434072
Si       5.95938195       4.76054139       0.09502986
Si       7.67615067       5.90971567       8.65555932
Si       3.33289947       6.61671616       3.73829980
Si      10.30263315       4.05354091       5.01228938
Si      11.53329405       4.52607169       3.35569668
Si       2.10223857       6.14418538       5.39489251
Si       3.31770802       4.66421554       4.55577625
Si      10.31782460       6.00604152       4.19481294
Si       5.67988948       7.96439527       1.42807325
Si       7.95564314       2.70586179       7.32251594
16
Lattice="9.889384163149296 -0.8691710383585423 -0.1320159361980628 1.2707658383834488 8.428560478021955 0.5684500454072343 2.4506689364095284 3.0863957783535314 8.253313677235816" Properties=species:S:1:pos:R:3 unique_starting_index=30 config_type=initial n_minim_iter=18 stress="-0.0002317145135449281 0.000622415106958852 0.00012661185107702423 0.000622415106958852 0.0007291752956438063 -0.0004253756528059797 0.00012661185107702423 -0.0004253756528059797 -0.0004959616895450167" pbc="T T T"
Si       8.56061230       5.24981129       5.10054245
Si       5.05020664       5.39597393       3.58920534
Si       3.37151099       4.93097621       2.43561725
Si      10.23930795       5.71480901       6.25413054
Si       8.61318653       4.69234892       7.14340889
Si       4.99763241       5.95343630       1.54633890
Si       5.95740095       4.75292978       0.08568759
Si       7.65341799       5.89285544       8.60406020
Si       3.31668551       6.61045911       3.71501536
Si      10.29413343       4.03532611       4.97473243
Si      11.52414885       4.50586050       3.31701139
Si       2.08667009       6.13992472       5.37273639
Si       3.30213312       4.66018435       4.53876811
Si      10.30868581       5.98560087       4.15097968
Si       5.66640475       7.95736776       1.40789594
Si       7.94441419       2.68841746       7.28185185
16
Lattice="9.897344825254681 -0.8775558981170488 -0.13995823610087846 1.263683954032925 8.42357058510212 0.564242672788769 2.4425713241204265 3.081165278405365 8.230542325712888" Properties=species:S:1:pos:R:3 unique_starting_index=30 config_type=initial n_minim_iter=19 stress="9.753079138543202e-05 0.00014446884228425138 -0.00036817028602951287 0.00014446884228425138 8.916584673369353e-05 4.6002884154366695e-05 -0.00036817028602951287 4.6002884154366695e-05 1.79759041083114e-05" pbc="T T T"
Si       8.55977023       5.23564140       5.07489886
Si       5.04382987       5.39153857       3.57992790
Si       3.36546210       4.92288230       2.42519473
Si      10.23813800       5.70429767       6.22963203
Si       8.61325085       4.67983335       7.11842653
Si       4.99034925       5.94734662       1.53640024
Si       5.95935703       4.74590671       0.08154896
Si       7.64424307       5.88127326       8.57327780
Si       3.30933701       6.60489491       3.70126900
Si      10.29426310       4.02228505       4.95355776
Si      11.52516704       4.49124567       3.29600715
Si       2.07843307       6.13593430       5.35881961
Si       3.29435472       4.65598446       4.52839081
Si      10.30924538       5.97119551       4.12643595
Si       5.66064445       7.95042260       1.39833932
Si       7.94295566       2.67675737       7.25648744
16
Lattice="9.895849123232866 -0.8802968246381103 -0.14385926738450452 1.2604996226669978 8.418950624287891 0.5636872124873741 2.4377581555595356 3.078999514682576 8.226499731243424" Properties=species:S:1:pos:R:3 unique_starting_index=30 config_type=initial n_minim_iter=20 stress="-8.108290765152618e-05 -0.0001336187649731571 9.05737370718535e-05 -0.0001336187649731571 -0.0007879963236078936 -4.057069158725177e-06 9.05737370718535e-05 -4.057069158725177e-06 -0.00013736650023101821" pbc="T T T"
Si       8.55371678       5.22833659       5.06814515
Si       5.04039013       5.38931672       3.57818253
Si       3.36152103       4.91916054       2.42288662
Si      10.23258587       5.69849277       6.22344106
Si       8.60700796       4.67553615       7.11255366
Si       4.98709894       5.94211716       1.53377402
Si       5.95694691       4.74226981       0.07870594
Si       7.63715999       5.87538350       8.56762173
Si       3.30505928       6.60164680       3.69893978
Si      10.28904762       4.01600651       4.94738790
Si      11.52020399       4.48456160       3.28987924
Si       2.07390291       6.13309171       5.35644843
Si       3.29117590       4.65292092       4.52645465
Si      10.30293100       5.96473239       4.11987303
Si       5.65799631       7.94481377       1.39650768
Si       7.93611059       2.67283955       7.24981999
16
Lattice="9.900564516839264 -0.8950030995637107 -0.16122414916728084 1.2468344887767469 8.413390799543066 0.549803341984654 2.417880995429318 3.064650135713721 8.191747948324068" Properties=species:S:1:pos:R:3 unique_starting_index=30 config_type=initial n_minim_iter=21 stress="0.00048366897722429967 -0.0006920486851977056 7.186642941809637e-05 -0.0006920486851977056 -0.0003297299459581601 0.00027789774979468607 7.186642941809637e-05 0.00027789774979468607 -0.00031881108143941484" pbc="T T T"
Si       8.53866127       5.19861322       5.02173690
Si       5.02661873       5.38442462       3.55859024
Si       3.34863004       4.90687972       2.40085765
Si      10.21664996       5.67615812       6.17946950
Si       8.59078894       4.65331171       7.06805322
Si       4.97449106       5.92972612       1.51227392
Si       5.95316365       4.73248296       0.06112623
Si       7.61211635       5.85055487       8.51920091
Si       3.28742602       6.59258926       3.67493571
Si      10.27785398       3.99044858       4.90539143
Si      11.51118869       4.45627142       3.24891148
Si       2.05409131       6.12676642       5.33141566
Si       3.27799343       4.64499648       4.50542530
Si      10.28728657       5.93804135       4.07490185
Si       5.64879844       7.93132549       1.37501909
Si       7.91648156       2.65171235       7.20530805
