22
Lattice="5.4728335262899535 -0.15759283879106223 -0.029009748031442097 2.665255772442407 6.285131650514117 0.0851756437144845 0.8832464889266289 0.5620711059685025 16.036245020968746" Properties=species:S:1:pos:R:3 unique_starting_index=40 config_type=initial n_minim_iter=1 energy=-3596.2118783856313 free_energy=-3596.2118783856313 pbc="T T T"
Si       5.39383245       2.60295923      12.29633853
Si       1.43840135       3.77037336       4.91542163
Si       5.15966185       0.74893194       7.24661196
Si       3.86616194       3.68566071      13.26609018
Si       3.45532077       2.58851163      15.03681645
Si       7.26487550       5.29410492       6.23267142
Si       5.77740704       2.58651979       1.73298108
Si       5.04515091       4.59161402       9.24114613
Si       4.11489896       2.44743200       0.41335828
Si       4.25749610       4.53585931      15.16804762
Si       5.11542647       2.69805631      10.19861521
Si       4.56493265       4.31730437      11.35913101
Si       2.13694061       3.17932373       0.74437454
Si       0.78051259      -0.67354625       8.16587528
Si       1.48353357       2.59885955      15.83305695
Si       6.80507830       5.52616700       8.41078693
Si       3.23710147       2.62590157       4.33353729
Si       3.81060401       6.15016264       6.22375297
Si       5.28747607       2.76153971       3.79159371
Si       5.57897134       0.81413053       9.31697747
Si       5.45012471       2.92196905      14.39034508
Si       5.40164660       1.16670913       5.17939211
22
Lattice="5.452349969233157 -0.16345967071633816 -0.026259778688778358 2.6481542351972074 6.271508701570493 0.07781646599758421 0.8864284084220271 0.5391067609201587 15.978456046109319" Properties=species:S:1:pos:R:3 unique_starting_index=40 config_type=initial n_minim_iter=2 stress="-0.03131581595824959 0.006893489444030671 0.0007838331124589414 0.006893489444030671 -0.011755454238760123 0.00654877942216479 0.0007838331124589414 0.00654877942216479 -0.018699345430744946" pbc="T T T"
Si       5.37609227       2.57633245      12.25107593
Si       1.43065834       3.75569457       4.89321380
Si       5.14233130       0.73171999       7.22130640
Si       3.85327129       3.65786972      13.21516929
Si       3.44612034       2.56083391      14.98167327
Si       7.23532310       5.27001760       6.20755867
Si       5.75364935       2.57349538       1.72609799
Si       5.02491713       4.56617832       9.20424778
Si       4.09641366       2.43823483       0.41031331
Si       4.24319417       4.50346223      15.10990661
Si       5.09768988       2.67411362      10.16073471
Si       4.54778479       4.29014624      11.31496507
Si       2.12576993       3.17013428       0.73786770
Si       0.78173633      -0.68387058       8.13753881
Si       1.48206556       2.57224029      15.77367462
Si       6.77710107       5.49808135       8.37616930
Si       3.22411599       2.61217956       4.31596258
Si       3.79159864       6.12677073       6.19568563
Si       5.26624751       2.74616314       3.77696548
Si       5.56117572       0.79435949       9.28502205
Si       5.43260429       2.89219797      14.33757595
Si       5.38201141       1.15210140       5.16162150
22
Lattice="5.462213918760077 -0.17706471325867476 -0.02397100197491777 2.637159319074185 6.267088736437305 0.06222847537293929 0.8920236524250504 0.49512210204005985 15.97103869674534" Properties=species:S:1:pos:R:3 unique_starting_index=40 config_type=initial n_minim_iter=3 stress="-0.0109362483734589 -0.009484055598104073 0.004456824767654049 -0.009484055598104073 -0.0004985471944138507 -0.016420267387762914 0.004456824767654049 -0.016420267387762914 -0.011988854037745033" pbc="T T T"
Si       5.38340529       2.53141558      12.24079248
Si       1.42498614       3.73996220       4.88127149
Si       5.15110707       0.69938895       7.21722298
Si       3.85503752       3.61529420      13.20082705
Si       3.45076104       2.51407696      14.97139845
Si       7.23896891       5.23982823       6.19588032
Si       5.75833491       2.55577234       1.72111740
Si       5.02491761       4.53133764       9.19032428
Si       4.09669166       2.42795670       0.40477723
Si       4.24476728       4.45475369      15.09430032
Si       5.10343247       2.63488343      10.15109948
Si       4.54854295       4.25115307      11.30093454
Si       2.12226347       3.16330414       0.72870798
Si       0.78773969      -0.70750223       8.13589383
Si       1.48331780       2.52821766      15.76150380
Si       6.77772734       5.46088367       8.35995997
Si       3.22490218       2.59377119       4.30850190
Si       3.78457466       6.10174471       6.17935760
Si       5.27038410       2.72461699       3.77056447
Si       5.57202117       0.75670992       9.28126462
Si       5.43968156       2.84255019      14.32645627
Si       5.38956545       1.12615981       5.15789708
22
Lattice="5.474421266294659 -0.17831378295459346 -0.03058557074919702 2.6413160194916165 6.255732024021701 0.07660054443536012 0.8757409438655167 0.5382241860930362 15.974061184965295" Properties=species:S:1:pos:R:3 unique_starting_index=40 config_type=initial n_minim_iter=4 stress="0.003651564872677864 -0.008422230700297389 -0.005231684641246137 -0.008422230700297389 -0.013680564554586903 -0.0008028764682698413 -0.005231684641246137 -0.0008028764682698413 -0.021205084970538128" pbc="T T T"
Si       5.38139456       2.55901795      12.24166569
Si       1.42060329       3.74430661       4.88898208
Si       5.15300802       0.71474878       7.21310767
Si       3.84667790       3.64540845      13.20620493
Si       3.44045755       2.55058661      14.97959180
Si       7.25235250       5.25107074       6.20956644
Si       5.77018783       2.55522946       1.72358889
Si       5.02225534       4.54763176       9.19877186
Si       4.10174166       2.42465352       0.40570701
Si       4.23729149       4.48683596      15.10745289
Si       5.10288641       2.65506565      10.15273776
Si       4.54403245       4.27493694      11.31029104
Si       2.12748305       3.15733990       0.73184987
Si       0.78007945      -0.68332678       8.13253834
Si       1.46603732       2.56739243      15.76964739
Si       6.78158093       5.47141555       8.36591330
Si       3.22752931       2.60025663       4.31273858
Si       3.78288462       6.10333960       6.19487484
Si       5.27832957       2.72957780       3.77503800
Si       5.57378918       0.78067775       9.27903475
Si       5.43525473       2.87747338      14.33198771
Si       5.39416300       1.13852596       5.15427040
22
Lattice="5.466655921966186 -0.17351377254429493 -0.026658196373506835 2.643426919283525 6.265641495426309 0.08295551950713474 0.8870602955872566 0.5502444621375173 16.016634679511014" Properties=species:S:1:pos:R:3 unique_starting_index=40 config_type=initial n_minim_iter=5 stress="-0.009105747272378086 -0.005997303951687211 -0.0009413849671169483 -0.005997303951687211 -0.0070808473676414714 -0.00022594230516691672 -0.0009413849671169483 -0.00022594230516691672 0.0005245266439395218" pbc="T T T"
Si       5.38588442       2.57479245      12.27792830
Si       1.42525057       3.75191882       4.90421965
Si       5.15131349       0.72427444       7.23533475
Si       3.85393585       3.66247959      13.24446304
Si       3.44898391       2.56680199      15.02427836
Si       7.25462444       5.27072541       6.23866736
Si       5.76690632       2.56518783       1.73491650
Si       5.02491151       4.56405794       9.22935868
Si       4.09735650       2.43184482       0.41113197
Si       4.24774429       4.50581765      15.15472255
Si       5.10608983       2.66815661      10.18382654
Si       4.54977506       4.29248204      11.34628819
Si       2.12917097       3.16229528       0.73548320
Si       0.78362147      -0.67779323       8.15342012
Si       1.47704895       2.58248229      15.81369049
Si       6.78387136       5.48868622       8.39440544
Si       3.22968217       2.60911888       4.32801103
Si       3.78753543       6.11626552       6.21852541
Si       5.27668717       2.74072083       3.79191537
Si       5.57392095       0.79342951       9.30801402
Si       5.44107050       2.89651851      14.37620592
Si       5.39102146       1.14886494       5.17172505
22
Lattice="5.473748109255673 -0.15543926260628096 -0.019964952896939083 2.6685799640105574 6.2941894797049285 0.08592692322023375 0.90961275252623 0.5548437665964532 15.980206348687213" Properties=species:S:1:pos:R:3 unique_starting_index=40 config_type=initial n_minim_iter=6 stress="-0.0003219721310269111 0.0014938374132296881 0.004551862625800998 0.0014938374132296881 -0.0026956555589170666 -0.0011148153041428944 0.004551862625800998 -0.0011148153041428944 -0.008300405855116948" pbc="T T T"
Si       5.41771902       2.60073437      12.25425625
Si       1.44557109       3.76664130       4.89322565
Si       5.16907883       0.74435229       7.22329701
Si       3.88675396       3.68736850      13.21745635
Si       3.48036248       2.58675589      14.99431292
Si       7.29266246       5.31390590       6.23866850
Si       5.78701653       2.59365518       1.73878011
Si       5.05633208       4.59567608       9.21360440
Si       4.11238631       2.45286341       0.41575666
Si       4.28850721       4.53417306      15.12598300
Si       5.13492039       2.69179326      10.16464471
Si       4.58406241       4.32248446      11.32539968
Si       2.14428310       3.17764855       0.73358973
Si       0.79121073      -0.67717112       8.13612732
Si       1.50531806       2.59612426      15.77918673
Si       6.82237528       5.52705355       8.37955794
Si       3.24998790       2.62809216       4.32155863
Si       3.82207596       6.14690749       6.20808365
Si       5.29844147       2.76824661       3.79043255
Si       5.59612957       0.81517648       9.29257382
Si       5.47544012       2.92586572      14.34977011
Si       5.40851041       1.17061125       5.16616279
22
Lattice="5.472524469556075 -0.14800313532683373 -0.032501901686762875 2.676929397031369 6.315744780422883 0.08214241828821335 0.8736168911141141 0.5637674703837001 15.964386040201335" Properties=species:S:1:pos:R:3 unique_starting_index=40 config_type=initial n_minim_iter=7 stress="-0.0010562972015967403 0.0035068664250567224 -0.008162245560159804 0.0035068664250567224 0.00481468776844371 -0.002508852973994744 -0.008162245560159804 -0.002508852973994744 -0.003766466296693909" pbc="T T T"
Si       5.39327259       2.62017156      12.23019151
Si       1.43840229       3.77851338       4.88526107
Si       5.15117688       0.75843951       7.20462784
Si       3.85905747       3.70878433      13.19901147
Si       3.44950219       2.60556170      14.97479396
Si       7.28656232       5.34323431       6.22696092
Si       5.78704386       2.61128686       1.72531187
Si       5.03795570       4.61898175       9.19592960
Si       4.11652046       2.46414327       0.40885740
Si       4.26076678       4.55884127      15.10606261
Si       5.11468807       2.70885606      10.14225413
Si       4.56292447       4.34725615      11.30641869
Si       2.14475780       3.18730783       0.72574660
Si       0.76950145      -0.67483416       8.12934534
Si       1.47142754       2.61309432      15.76452474
Si       6.80945759       5.55272109       8.35358327
Si       3.24588375       2.64150605       4.31103046
Si       3.81858091       6.17108566       6.19390531
Si       5.29360399       2.78717971       3.77824254
Si       5.57544110       0.82914505       9.27110095
Si       5.44401617       2.95032225      14.32637846
Si       5.39738293       1.18268907       5.14985293
22
Lattice="5.479365014608675 -0.14841077067276295 -0.020260400299329177 2.680115633894968 6.316230739704144 0.10450462881759122 0.9117237153610075 0.6052011388094108 15.961013824304718" Properties=species:S:1:pos:R:3 unique_starting_index=40 config_type=initial n_minim_iter=8 stress="0.00847494918719136 -0.002213662116040375 -0.0002986476811305181 -0.002213662116040375 0.0036463061249315492 0.005434657620536647 -0.0002986476811305181 0.005434657620536647 0.0010586693170845398" pbc="T T T"
Si       5.42973939       2.65154397      12.24118609
Si       1.45030918       3.78774886       4.89407190
Si       5.17217029       0.77988421       7.21502508
Si       3.89089424       3.74365413      13.21339621
Si       3.48937054       2.64655701      14.98285003
Si       7.31242794       5.36038161       6.26823217
Si       5.80107745       2.61808512       1.74516394
Si       5.06193606       4.64111137       9.21649076
Si       4.12651074       2.46197259       0.42828611
Si       4.30247635       4.59761409      15.12273998
Si       5.14466210       2.73329929      10.15137725
Si       4.59390001       4.37919045      11.32255877
Si       2.14454146       3.18514300       0.73351916
Si       0.78622883      -0.65301365       8.12926160
Si       1.50941489       2.65651054      15.77039339
Si       6.83545674       5.57012082       8.37085107
Si       3.26441039       2.65210008       4.32293357
Si       3.84150937       6.18639247       6.21242823
Si       5.30954210       2.80011972       3.79904169
Si       5.60474215       0.85278458       9.28045662
Si       5.48026960       2.99230185      14.34076103
Si       5.41635892       1.19394347       5.16316397
22
Lattice="5.481021242994831 -0.14052926361787382 -0.019226319461214118 2.6897464400983533 6.30844389340373 0.1009296262622247 0.9155994353935106 0.5949275297759263 15.973237948376005" Properties=species:S:1:pos:R:3 unique_starting_index=40 config_type=initial n_minim_iter=9 stress="0.010590160463234093 0.004267952400026831 -0.000901674437730462 0.004267952400026831 -0.007629667099072174 0.00242103173977869 -0.000901674437730462 0.00242103173977869 0.004591068150097296" pbc="T T T"
Si       5.43711678       2.64711189      12.24983270
Si       1.45691595       3.77879027       4.89547704
Si       5.17659979       0.78250646       7.22169070
Si       3.89898328       3.73387054      13.22215262
Si       3.49712674       2.63746981      14.99426225
Si       7.32474410       5.35582574       6.27641182
Si       5.80774750       2.62140497       1.74635077
Si       5.07099682       4.63301658       9.22191514
Si       4.13151966       2.46163184       0.42970201
Si       4.31317033       4.58461354      15.13248112
Si       5.15184666       2.72824411      10.15600650
Si       4.60333305       4.37098900      11.32854561
Si       2.14850684       3.18038677       0.73047632
Si       0.78625066      -0.65478916       8.13658248
Si       1.51707149       2.64429307      15.78148239
Si       6.84441064       5.56184221       8.37072988
Si       3.27130143       2.64855443       4.32515163
Si       3.85259650       6.17636886       6.21337898
Si       5.31655555       2.80139066       3.80194058
Si       5.60961737       0.85261571       9.28725997
Si       5.48783823       2.98716615      14.35039499
Si       5.42110890       1.19474622       5.16718265
22
Lattice="5.477239865746165 -0.138299520008204 -0.0169582883109066 2.69101667474171 6.325270362704075 0.10682337174737531 0.922237805665748 0.6089064439245953 15.967847660333254" Properties=species:S:1:pos:R:3 unique_starting_index=40 config_type=initial n_minim_iter=10 stress="0.007055514246179389 0.0033773254852714307 0.001945003246833207 0.0033773254852714307 -0.00019957224352146183 0.00031676462789481864 0.001945003246833207 0.00031676462789481864 0.002731853999147588" pbc="T T T"
Si       5.43939540       2.66769084      12.25006949
Si       1.46072043       3.79122460       4.89753180
Si       5.17796098       0.79717243       7.22388049
Si       3.90276040       3.75566544      13.22177941
Si       3.50351479       2.65784512      14.99388669
Si       7.32856355       5.37354154       6.29263677
Si       5.80701131       2.63455933       1.75165980
Si       5.07336633       4.65282446       9.22446466
Si       4.12912215       2.46703397       0.43779878
Si       4.31924777       4.60809049      15.13215646
Si       5.15373666       2.74397501      10.15150487
Si       4.60698534       4.39387835      11.32767889
Si       2.14677480       3.18723241       0.73005239
Si       0.78792596      -0.64745770       8.13226907
Si       1.52603312       2.66494436      15.77705007
Si       6.84010920       5.58013101       8.36491878
Si       3.27483909       2.65867879       4.32704652
Si       3.85455876       6.19726057       6.21820522
Si       5.31768314       2.81673323       3.80597354
Si       5.61041308       0.86356641       9.28487259
Si       5.49125772       3.01179918      14.34771959
Si       5.42095567       1.20175876       5.16753493
22
Lattice="5.4774864207883835 -0.14175829511875282 -0.017473945812075904 2.6871279160530395 6.324225708135866 0.10709042961225973 0.9204115317519582 0.6097868940904564 15.963086259703385" Properties=species:S:1:pos:R:3 unique_starting_index=40 config_type=initial n_minim_iter=11 stress="0.004221055534668901 0.0020019052518130747 0.001928855838715331 0.0020019052518130747 -0.001709491223577201 -0.0007515739623656882 0.001928855838715331 -0.0007515739623656882 -0.005336571454861326" pbc="T T T"
Si       5.43573523       2.66784364      12.24511347
Si       1.45977460       3.79148710       4.89811102
Si       5.17707732       0.79660861       7.22403731
Si       3.89869283       3.75598032      13.21748616
Si       3.50234037       2.65824815      14.99123398
Si       7.32581335       5.36494615       6.29766319
Si       5.80510778       2.63330615       1.75233168
Si       5.06968629       4.65167687       9.22101304
Si       4.12597071       2.46293360       0.44039427
Si       4.31445502       4.60486563      15.12806514
Si       5.15100654       2.74025928      10.14699611
Si       4.60312769       4.39268870      11.32291356
Si       2.14526893       3.18576652       0.72794789
Si       0.78463276      -0.64671602       8.13075998
Si       1.52164812       2.66631735      15.77005323
Si       6.83525268       5.57596538       8.35403453
Si       3.27442300       2.65597767       4.32598341
Si       3.85073481       6.19632769       6.21736134
Si       5.31685633       2.81637228       3.80432110
Si       5.60868070       0.86033296       9.28049864
Si       5.49018047       3.01205369      14.34260663
Si       5.41979031       1.19734695       5.16452818
22
Lattice="5.472411574446135 -0.1503971916267368 -0.018003039239717227 2.674385824217075 6.312151053949007 0.10829564121227227 0.9172711300336063 0.6111246659968897 15.977735373162577" Properties=species:S:1:pos:R:3 unique_starting_index=40 config_type=initial n_minim_iter=12 stress="-0.002819582845960044 -0.0012660869902560016 -0.00028469552810034943 -0.0012660869902560016 0.0013855995439462808 -0.0020441264508549097 -0.00028469552810034943 -0.0020441264508549097 1.9087928953631563e-05" pbc="T T T"
Si       5.42305443       2.66224352      12.25452608
Si       1.45592945       3.78791878       4.90786305
Si       5.17124237       0.79176921       7.23016510
Si       3.88793528       3.74982737      13.22963210
Si       3.49572687       2.65308286      15.00707349
Si       7.31336585       5.33878497       6.30385451
Si       5.79362367       2.62378731       1.75462987
Si       5.05636138       4.64237258       9.22750946
Si       4.11781771       2.45112911       0.44375793
Si       4.30084335       4.59286634      15.14319249
Si       5.14025250       2.72916723      10.15722479
Si       4.59009334       4.38170680      11.33212237
Si       2.13909251       3.17947232       0.72768745
Si       0.78421201      -0.64854380       8.14063637
Si       1.51134145       2.66476394      15.78150201
Si       6.81430659       5.55975925       8.36011889
Si       3.26850749       2.64599552       4.33070065
Si       3.83493141       6.18563873       6.22745134
Si       5.30825458       2.80749862       3.80755904
Si       5.59920581       0.85233348       9.28810882
Si       5.48206145       3.00487258      14.35405760
Si       5.41144381       1.18679350       5.16745160
22
Lattice="5.472292374661275 -0.15557851586042942 -0.019458450353661755 2.6682058102749466 6.3071449912385305 0.10738906884999924 0.9124202545243886 0.60952392396321 15.979842114174204" Properties=species:S:1:pos:R:3 unique_starting_index=40 config_type=initial n_minim_iter=13 stress="-0.003743421645847295 -0.0019355286965552915 -0.0010291604818820927 -0.0019355286965552915 0.005271050610890236 0.00012297153339537763 -0.0010291604818820927 0.00012297153339537763 0.002481858269539789" pbc="T T T"
Si       5.41577892       2.65761233      12.25465154
Si       1.45357497       3.78664877       4.91150682
Si       5.17063076       0.78598180       7.22967347
Si       3.88105356       3.74562098      13.23009969
Si       3.48983285       2.64739460      15.00980677
Si       7.30755857       5.32183017       6.30098560
Si       5.78944775       2.61921363       1.75292580
Si       5.04939416       4.63645368       9.22619284
Si       4.11448836       2.44487670       0.44382982
Si       4.29208608       4.58526638      15.14492724
Si       5.13389206       2.72286688      10.15803576
Si       4.58164906       4.37548294      11.33038452
Si       2.13610543       3.17714546       0.72664788
Si       0.77865122      -0.64975876       8.14124262
Si       1.50446530       2.66194887      15.78165831
Si       6.80510219       5.55088050       8.35962519
Si       3.26602675       2.63963451       4.33076623
Si       3.82794766       6.18107650       6.23174492
Si       5.30630003       2.80275366       3.80778345
Si       5.59384228       0.84599101       9.28765781
Si       5.47643773       2.99973111      14.35173444
Si       5.40752441       1.18094305       5.16432617
22
Lattice="5.4728380106529615 -0.16220233544317278 -0.021334176647457664 2.660686212001498 6.302141672505972 0.10642603022241237 0.9062795576824906 0.6082031109525751 15.977148953418984" Properties=species:S:1:pos:R:3 unique_starting_index=40 config_type=initial n_minim_iter=14 stress="-0.004649020649909118 -0.0017912598715863004 -0.0010561133039026763 -0.0017912598715863004 0.001401642296243074 -0.0005938578086037725 -0.0010561133039026763 -0.0005938578086037725 0.0012780599873397347" pbc="T T T"
Si       5.40699456       2.65258677      12.25318350
Si       1.45246337       3.78697963       4.91689373
Si       5.16959470       0.77264578       7.22309384
Si       3.87346918       3.74156949      13.22654270
Si       3.48271494       2.63797635      15.00551782
Si       7.30189457       5.30305193       6.29949341
Si       5.78530373       2.61546637       1.74963618
Si       5.03965520       4.62987796       9.22135436
Si       4.10932801       2.43768402       0.43784480
Si       4.28263315       4.57866200      15.14330328
Si       5.12469301       2.71923035      10.15479614
Si       4.56970523       4.36996036      11.32262957
Si       2.13355886       3.17748366       0.72848555
Si       0.77221737      -0.65503691       8.14075231
Si       1.49752227       2.65872272      15.77497608
Si       6.79262900       5.54134890       8.35513661
Si       3.26351347       2.63052858       4.32991400
Si       3.82015954       6.18182349       6.23419342
Si       5.30716599       2.79963715       3.80712306
Si       5.58550583       0.83814078       9.28473295
Si       5.46784601       2.99514698      14.34801603
Si       5.40459329       1.17014316       5.15811743
22
Lattice="5.474139564342423 -0.16343307642044572 -0.019762645299545693 2.65977534793228 6.296862118422673 0.10572115996038323 0.910793953510597 0.6040278541285198 15.966988123259721" Properties=species:S:1:pos:R:3 unique_starting_index=40 config_type=initial n_minim_iter=15 stress="-0.0020798549569811097 -0.00012421900564101363 0.0013433286168199922 -0.00012421900564101363 -0.0021982782239710207 -0.0013342901295626086 0.0013433286168199922 -0.0013342901295626086 -0.0023920950095458523" pbc="T T T"
Si       5.40916049       2.64917087      12.24430387
Si       1.45761358       3.78450042       4.91821448
Si       5.17275591       0.76852064       7.21889470
Si       3.87797123       3.73684058      13.21775568
Si       3.48545992       2.62808807      14.99295536
Si       7.30889673       5.28951036       6.29994236
Si       5.78545842       2.61486547       1.74739501
Si       5.03978846       4.62374168       9.21483205
Si       4.11019198       2.43365470       0.43758542
Si       4.28761138       4.57177715      15.13491275
Si       5.12582036       2.71526998      10.15004812
Si       4.56997714       4.36298047      11.31346058
Si       2.13560908       3.17657380       0.72958670
Si       0.77086691      -0.65939502       8.13803605
Si       1.50291269       2.65386694      15.76453482
Si       6.79158287       5.53255415       8.34859178
Si       3.26672323       2.62288512       4.32834922
Si       3.82339760       6.17753411       6.23190177
Si       5.31452390       2.79727102       3.80890460
Si       5.58508179       0.83288992       9.28000569
Si       5.47208849       2.99165221      14.33976014
Si       5.40618099       1.16571158       5.14978785
22
Lattice="5.476938769812529 -0.1668141603196045 -0.021875132981439806 2.6570131211043724 6.289986322375871 0.1035239680150612 0.9045636787518682 0.6001452931851194 15.960748788038035" Properties=species:S:1:pos:R:3 unique_starting_index=40 config_type=initial n_minim_iter=16 stress="0.0001505377526643248 0.0008279832884418426 0.0003535913048395319 0.0008279832884418426 -0.0011676022266490064 -0.0026505371268611415 0.0003535913048395319 -0.0026505371268611415 0.0020090496744640538" pbc="T T T"
Si       5.40452133       2.64383746      12.23442271
Si       1.46333290       3.78170242       4.92349785
Si       5.17101519       0.76391475       7.21249872
Si       3.87139664       3.73334772      13.21198613
Si       3.47829011       2.61689288      14.97884091
Si       7.31838633       5.26896874       6.29858275
Si       5.78488700       2.61470628       1.74347013
Si       5.02992560       4.61489550       9.20853489
Si       4.11009101       2.42676613       0.43482037
Si       4.28170733       4.56478391      15.12842892
Si       5.11854050       2.70754397      10.14264000
Si       4.55917713       4.35505962      11.30274443
Si       2.13875721       3.17380587       0.72920299
Si       0.75909004      -0.66096199       8.13560037
Si       1.49614008       2.65135325      15.75969646
Si       6.78175317       5.52122402       8.34057075
Si       3.27304256       2.61099926       4.32558687
Si       3.82231143       6.17178440       6.22878098
Si       5.31982166       2.79607279       3.80663906
Si       5.57576440       0.82525591       9.27413964
Si       5.46768755       2.98796580      14.33118825
Si       5.40576044       1.15174998       5.14218649
22
Lattice="5.476478626041944 -0.16896235827226916 -0.02227575683413561 2.6541527817418142 6.283992156089571 0.10534086419357414 0.9031725454077751 0.6045593960497645 15.951417111875358" Properties=species:S:1:pos:R:3 unique_starting_index=40 config_type=initial n_minim_iter=17 stress="0.0050851305330122595 0.002589502633828489 0.0016410403881349806 0.002589502633828489 0.0011943075613124294 -0.000852610699242902 0.0016410403881349806 -0.000852610699242902 -0.0007518302501069737" pbc="T T T"
Si       5.40009898       2.64710375      12.22760273
Si       1.46977152       3.78005845       4.92805579
Si       5.16595381       0.76469333       7.20655212
Si       3.86929441       3.73714617      13.20347817
Si       3.47551079       2.61546272      14.96654235
Si       7.32332648       5.25336056       6.30052843
Si       5.78366077       2.61732522       1.74368137
Si       5.01920747       4.61321453       9.20348182
Si       4.10728314       2.42064972       0.43389163
Si       4.27905966       4.56691133      15.12202270
Si       5.11205986       2.70392515      10.13479875
Si       4.55018327       4.35406860      11.29371463
Si       2.13971123       3.17048541       0.73072669
Si       0.75415267      -0.65923715       8.13011707
Si       1.49467791       2.65808862      15.75235577
Si       6.77058208       5.51805876       8.33572871
Si       3.28129815       2.60242939       4.32381303
Si       3.82754585       6.17010629       6.22903930
Si       5.32376931       2.79627673       3.80863052
Si       5.56602865       0.82448820       9.26891900
Si       5.46554098       2.99187552      14.32211095
Si       5.40353545       1.14305371       5.13546930
22
Lattice="5.476035507841589 -0.16958871528280756 -0.022697665937428117 2.653115658347642 6.280109367779845 0.1084292033889995 0.9020465676761477 0.612369382897809 15.955422346648138" Properties=species:S:1:pos:R:3 unique_starting_index=40 config_type=initial n_minim_iter=18 stress="0.0034239299559604146 0.0015150809022007141 -4.09905842005672e-05 0.0015150809022007141 -0.00237361089699965 0.0015037945790433447 -4.09905842005672e-05 0.0015037945790433447 0.0009617596255855589" pbc="T T T"
Si       5.39725127       2.65392701      12.23259205
Si       1.47571911       3.77872512       4.93436513
Si       5.16128767       0.76628301       7.20520544
Si       3.86773924       3.74462482      13.20815732
Si       3.47350567       2.62032635      14.96874586
Si       7.33002585       5.24766313       6.30802530
Si       5.78291466       2.62144069       1.74674149
Si       5.01088624       4.61534750       9.20755028
Si       4.10875848       2.41567316       0.43557173
Si       4.27728736       4.57439456      15.12718294
Si       5.10660818       2.70440521      10.13631964
Si       4.54404140       4.35743925      11.29481829
Si       2.13933870       3.16878898       0.73438290
Si       0.74910527      -0.65454626       8.13076128
Si       1.49239909       2.66814605      15.75675219
Si       6.76412158       5.52084075       8.33971585
Si       3.28706137       2.59758690       4.32647685
Si       3.83073845       6.17190385       6.23540363