22
Lattice="5.883823994540895 -0.3238368197779261 -0.5692912930331562 -1.168681490721915 8.9804868116659 -2.1127750828364706 -2.567275492156542 -5.8021633208432135 12.48468901727247" Properties=species:S:1:pos:R:3 unique_starting_index=51 config_type=initial n_minim_iter=1 energy=-3577.324310563173 free_energy=-3577.324310563173 pbc="T T T"
Si       3.34798060       7.07496909       1.00440104
Si      -1.58754066       0.26646735       7.11483115
Si       0.32826082       7.36309338      -2.27390280
Si      -1.04123641       4.34215526       1.44922905
Si       0.73506247       0.32885410       5.40748647
Si       4.40689878       0.03801906       4.40844356
Si       0.05498257       1.34863238       1.26997906
Si       0.14097960       2.03730694      -0.99895965
Si       1.06206393      -2.00594356       5.85946814
Si       2.56950000      -0.68916891       9.19135233
Si      -0.91611454       1.79510014       8.55460213
Si       4.12687948       1.52711497       2.75129326
Si       0.16778902       3.08971601       3.00270825
Si       1.43095629      -2.99563811      11.57138405
Si       0.42083846      -1.40274829      10.05752793
Si       3.89060805       5.43300567       2.52172128
Si       1.66917540      -0.07318445       1.29716067
Si       2.94801035       2.63587258       7.91572371
Si       2.12495872       0.18463794       7.17424302
Si       0.92720675      -1.04860110       3.35937367
Si       3.44900281       0.95019988       0.66346147
Si       2.48533390      -1.84757663       2.10466399
22
Lattice="5.866574011211703 -0.3204487995910575 -0.5588029666880817 -1.1645718255724742 8.974323399098358 -2.1167270946839243 -2.543309615366971 -5.807089179817181 12.461915209800464" Properties=species:S:1:pos:R:3 unique_starting_index=51 config_type=initial n_minim_iter=2 stress="1.8245859091906407e-05 -0.0007964579048638558 -0.0003794747187293145 -0.0007964579048638558 -0.001800822687556578 0.0008663675897147187 -0.0003794747187293145 0.0008663675897147187 -0.0027751762482335954" pbc="T T T"
Si       3.34376150       7.07039912       1.00317794
Si      -1.57172624       0.26095895       7.09973302
Si       0.32749265       7.35856467      -2.27465159
Si      -1.03408046       4.33744140       1.44196905
Si       0.74200179       0.32521965       5.39851026
Si       4.40146226       0.03701023       4.40742598
Si       0.05791843       1.34639861       1.26701053
Si       0.13978566       2.03657990      -0.99822252
Si       1.06743109      -2.00760567       5.85181272
Si       2.57635680      -0.69311064       9.17934821
Si      -0.89972778       1.78715342       8.53674297
Si       4.12067878       1.52635759       2.75185634
Si       0.17363100       3.08538331       2.99523250
Si       1.44399620      -3.00044387      11.55485450
Si       0.43510242      -1.40807373      10.04095237
Si       3.88646833       5.42900603       2.51971819
Si       1.66580081      -0.07205563       1.29705526
Si       2.95342558       2.62975308       7.90440038
Si       2.13047994       0.18056808       7.16455398
Si       0.92973131      -1.04951004       3.35522106
Si       3.44066975       0.95066717       0.66709148
Si       2.48082539      -1.84690516       2.10620229
22
Lattice="5.860029834331188 -0.31595542934294757 -0.5543991744505449 -1.1585554231918684 8.984388867223371 -2.128244229612 -2.534656691733282 -5.825573521163799 12.481569078899966" Properties=species:S:1:pos:R:3 unique_starting_index=51 config_type=initial n_minim_iter=3 stress="-0.00020944197945522446 -0.001397782048023215 0.0011495916377488881 -0.001397782048023215 0.0034160225050512247 -0.0011315045184965634 0.0011495916377488881 -0.0011315045184965634 0.0015889183007827394" pbc="T T T"
Si       3.34668720       7.07924905       1.00124686
Si      -1.56371743       0.25433944       7.10901803
Si       0.33022568       7.36681428      -2.28394675
Si      -1.02866169       4.34011112       1.43902444
Si       0.74672906       0.32114169       5.40588712
Si       4.40021063       0.03628063       4.41684456
Si       0.06059717       1.34621145       1.26788629
Si       0.13993577       2.03990573      -1.00114517
Si       1.06985253      -2.01360643       5.86219215
Si       2.58059248      -0.69888131       9.19473073
Si      -0.89037621       1.78001636       8.54523594
Si       4.12024668       1.52929053       2.75786966
Si       0.17858102       3.08611317       2.99622348
Si       1.45041669      -3.01271127      11.57453900
Si       0.44260810      -1.41778207      10.05611507
Si       3.88882903       5.43541029       2.52179507
Si       1.66355388      -0.06975469       1.29970111
Si       2.95867110       2.62740174       7.91549432
Si       2.13457043       0.17575133       7.17597928
Si       0.93121164      -1.05250640       3.36108347
Si       3.43804617       0.95382508       0.66997188
Si       2.47877883      -1.85005640       2.11296263
22
Lattice="5.856920298915666 -0.3035728657273467 -0.5569422424570086 -1.1390576339482663 8.964773808054389 -2.1267244415241224 -2.5500676483336444 -5.817418372460881 12.485601710275008" Properties=species:S:1:pos:R:3 unique_starting_index=51 config_type=initial n_minim_iter=4 stress="-0.0025174658071783597 0.003758485183297419 -0.0008424064219172745 0.003758485183297419 -0.003040744346985699 0.00041932665803200234 -0.0008424064219172745 0.00041932665803200234 0.002111596757597348" pbc="T T T"
Si       3.35948678       7.07301243       1.00172375
Si      -1.56451573       0.25287801       7.11436358
Si       0.34470107       7.35063917      -2.28312514
Si      -1.01999382       4.33067651       1.44013441
Si       0.74651387       0.32241092       5.40698828
Si       4.39528428       0.04554594       4.41659652
Si       0.06361607       1.34357744       1.26909111
Si       0.14365547       2.03674428      -1.00098260
Si       1.06320737      -2.00594931       5.86308905
Si       2.57371600      -0.68867116       9.19721830
Si      -0.88949720       1.77449425       8.54702382
Si       4.12091410       1.53674244       2.75786511
Si       0.18427983       3.08136030       2.99663929
Si       1.44004086      -3.00265291      11.57800950
Si       0.43693537      -1.41227994      10.05919875
Si       3.89727575       5.43407245       2.52237807
Si       1.66012792      -0.06435199       1.29892652
Si       2.95879719       2.62912520       7.91801667
Si       2.13142708       0.18020735       7.17796616
Si       0.92794354      -1.04731855       3.36107182
Si       3.43730046       0.95971742       0.66888350
Si       2.47242961      -1.84198536       2.11176081
22
Lattice="5.883221904411037 -0.30966356644492365 -0.5525337508378487 -1.1545459394888442 8.941340675214297 -2.107037058611796 -2.553380036242997 -5.791835114318719 12.396668805370645" Properties=species:S:1:pos:R:3 unique_starting_index=51 config_type=initial n_minim_iter=5 stress="0.001509562267149574 0.0014411437462745482 -0.0010881681534801895 0.0014411437462745482 -0.0014889248946651002 -0.0024159617761557823 -0.0010881681534801895 -0.0024159617761557823 -0.004099149722922673" pbc="T T T"
Si       3.36886870       7.05172737       0.99979225
Si      -1.56691049       0.26318580       7.07746325
Si       0.33317679       7.31675467      -2.26231306
Si      -1.02945087       4.32436346       1.42905330
Si       0.75909675       0.32036091       5.36753951
Si       4.40780946       0.04084968       4.38864821
Si       0.06250705       1.34222591       1.26411449
Si       0.13792746       2.03380760      -0.99203474
Si       1.07194036      -1.99529712       5.82068791
Si       2.58264982      -0.67331227       9.13756630
Si      -0.89539907       1.76397864       8.48169748
Si       4.14094607       1.53825466       2.74247758
Si       0.18581698       3.07545272       2.97176094
Si       1.45584272      -2.99367753      11.50185758
Si       0.44893803      -1.40284189       9.99066139
Si       3.91002018       5.41989262       2.51014339
Si       1.66089075      -0.06038510       1.28509400
Si       2.96517390       2.61896058       7.86875143
Si       2.14299180       0.17644654       7.13153757
Si       0.93624312      -1.03924254       3.33491163
Si       3.44602221       0.95683786       0.66482979
Si       2.48298757      -1.84466264       2.09299048
22
Lattice="5.8772825711154155 -0.3228687891065401 -0.5379451736346976 -1.1764268212197868 8.924783506180063 -2.073505743931949 -2.5059246683892327 -5.7284216137598385 12.369763058773346" Properties=species:S:1:pos:R:3 unique_starting_index=51 config_type=initial n_minim_iter=6 stress="-0.002002000002780834 -0.0016229651302110115 0.0016752183481062693 -0.0016229651302110115 -0.002888698669015386 0.00316326995431546 0.0016752183481062693 0.00316326995431546 -0.0028513686311346974" pbc="T T T"
Si       3.35791659       7.04225196       1.03867506
Si      -1.54253941       0.30108690       7.09008634
Si       0.30986229       7.28549393      -2.23304916
Si      -1.03310281       4.33093140       1.44072730
Si       0.78144312       0.33753889       5.36933995
Si       4.40909344       0.04818582       4.40424738
Si       0.06135791       1.34893570       1.27349738
Si       0.12690786       2.03068349      -0.98289314
Si       1.09202564      -1.96775490       5.81589364
Si       2.60239766      -0.62699147       9.14879534
Si      -0.87802935       1.78543970       8.48310628
Si       4.14579554       1.55002284       2.76327963
Si       0.19223714       3.08489791       2.97947088
Si       1.49729150      -2.94941506      11.50186309
Si       0.48683606      -1.36003789       9.99049334
Si       3.90501793       5.41980623       2.54605724
Si       1.65980209      -0.05875458       1.28534203
Si       2.97465456       2.63788288       7.89387005
Si       2.16255983       0.19652080       7.14266429
Si       0.94910542      -1.02098678       3.33143210
Si       3.43643519       0.95500637       0.67795605
Si       2.48550804      -1.84103551       2.08699691
22
Lattice="5.874389356127497 -0.3126213075971223 -0.5305386886732252 -1.1643498188064692 8.942716431319207 -2.0989914092098854 -2.5001548850500908 -5.77463661092628 12.384653023584393" Properties=species:S:1:pos:R:3 unique_starting_index=51 config_type=initial n_minim_iter=7 stress="9.119131977281587e-05 -0.0023390663599346913 0.0006803416237014775 -0.0023390663599346913 -0.006520569704519895 -0.0042915739168457616 0.0006803416237014775 -0.0042915739168457616 -0.00587016309368336" pbc="T T T"
Si       3.37158620       7.05708168       1.02331491
Si      -1.53062689       0.28505082       7.10051955
Si       0.31741596       7.29453491      -2.25241999
Si      -1.02471194       4.33618180       1.42386526
Si       0.79577006       0.32179485       5.36636538
Si       4.40687398       0.04016741       4.41443303
Si       0.06191891       1.35157393       1.27351792
Si       0.12466019       2.04059285      -0.98822182
Si       1.09644890      -1.98219328       5.82229938
Si       2.60654710      -0.63530795       9.15935856
Si      -0.87045581       1.74973017       8.47461503
Si       4.15386408       1.56246372       2.76633640
Si       0.20523702       3.08313217       2.96503060
Si       1.51087545      -2.98716033      11.51834395
Si       0.50413603      -1.38824353       9.99796489
Si       3.91751312       5.43021708       2.53880195
Si       1.65606654      -0.06771337       1.28042443
Si       2.98233878       2.61919361       7.89576133
Si       2.17323149       0.17509301       7.14782185
Si       0.95293584      -1.02457980       3.33332515
Si       3.43245035       0.96424552       0.67872314
Si       2.47917314      -1.84686654       2.08813266
22
Lattice="5.862402192922165 -0.2825544132469348 -0.524532598343626 -1.110329395524252 9.025014317689182 -2.064104926315306 -2.5176624716920943 -5.806894841535282 12.342722566237558" Properties=species:S:1:pos:R:3 unique_starting_index=51 config_type=initial n_minim_iter=8 stress="0.003468318890264699 0.002303258367101887 0.004459559876310144 0.002303258367101887 0.002784232986777827 0.0008889139059498598 0.004459559876310144 0.0008889139059498598 -0.007643718457813238" pbc="T T T"
Si       3.41302332       7.15911394       1.05075095
Si      -1.51856774       0.30576504       7.09606775
Si       0.35823705       7.35906727      -2.22081999
Si      -0.99567456       4.38735958       1.43096172
Si       0.81169863       0.34616545       5.35485667
Si       4.39817790       0.07896224       4.42255508
Si       0.06814378       1.37579090       1.28072073
Si       0.13089797       2.06460208      -0.97907474
Si       1.09076885      -1.97276078       5.80627785
Si       2.60290274      -0.57524405       9.15186883
Si      -0.85492634       1.78040115       8.46873066
Si       4.16473752       1.62914198       2.77500861
Si       0.23341743       3.13017824       2.96317218
Si       1.50989931      -2.97384340      11.49835419
Si       0.51676332      -1.36399027       9.98103103
Si       3.95020043       5.52541845       2.56253295
Si       1.64593059      -0.06611131       1.26726181
Si       2.99655124       2.68513234       7.90317586
Si       2.18344244       0.20782263       7.14283669
Si       0.94992010      -1.00966580       3.32338447
Si       3.42707347       1.00371324       0.68485160
Si       2.46169622      -1.84782051       2.07151451
22
Lattice="5.773214926280478 -0.2814701575844694 -0.5617235138196207 -1.0705716863218755 9.105362155734456 -2.0371185938745806 -2.5529448993937636 -5.821256226981006 12.410692882534919" Properties=species:S:1:pos:R:3 unique_starting_index=51 config_type=initial n_minim_iter=9 stress="0.0009121374808405372 -0.001839544223324263 -0.0038912322290317013 -0.001839544223324263 0.009341905688634074 -1.7040022489042102e-05 -0.0038912322290317013 -1.7040022489042102e-05 0.004875379234463925" pbc="T T T"
Si       3.36731727       7.24023701       1.06288465
Si      -1.53730233       0.32968692       7.15374310
Si       0.36926236       7.41345020      -2.20002756
Si      -0.98406289       4.44378676       1.45099088
Si       0.78480127       0.36370262       5.37312638
Si       4.29577567       0.09202102       4.44436173
Si       0.05644478       1.40202815       1.30036555
Si       0.12968960       2.08923997      -0.97893159
Si       1.04293409      -1.96462614       5.82614282
Si       2.50253561      -0.51142909       9.20097630
Si      -0.89163675       1.80669690       8.53353392
Si       4.09607408       1.68673466       2.77798053
Si       0.22823162       3.17420904       2.97452087
Si       1.43144987      -2.96846187      11.56031142
Si       0.47159858      -1.34127979      10.03784235
Si       3.88745773       5.59977029       2.58204012
Si       1.59874365      -0.08253355       1.23474635
Si       2.89972513       2.72609446       7.95611274
Si       2.12015448       0.22178168       7.17723522
Si       0.91533410      -0.99104626       3.33206831
Si       3.35662363       1.02927457       0.67551222
Si       2.40532069      -1.86617252       2.04725345
22
Lattice="5.783212864464327 -0.275280599289304 -0.5411565266229179 -1.0740200166844753 9.054084606085683 -2.0443753948049976 -2.5111554001153946 -5.776793331313681 12.474440891503153" Properties=species:S:1:pos:R:3 unique_starting_index=51 config_type=initial n_minim_iter=10 stress="0.0031265495870655764 -0.0017931057101558024 -0.00014953471448192013 -0.0017931057101558024 0.004192054650317022 -0.0016914002515229657 -0.00014953471448192013 -0.0016914002515229657 0.009850513950602427" pbc="T T T"
Si       3.38695027       7.21006082       1.09259892
Si      -1.51658918       0.33084996       7.19421538
Si       0.36419289       7.36822196      -2.20261284
Si      -0.97771488       4.42603098       1.45690783
Si       0.81589816       0.36596145       5.40694600
Si       4.32095196       0.09692220       4.50086203
Si       0.06155016       1.40040778       1.31405473
Si       0.12620868       2.07922410      -0.98466695
Si       1.07071850      -1.94289311       5.86609280
Si       2.54275381      -0.47529593       9.27559589
Si      -0.85983667       1.79790997       8.59364848
Si       4.12248985       1.69972884       2.81700625
Si       0.25005879       3.16280968       2.98944143
Si       1.48561472      -2.93948816      11.64569396
Si       0.52320073      -1.32135035      10.10650502
Si       3.91504335       5.58043980       2.62525914
Si       1.59916834      -0.08827560       1.23184039
Si       2.93635879       2.71640326       8.03225276
Si       2.16192066       0.22097799       7.23278168
Si       0.93066637      -0.97288645       3.35467969
Si       3.35886663       1.03386587       0.69819741
Si       2.41607517      -1.85765588       2.06280792
22
Lattice="5.781390940182862 -0.2612427396815156 -0.5648614576103191 -1.041166781855642 9.013761441398644 -1.9950482272265344 -2.5724971611598515 -5.70435939896039 12.453959925389732" Properties=species:S:1:pos:R:3 unique_starting_index=51 config_type=initial n_minim_iter=11 stress="-0.002596170916640992 -0.006043820760135212 0.0008739232205807 -0.006043820760135212 -0.004368484250870428 -0.0028820313327909473 0.0008739232205807 -0.0028820313327909473 0.002546859577677599" pbc="T T T"
Si       3.40311674       7.21238734       1.11631406
Si      -1.55735033       0.35611496       7.20590799
Si       0.38361060       7.32084642      -2.17922029
Si      -0.97479413       4.42676799       1.47357412
Si       0.80603285       0.38770769       5.39492665
Si       4.30103436       0.12087693       4.50260602
Si       0.05782896       1.41061098       1.32561937
Si       0.13788639       2.06916200      -0.98230435
Si       1.04983214      -1.90103974       5.85197386
Si       2.49714959      -0.38156555       9.26564842
Si      -0.89794664       1.80257807       8.61084135
Si       4.12210289       1.75061803       2.81030062
Si       0.26179174       3.17061784       2.98330169
Si       1.44107074      -2.87176211      11.64041456
Si       0.50046913      -1.26878064      10.10228672
Si       3.92768797       5.59267213       2.64485822
Si       1.57875793      -0.08117923       1.19730124
Si       2.90099470       2.73670870       8.05753173
Si       2.15149733       0.23385312       7.22109582
Si       0.91657533      -0.93505243       3.33833269
Si       3.33629119       1.05654767       0.70130372
Si       2.39876101      -1.84720870       2.03601273
22
Lattice="5.785915960745301 -0.22720331091039975 -0.5796956055831252 -0.9798777000305255 8.993896520260058 -1.9330349627104888 -2.6423265967061162 -5.646502382480927 12.391985823034322" Properties=species:S:1:pos:R:3 unique_starting_index=51 config_type=initial n_minim_iter=12 stress="-0.012653184464969621 -0.0029694005443564285 0.002584333223005369 -0.0029694005443564285 -0.007954154302371773 -0.0026297816748645734 0.002584333223005369 -0.0026297816748645734 -0.006907645427589292" pbc="T T T"
Si       3.45046555       7.25256752       1.15036885
Si      -1.59760099       0.38024329       7.19798132
Si       0.42582428       7.31031824      -2.13818089
Si      -0.95707308       4.43808988       1.49143747
Si       0.80208860       0.41945122       5.37223628
Si       4.29808601       0.16536727       4.49316399
Si       0.05984929       1.42723313       1.33357283
Si       0.16061993       2.06108806      -0.97811424
Si       1.03219151      -1.85752295       5.82338135
Si       2.45999825      -0.28186071       9.22619802
Si      -0.91359828       1.81742644       8.60073498
Si       4.13631080       1.82374528       2.80202827
Si       0.28905058       3.19000307       2.97299483
Si       1.40070228      -2.79326277      11.60568129
Si       0.48464562      -1.20898173      10.07084536
Si       3.97072392       5.63677887       2.66859277
Si       1.56861013      -0.06426537       1.16031185
Si       2.88999707       2.78178859       8.07615326
Si       2.15621896       0.25748606       7.18949847
Si       0.90625377      -0.89512444       3.31093890
Si       3.31886381       1.09495195       0.71386649
Si       2.38006747      -1.82956276       2.01067749
22
Lattice="5.822597735700475 -0.20595600969615555 -0.5997734868501023 -0.9453242076068211 8.954817481446508 -1.888066673853171 -2.7229474258233717 -5.589337518863569 12.348506817835627" Properties=species:S:1:pos:R:3 unique_starting_index=51 config_type=initial n_minim_iter=13 stress="-0.010858060416651622 0.001546098499380695 -0.00021844729016962984 0.001546098499380695 -0.015015913370152201 0.0024104793062832697 -0.00021844729016962984 0.0024104793062832697 -0.01912240725762428" pbc="T T T"
Si       3.49469028       7.26003594       1.16822888
Si      -1.64065798       0.39339165       7.18860993
Si       0.45776806       7.29277951      -2.11769462
Si      -0.95701942       4.43275934       1.50741604
Si       0.78902618       0.44164851       5.35533060
Si       4.31875330       0.19432279       4.46996036
Si       0.06008312       1.43208854       1.33604181
Si       0.18197657       2.04649331      -0.97730768
Si       1.01739715      -1.82584351       5.80050711
Si       2.43314227      -0.22357624       9.18861481
Si      -0.94388399       1.82533069       8.59340737
Si       4.16170372       1.86283914       2.78592332
Si       0.30071007       3.19237123       2.96653906
Si       1.36012460      -2.72882348      11.57411571
Si       0.45589051      -1.16484260      10.04307030
Si       4.01566185       5.64707017       2.67628626
Si       1.57232243      -0.04587616       1.13587966
Si       2.88564640       2.80272015       8.08692088
Si       2.14629152       0.27205753       7.15584039
Si       0.89988158      -0.86859058       3.28751510
Si       3.32407593       1.11628618       0.72057709
Si       2.37877127      -1.81010592       1.99416641
22
Lattice="5.853464901176054 -0.19167459190158745 -0.597890140829433 -0.9315992350737058 8.990990152031486 -1.9217222606745026 -2.7488785776170768 -5.6627473214166155 12.365709101700606" Properties=species:S:1:pos:R:3 unique_starting_index=51 config_type=initial n_minim_iter=14 stress="0.00581168343221316 0.010268809591522637 0.0013018795143353579 0.010268809591522637 0.0007669728546035283 0.007186093881608051 0.0013018795143353579 0.007186093881608051 -0.004145384140336869" pbc="T T T"
Si       3.52524066       7.30021583       1.14719436
Si      -1.65027216       0.35068730       7.17682517
Si       0.47902879       7.34510697      -2.15056702
Si      -0.96040038       4.44216005       1.49732250
Si       0.78306985       0.42813501       5.35858611
Si       4.36194466       0.18813026       4.45147839
Si       0.06408658       1.43070947       1.32432474
Si       0.20357940       2.04764582      -0.99341685
Si       1.02369581      -1.86236585       5.80944190
Si       2.44068257      -0.28130454       9.18586949
Si      -0.93537961       1.79419704       8.58358519
Si       4.18440789       1.86415524       2.77307473
Si       0.30789542       3.18677631       2.95429593
Si       1.35752039      -2.77232532      11.58894488
Si       0.44912757      -1.20923569      10.04415391
Si       4.05664755       5.66148381       2.65561759
Si       1.59425853      -0.03382214       1.14801215
Si       2.90391263       2.79426639       8.09144667
Si       2.13804069       0.23732593       7.12246679
Si       0.90692217      -0.88594296       3.27927557
Si       3.34179979       1.13270359       0.73633727
Si       2.38294849      -1.80140601       2.01331476
22
Lattice="5.806707353734907 -0.22010945300362325 -0.5774376844219129 -0.9676503705450998 9.087739676026757 -1.9208860260857767 -2.6609582421932396 -5.7060759475312866 12.349853268184706" Properties=species:S:1:pos:R:3 unique_starting_index=51 config_type=initial n_minim_iter=15 stress="0.005283357917117975 0.0017519452738771612 0.000354256302311691 0.0017519452738771612 0.003924855762152203 0.000170416670081057 0.000354256302311691 0.000170416670081057 0.00583804084581856" pbc="T T T"
Si       3.47415490       7.37015632       1.16585244
Si      -1.61298271       0.35391405       7.17867487
Si       0.42682433       7.40835457      -2.13534630
Si      -0.97203499       4.50323358       1.49657670
Si       0.80007003       0.42737392       5.36004279
Si       4.34807486       0.17078721       4.45384478
Si       0.05982032       1.44546782       1.32346136
Si       0.19254351       2.06929282      -0.99613511
Si       1.04835742      -1.89222769       5.80850035
Si       2.45509824      -0.27409179       9.18624756
Si      -0.89718624       1.79842260       8.56991037
Si       4.15950736       1.88037045       2.78908668
Si       0.30817038       3.21533635       2.94750176
Si       1.40774897      -2.80962530      11.60060483
Si       0.49136358      -1.22220139      10.04264356
Si       4.02226252       5.70511745       2.67400613
Si       1.57344193      -0.05788345       1.14573732
Si       2.88603315       2.80999328       8.11904428
Si       2.13049318       0.20997663       7.11769081
Si       0.91958603      -0.89101172       3.26923247
Si       3.31667689       1.15196960       0.75876868
Si       2.36829794      -1.81722244       2.01651914
22
Lattice="5.764444583067392 -0.23065422850591447 -0.5782097915535415 -0.9705316841262512 9.121645587359483 -1.893235706282843 -2.633421811328638 -5.6868866962648745 12.34240920379199" Properties=species:S:1:pos:R:3 unique_starting_index=51 config_type=initial n_minim_iter=16 stress="-0.0035410680228474016 -0.004157243162416414 -0.002535150067219637 -0.004157243162416414 -0.004073956437359224 -0.0006738046795658012 -0.002535150067219637 -0.0006738046795658012 -0.0005217870697405655" pbc="T T T"
Si       3.44350409       7.41411524       1.19665829
Si      -1.60253331       0.36963582       7.19157915
Si       0.41071121       7.43132864      -2.11302843
Si      -0.97797820       4.54233631       1.51440085
Si       0.80513423       0.43532761       5.36676965
Si       4.32379320       0.17825221       4.45876616
Si       0.05657022       1.45378590       1.32627168
Si       0.19140810       2.07763557      -0.99937901
Si       1.05023896      -1.88976667       5.80339525
Si       2.43219951      -0.22607576       9.18344313
Si      -0.89413380       1.79716245       8.57908030
Si       4.13528891       1.91754717       2.80203462
Si       0.31327346       3.23403597       2.94618246
Si       1.41730583      -2.79299375      11.61945429
Si       0.49969590      -1.19719924      10.05122550
Si       4.00366856       5.73750611       2.69937821
Si       1.54761564      -0.06224589       1.12775480
Si       2.84795355       2.83544740       8.17124790
Si       2.10149688       0.19736764       7.11177768
Si       0.90481017      -0.86458291       3.26874419
Si       3.28341016       1.18246501       0.78002668
Si       2.35486823      -1.82013519       1.99750483
22
Lattice="5.73479758570195 -0.23934885096569344 -0.5615941188175682 -0.9836705505370129 9.154321050697066 -1.9096580037921074 -2.580341186086686 -5.72413998488534 12.325510836718482" Properties=species:S:1:pos:R:3 unique_starting_index=51 config_type=initial n_minim_iter=17 stress="-0.0002900732712430352 -0.0040246951437111845 -0.0020008302848920144 -0.0040246951437111845 0.0008277584604962102 -0.004036511566477703 -0.0020008302848920144 -0.004036511566477703 -0.0012003392018459288" pbc="T T T"
Si       3.41821912       7.43719499       1.19734900
Si      -1.56992143       0.34365746       7.16248098
Si       0.39704359       7.45129136      -2.10887214
Si      -0.98355686       4.56272283       1.51267696
Si       0.81954347       0.41238303       5.37132821
Si       4.32720236       0.17012043       4.45757049
Si       0.05760512       1.44700984       1.31125189
Si       0.18908085       2.08677446      -1.00935418
Si       1.06568396      -1.91935035       5.79256479
Si       2.44261043      -0.24940931       9.14602134
Si      -0.86715153       1.76390708       8.55379548
Si       4.12076823       1.91888746       2.80905262
Si       0.31788507       3.23138184       2.93317985
Si       1.45628655      -2.83044280      11.61796444
Si       0.51907711      -1.22230500      10.03970029
Si       3.99728601       5.74521706       2.69279797
Si       1.54392458      -0.05653371       1.13197199
Si       2.83664132       2.83900602       8.17717159
Si       2.07669099       0.15771613       7.09743115
Si       0.89537944      -0.86113550       3.27341937
Si       3.26761216       1.20086674       0.80053791
Si       2.35693223      -1.81939435       1.99323255
22
Lattice="5.721585889371593 -0.22135456663815553 -0.5596455383788831 -0.954083901954881 9.168435945746737 -1.9156462839114377 -2.5889997872793535 -5.749723019497712 12.331657662894552" Properties=species:S:1:pos:R:3 unique_starting_index=51 config_type=initial n_minim_iter=18 stress="-0.002440873357739481 -0.002712068779909316 -0.006061450882175106 -0.002712068779909316 0.0027199393072146727 -0.0013696252339108694 -0.006061450882175106 -0.0013696252339108694 -0.005887952599875301" pbc="T T T"
Si       3.43308202       7.46612550       1.19997975
Si      -1.56984634       0.32159113       7.15677524
Si       0.41731862       7.46118279      -2.11104807
Si      -0.97226197       4.57238620       1.51525839
Si       0.82742883       0.40137342       5.37963828
Si       4.32682304       0.18338149       4.46162933
Si       0.05496981       1.45566145       1.30801383
Si       0.19866680       2.09216859      -1.01733104
Si       1.06252016      -1.92572142       5.79074040
Si       2.43663974      -0.24175193       9.14352409
Si      -0.85758754       1.74242349       8.55568865
Si       4.11980234       1.94442159       2.81383730
Si       0.33426029       3.23398041       2.92448116
Si       1.45563951      -2.83956496      11.63321251
Si       0.51842755      -1.23027003      10.04652324
Si       4.01746920       5.76940322       2.69193060
Si       1.54467404      -0.04906237       1.12476946
Si       2.83311985       2.84961401       8.19675323