22
Lattice="5.479089794602515 0.07309120617038463 0.005786184262428939 2.9169106669173073 5.204453941138372 0.21648397847590034 1.002979977139708 0.761715475593369 17.051469888407627" Properties=species:S:1:pos:R:3 unique_starting_index=40 config_type=initial n_minim_iter=1 energy=-3588.347736730686 free_energy=-3588.347736730686 pbc="T T T"
Si       6.10099780       2.32694217      13.55622758
Si       1.27131268       3.14728689       4.95174155
Si       5.09933687       0.78420876       7.53571335
Si       4.49346911       3.45321154      14.35607191
Si       3.77467952       2.54931839      16.14977352
Si       6.50868962       4.82432883       6.82252626
Si       5.90618285       2.36153922       1.97167558
Si       5.32165050       3.75915271      10.05425314
Si       4.26210280       2.21817546       0.60648271
Si       4.71579731       4.44681169      16.23111061
Si       5.83262585       2.25664173      11.45552164
Si       4.59167071       3.76690796      12.26446141
Si       2.23135235       2.78302889       0.88693783
Si       0.75887337      -0.45075366       8.89078785
Si       2.03712252       1.34927023      16.42864999
Si       7.02769712       4.75514727       9.16129809
Si       3.41512713       2.47857787       4.30410449
Si       4.23836219       4.91508853       6.96970874
Si       5.09774063       4.01863796       3.50819599
Si       5.47401321       1.51683319       9.49496483
Si       5.84054711       2.48745370      15.67449013
Si       5.35111802       1.25505857       5.48031618
22
Lattice="5.476074234583268 0.07257903231841553 0.006493980066802884 2.914859048814 5.203526736541387 0.21653450521029535 1.0045789209268585 0.7606697424308602 17.04627805390656" Properties=species:S:1:pos:R:3 unique_starting_index=40 config_type=initial n_minim_iter=2 stress="-0.0008805712239700696 0.0014196422446557228 -0.0007320656649867176 0.0014196422446557228 -0.0028403635258162164 0.00010879387414378999 -0.0007320656649867176 0.00010879387414378999 -0.003885941758745553" pbc="T T T"
Si       6.09919938       2.32541070      13.55261112
Si       1.27096993       3.14653703       4.95020398
Si       5.09754968       0.78320310       7.53397654
Si       4.49253412       3.45166972      14.35204618
Si       3.77446691       2.54779659      16.14506036
Si       6.50558522       4.82278640       6.82102265
Si       5.90294456       2.36059218       1.97171545
Si       5.31966700       3.75776567      10.05158725
Si       4.25964824       2.21739689       0.60680935
Si       4.71485408       4.44507141      16.22638484
Si       5.83070474       2.25520159      11.45265924
Si       4.59039709       3.76541382      12.26109351
Si       2.23002433       2.78243122       0.88684838
Si       0.75958489      -0.45117428       8.88820369
Si       2.03805166       1.34817353      16.42376743
Si       7.02466332       4.75346787       9.15912155
Si       3.41359393       2.47772289       4.30309884
Si       4.23637091       4.91377325       6.96788774
Si       5.09503820       4.01747151       3.50757528
Si       5.47212759       1.51557799       9.49264550
Si       5.83915869       2.48582289      15.67029073
Si       5.34877851       1.25412726       5.47929303
22
Lattice="5.473980523452017 0.07095523308089387 0.007763205130551994 2.91224179050367 5.204271313982216 0.21694608086753886 1.0079295486898965 0.7595246402074811 17.051572756683562" Properties=species:S:1:pos:R:3 unique_starting_index=40 config_type=initial n_minim_iter=3 stress="-0.00277615972594306 -0.0010009657891494827 0.0014669889874205674 -0.0010009657891494827 0.0015142558298471122 -0.002435247655839207 0.0014669889874205674 -0.002435247655839207 0.004094024177079607" pbc="T T T"
Si       6.09942993       2.32340083      13.55768507
Si       1.27069120       3.14685690       4.95175011
Si       5.09747191       0.78141572       7.53732126
Si       4.49298106       3.45061863      14.35726002
Si       3.77596005       2.54623395      16.15034566
Si       6.50326040       4.82185104       6.82424329
Si       5.90035801       2.35939396       1.97354967
Si       5.31877760       3.75694771      10.05542862
Si       4.25757641       2.21651200       0.60810176
Si       4.71535048       4.44429939      16.23181242
Si       5.83047287       2.25327367      11.45737275
Si       4.59036728       3.76449646      12.26560735
Si       2.22860397       2.78262569       0.88763036
Si       0.76133156      -0.45200644       8.89123375
Si       2.04076749       1.34716251      16.42913831
Si       7.02283786       4.75227136       9.16322212
Si       3.41258769       2.47714962       4.30505145
Si       4.23462405       4.91366190       6.97071340
Si       5.09274781       4.01691399       3.50957205
Si       5.47187877       1.51356166       9.49664260
Si       5.83993788       2.48385865      15.67620434
Si       5.34766005       1.25255223       5.48217510
22
Lattice="5.474920420478609 0.06981484241529655 0.0077578615773265264 2.9116516474510394 5.20461951471739 0.21924890077865714 1.0078290612773413 0.7673277224622481 17.04520795868786" Properties=species:S:1:pos:R:3 unique_starting_index=40 config_type=initial n_minim_iter=4 stress="0.0004768398962653973 -0.0022818466401276108 0.00045745186192928657 -0.0022818466401276108 0.0039060867850300184 0.0017690672323787005 0.00045745186192928657 0.0017690672323787005 -0.0008625845619926907" pbc="T T T"
Si       6.10011430       2.32866777      13.55273781
Si       1.27021003       3.14947161       4.95116582
Si       5.09896694       0.78404612       7.53465161
Si       4.49265679       3.45716266      14.35336922
Si       3.77581816       2.55297565      16.14457372
Si       6.50329239       4.82423875       6.82364418
Si       5.90062146       2.35934711       1.97389870
Si       5.31869127       3.76144456      10.05298464
Si       4.25799289       2.21578546       0.60927606
Si       4.71481527       4.45203670      16.22702215
Si       5.83083705       2.25756345      11.45382461
Si       4.59026805       3.76995771      12.26259126
Si       2.22851893       2.78311739       0.88890443
Si       0.76115568      -0.44784499       8.88789501
Si       2.04076939       1.35502739      16.42344341
Si       7.02323541       4.75579499       9.16186610
Si       3.41270924       2.47870008       4.30455006
Si       4.23370545       4.91687846       6.97031917
Si       5.09284654       4.01796421       3.51005948
Si       5.47263732       1.51644205       9.49351335
Si       5.84063277       2.49033357      15.67112158
Si       5.34831599       1.25413151       5.48077019
22
Lattice="5.475863138716631 0.07179934274634346 0.007185618877347762 2.9140542447965085 5.201802605582162 0.21856257065428997 1.0065144212024806 0.765724285371724 17.04863009850467" Properties=species:S:1:pos:R:3 unique_starting_index=40 config_type=initial n_minim_iter=5 stress="-0.00162693728730892 0.0026170063793016177 0.00026371788562170787 0.0026170063793016177 0.00040431175172490614 0.00041263398296334915 0.00026371788562170787 0.00041263398296334915 0.001304742284656038" pbc="T T T"
Si       6.10065200       2.32814307      13.55420362
Si       1.27107503       3.14729689       4.95168393
Si       5.10034463       0.78492932       7.53558522
Si       4.49311233       3.45528018      14.35590182
Si       3.77563294       2.55097905      16.14680114
Si       6.50555717       4.82230798       6.82394097
Si       5.90190771       2.35945271       1.97365888
Si       5.31968590       3.76025702      10.05400324
Si       4.25954542       2.21509900       0.60919004
Si       4.71508154       4.44957628      16.22909704
Si       5.83112720       2.25704746      11.45509097
Si       4.59126032       3.76792520      12.26429930
Si       2.23015843       2.78178147       0.88890226
Si       0.75977693      -0.44756419       8.89036109
Si       2.03981927       1.35401503      16.42685505
Si       7.02545861       4.75397108       9.16294043
Si       3.41387499       2.47755833       4.30500850
Si       4.23476639       4.91423894       6.97103830
Si       5.09495821       4.01631628       3.50999755
Si       5.47344000       1.51563706       9.49478185
Si       5.84134526       2.48946036      15.67355989
Si       5.34917399       1.25473163       5.48136673
22
Lattice="5.477739017493699 0.07010521861075204 0.006722210935631292 2.9134706891153366 5.198495139848497 0.21744957856250854 1.0052277932823528 0.7622596738893349 17.047251686805804" Properties=species:S:1:pos:R:3 unique_starting_index=40 config_type=initial n_minim_iter=6 stress="0.0006508113056180252 -0.0004405872524572767 -0.00030653424257919075 -0.0004405872524572767 -0.0020470172915646135 -0.0015255419964563214 -0.00030653424257919075 -0.0015255419964563214 0.00026369381202449903" pbc="T T T"
Si       6.10087363       2.32312928      13.55215256
Si       1.27015112       3.14473231       4.95062299
Si       5.10140699       0.78190699       7.53451200
Si       4.49250273       3.45004242      14.35400149
Si       3.77485904       2.54605717      16.14473876
Si       6.50604617       4.81701224       6.82221683
Si       5.90283543       2.35613697       1.97277593
Si       5.31938688       3.75561639      10.05206918
Si       4.26028184       2.21240601       0.60848758
Si       4.71370044       4.44355869      16.22668415
Si       5.83129278       2.25224922      11.45310804
Si       4.59074276       3.76286689      12.26245144
Si       2.23030585       2.77956740       0.88822505
Si       0.75927789      -0.44896206       8.89022521
Si       2.03872852       1.35041497      16.42559046
Si       7.02586285       4.74809803       9.16108358
Si       3.41403989       2.47452307       4.30410347
Si       4.23390436       4.90940447       6.96934991
Si       5.09531036       4.01216376       3.50871526
Si       5.47427039       1.51122369       9.49350492
Si       5.84147435       2.48411790      15.67157189
Si       5.35025277       1.25164874       5.48033880
22
Lattice="5.479222883238642 0.06930963646998525 0.007012326916558572 2.9135253074543113 5.197594243743647 0.22040964204265132 1.0061703831921454 0.7712584442816525 17.04844739329871" Properties=species:S:1:pos:R:3 unique_starting_index=40 config_type=initial n_minim_iter=7 stress="-0.0003190741556621863 -0.0010479051253447008 -0.0007056552270822949 -0.0010479051253447008 -0.001991599789513824 0.001384908881745842 -0.0007056552270822949 0.001384908881745842 0.0028543844389552326" pbc="T T T"
Si       6.10190402       2.33043705      13.55373492
Si       1.27025557       3.14727477       4.95210005
Si       5.10311614       0.78575518       7.53560491
Si       4.49491402       3.45659288      14.35622670
Si       3.77657468       2.55382069      16.14615301
Si       6.50875455       4.81934217       6.82584814
Si       5.90312888       2.35550234       1.97506954
Si       5.31989441       3.76155576      10.05392490
Si       4.26054775       2.21103875       0.60943642
Si       4.71399514       4.45193922      16.22995455
Si       5.83193289       2.25685974      11.45313119
Si       4.59218539       3.76886858      12.26528929
Si       2.23227011       2.77856362       0.88968555
Si       0.75945244      -0.44444438       8.89254365
Si       2.03944397       1.36050737      16.42846844
Si       7.02838340       4.75132487       9.16491572
Si       3.41523900       2.47529382       4.30618716
Si       4.23376052       4.91102576       6.97208344
Si       5.09674383       4.01194779       3.51148022
Si       5.47663401       1.51366341       9.49574142
Si       5.84356818       2.49238789      15.67378071
Si       5.35208988       1.25383894       5.48124251
22
Lattice="5.4811397361138665 0.06993105461385953 0.007826675219269219 2.915137585463214 5.199923473987493 0.22000554748935308 1.0091766415168961 0.7691666444530703 17.042066210049104" Properties=species:S:1:pos:R:3 unique_starting_index=40 config_type=initial n_minim_iter=8 stress="0.0020389050510271635 0.0009990141771783394 0.0010247040843223345 0.0009990141771783394 0.0012398363272164141 -0.0021529891386358026 0.0010247040843223345 -0.0021529891386358026 -0.0006409399291455244" pbc="T T T"
Si       6.10594919       2.33048161      13.54871800
Si       1.27178581       3.14810865       4.94973961
Si       5.10625040       0.78576752       7.53348703
Si       4.49938322       3.45636191      14.35084267
Si       3.78077290       2.55279647      16.14004099
Si       6.51315835       4.82100099       6.82374824
Si       5.90527989       2.35652632       1.97513896
Si       5.32334738       3.76288549      10.05002261
Si       4.26216597       2.21195765       0.60920196
Si       4.71815532       4.45219366      16.22393287
Si       5.83531740       2.25665533      11.44892245
Si       4.59627477       3.76909500      12.26064812
Si       2.23417108       2.77931272       0.88909584
Si       0.76080816      -0.44607174       8.89018779
Si       2.04256648       1.35952332      16.42301939
Si       7.03303488       4.75248178       9.16212551
Si       3.41753920       2.47564617       4.30490153
Si       4.23638399       4.91196588       6.96921806
Si       5.09969297       4.01314805       3.51042766
Si       5.48034840       1.51284919       9.49311021
Si       5.84825027       2.49211149      15.66841036
Si       5.35506578       1.25418678       5.47962908
22
Lattice="5.481333080578607 0.06841684810958884 0.006272041138860844 2.9137207200992967 5.201307044075534 0.22152691299735427 1.0040593687332564 0.7769344912614207 17.04240593005459" Properties=species:S:1:pos:R:3 unique_starting_index=40 config_type=initial n_minim_iter=9 stress="-0.0012472472670710263 0.0007640687368770291 -0.002128416443644075 0.0007640687368770291 0.00042063578678684584 -0.0009331401143824057 -0.002128416443644075 -0.0009331401143824057 -0.001163318868988442" pbc="T T T"
Si       6.10087801       2.33691110      13.54603810
Si       1.26953843       3.15183385       4.95019088
Si       5.10457861       0.78819287       7.53303420
Si       4.49494708       3.46362088      14.35138670
Si       3.77645481       2.56016553      16.13996035
Si       6.51199477       4.82456592       6.82488725
Si       5.90296901       2.35598313       1.97511448
Si       5.31908240       3.76918576      10.04978731
Si       4.26119463       2.21147847       0.60776681
Si       4.71122175       4.46044225      16.22544975
Si       5.82921241       2.26210960      11.44810208
Si       4.59305927       3.77454867      12.25986570
Si       2.23466358       2.77873660       0.88920668
Si       0.75766645      -0.44351381       8.89153239
Si       2.03674304       1.36889147      16.42519354
Si       7.03006410       4.75615660       9.16330549
Si       3.41630578       2.47652155       4.30567766
Si       4.23172027       4.91468980       6.96999214
Si       5.09836906       4.01366465       3.51108786
Si       5.47764314       1.51512893       9.49337469
Si       5.84321324       2.49965666      15.66803929
Si       5.35385215       1.25602541       5.47776436
22
Lattice="5.483235542918184 0.06698109170842928 0.00981399432992229 2.9135217300927505 5.200099784550499 0.22537831445259252 1.0151476889139097 0.783066404844848 17.043773160366676" Properties=species:S:1:pos:R:3 unique_starting_index=40 config_type=initial n_minim_iter=10 stress="0.00048012442482698204 0.00018081615179630877 0.0015978926263540147 0.00018081615179630877 -0.0011297618638740905 0.0008060192196616252 0.0015978926263540147 0.0008060192196616252 -0.0009656001882873289" pbc="T T T"
Si       6.11060275       2.34091149      13.55052773
Si       1.27237251       3.15335614       4.95196577
Si       5.11169509       0.78957389       7.53717237
Si       4.50514562       3.46797862      14.35573233
Si       3.78791825       2.56513691      16.14379280
Si       6.51821104       4.82503290       6.83135541
Si       5.90508416       2.35459961       1.98005600
Si       5.32642059       3.77185185      10.05484960
Si       4.26254884       2.21022615       0.61070802
Si       4.72154918       4.46508583      16.23095016
Si       5.83673547       2.26531837      11.45251687
Si       4.60212542       3.77754276      12.26389603
Si       2.23567562       2.77732794       0.89139574
Si       0.76328681      -0.44080907       8.89255965
Si       2.04727257       1.37536839      16.42840234
Si       7.03743049       4.75713689       9.17026647
Si       3.41991914       2.47640806       4.30922980
Si       4.23548513       4.91516873       6.97468807
Si       5.10168068       4.01258046       3.51609341
Si       5.48529680       1.51671518       9.49815445
Si       5.85476991       2.50427220      15.67294813
Si       5.35918484       1.25675473       5.48138465
22
Lattice="5.483627925093909 0.0634331814463136 0.008961333395796793 2.910310460810365 5.201297773943007 0.22577426438274392 1.0120398350139148 0.7858069806540348 17.040287212793434" Properties=species:S:1:pos:R:3 unique_starting_index=40 config_type=initial n_minim_iter=11 stress="-0.00038357068676341205 -0.00033901348184607854 0.00030374806139084906 -0.00033901348184607854 -0.0002780566877314865 0.0004295407931696633 0.00030374806139084906 0.0004295407931696633 -0.001647634641395057" pbc="T T T"
Si       6.10614850       2.34239152      13.54705811
Si       1.26977396       3.15585937       4.95054740
Si       5.11235162       0.78769484       7.53552589
Si       4.50214079       3.47071927      14.35188344
Si       3.78460585       2.56652050      16.14087051
Si       6.51629693       4.82509819       6.83051873
Si       5.90242560       2.35179139       1.97911386
Si       5.32309433       3.77340780      10.05275579
Si       4.26218506       2.20877534       0.60958120
Si       4.71558330       4.46831542      16.22836152
Si       5.83155141       2.26561318      11.44831778
Si       4.59893241       3.77918648      12.26043295
Si       2.23369474       2.77566748       0.89083438
Si       0.76111224      -0.44094489       8.89066215
Si       2.04286319       1.37942553      16.42678209
Si       7.03342242       4.75633658       9.16920267
Si       3.41850339       2.47506341       4.30893257
Si       4.22971717       4.91530370       6.97344087
Si       5.09957507       4.01077795       3.51548692
Si       5.48308948       1.51501254       9.49620621
Si       5.85183389       2.50518095      15.66798210
Si       5.35848583       1.25524687       5.47910939
22
Lattice="5.4842412806950565 0.06057942768857596 0.009317038531491415 2.9079577449999903 5.199858375022434 0.22747254361099606 1.012802440512888 0.7902578378189513 17.040810506074806" Properties=species:S:1:pos:R:3 unique_starting_index=40 config_type=initial n_minim_iter=12 stress="-0.0005492730622226579 -0.0002506786559124829 8.041167615205409e-05 -0.0002506786559124829 -0.0003521947797289123 0.0001970342446979966 8.041167615205409e-05 0.0001970342446979966 -0.0008045508369170907" pbc="T T T"
Si       6.10517966       2.34499090      13.54805736
Si       1.26884441       3.15727321       4.95086245
Si       5.11493215       0.78752022       7.53678189
Si       4.50311515       3.47415165      14.35334132
Si       3.78618493       2.56883400      16.14228613
Si       6.51604890       4.82361658       6.83284900
Si       5.90116052       2.34872698       1.97993576
Si       5.32218547       3.77535441      10.05382036
Si       4.26191740       2.20747355       0.60933807
Si       4.71417790       4.47097738      16.23089561
Si       5.83020682       2.26549462      11.44985244
Si       4.59868804       3.78135948      12.26119814
Si       2.23190675       2.77250206       0.89179231
Si       0.76130641      -0.43922685       8.89056183
Si       2.04171524       1.38452593      16.42908727
Si       7.03190151       4.75510718       9.17186335
Si       3.41845784       2.47317245       4.31067018
Si       4.22714520       4.91351921       6.97498003
Si       5.09895154       4.00768592       3.51717929
Si       5.48338719       1.51379729       9.49696101
Si       5.85267088       2.50712661      15.66785008
Si       5.35932013       1.25424763       5.48005850
22
Lattice="5.485079911099398 0.05536531610870866 0.011778729855656977 2.9036278003007503 5.19368373995915 0.23058175665534528 1.019829481502727 0.7945640184790426 17.04571581113438" Properties=species:S:1:pos:R:3 unique_starting_index=40 config_type=initial n_minim_iter=13 stress="-0.0004766579010780087 -0.0006635868034789837 -0.0002681694614895149 -0.0006635868034789837 -0.0004036350085290729 0.0010169479498074456 -0.0002681694614895149 0.0010169479498074456 0.0003349901277878494" pbc="T T T"
Si       6.10829111       2.34587286      13.55376409
Si       1.26917446       3.15716340       4.95189497
Si       5.12095142       0.78512484       7.54112845
Si       4.50907345       3.47833442      14.36136388
Si       3.79451907       2.56579191      16.14931571
Si       6.51818057       4.81656297       6.84035127
Si       5.89932769       2.34093167       1.98292078
Si       5.32316275       3.77305378      10.06095055
Si       4.26063748       2.20374840       0.60940309
Si       4.71714794       4.47281703      16.23868972
Si       5.82999168       2.26266432      11.45563469
Si       4.60197239       3.78174474      12.26608822
Si       2.22892743       2.76217118       0.89413858
Si       0.76541343      -0.43764367       8.89285753
Si       2.04387838       1.39012319      16.43782992
Si       7.03170145       4.74893983       9.17933589
Si       3.41991338       2.46624626       4.31603756
Si       4.22541599       4.90395063       6.97928136
Si       5.09910879       3.99773436       3.52194185
Si       5.48708570       1.50789343       9.50218458
Si       5.85913260       2.50625976      15.67299408
Si       5.36274036       1.25057268       5.48538556
22
Lattice="5.485287557626614 0.050238905861412254 0.011822809368533022 2.898963046029616 5.186771409688512 0.2303918113360571 1.0193152554043483 0.7917650722559827 17.0590387708706" Properties=species:S:1:pos:R:3 unique_starting_index=40 config_type=initial n_minim_iter=14 stress="0.0006361937272619556 -0.0002133198341756182 -0.0013357196826906427 -0.0002133198341756182 0.001675943678327455 -0.00036092206424136083 -0.0013357196826906427 -0.00036092206424136083 0.001984266382185515" pbc="T T T"
Si       6.10489897       2.34191942      13.56127185
Si       1.26786324       3.15516868       4.95314094
Si       5.12562887       0.77951938       7.54714288
Si       4.50917975       3.47899388      14.37174406
Si       3.79621905       2.55671349      16.16202509
Si       6.51574148       4.80505762       6.84627679
Si       5.89515520       2.33140377       1.98263869
Si       5.31733198       3.76588974      10.07062752
Si       4.25844259       2.19984854       0.60664687
Si       4.71080650       4.46698175      16.25048319
Si       5.82296193       2.25454238      11.46439258
Si       4.59904073       3.77793856      12.27778652
Si       2.22561315       2.74810291       0.89532132
Si       0.76638726      -0.44106168       8.89951546
Si       2.03877433       1.38987689      16.45509270
Si       7.02710532       4.73931265       9.18621245
Si       3.41945849       2.45588508       4.32198157
Si       4.21987591       4.88964680       6.98353117
Si       5.09767680       3.98471558       3.52474131
Si       5.48614914       1.49864751       9.51137867
Si       5.85768406       2.50029018      15.68246976
Si       5.36394129       1.24506781       5.48967421
22
Lattice="5.488215530370751 0.04663180873841654 0.01312055996612033 2.897254220342064 5.178690217702935 0.23075124672975328 1.023417681041255 0.7886373201842903 17.070916080962544" Properties=species:S:1:pos:R:3 unique_starting_index=40 config_type=initial n_minim_iter=15 stress="0.0014828556488757673 0.00044955661726482285 -0.0008901658760462009 0.00044955661726482285 0.0004537460549844466 -0.00010214286490292148 -0.0008901658760462009 -0.00010214286490292148 0.002235856340217477" pbc="T T T"
Si       6.10804691       2.33874028      13.56961836
Si       1.26935603       3.15209696       4.95441355
Si       5.13363271       0.77383880       7.55320263
Si       4.51671998       3.47652379      14.38358504
Si       3.80084460       2.54737289      16.17195029
Si       6.51939473       4.79374534       6.85310730
Si       5.89477879       2.32241873       1.98334794
Si       5.31705605       3.75841600      10.08018173
Si       4.26031113       2.19594422       0.60447933
Si       4.71176943       4.46031495      16.26235058
Si       5.82193766       2.24698797      11.47455680
Si       4.60275989       3.77287201      12.28864435
Si       2.22387075       2.73440983       0.89787621
Si       0.76900947      -0.44394405       8.90503647
Si       2.04107233       1.38982269      16.47070167
Si       7.03047717       4.73037126       9.19275507
Si       3.42213885       2.44569535       4.32805308
Si       4.22001575       4.87494107       6.98815553
Si       5.10043040       3.97205973       3.52826413
Si       5.49063131       1.49083280       9.52105337
Si       5.86374981       2.49608630      15.69102868
Si       5.36936617       1.24036202       5.49478800
22
Lattice="5.488646529352359 0.04042151405148624 0.015667675924196163 2.8917410132711225 5.174534889346368 0.230488072214695 1.0306407854021689 0.781467372336052 17.085070415443184" Properties=species:S:1:pos:R:3 unique_starting_index=40 config_type=initial n_minim_iter=16 stress="0.002509885851896945 -0.00047002410278953105 -0.0018933362947742684 -0.00047002410278953105 0.0025963878698596937 -0.00014998260055682384 -0.0018933362947742684 -0.00014998260055682384 0.0032507315481345566" pbc="T T T"
Si       6.11150843       2.33414653      13.58060733
Si       1.27149056       3.15185041       4.95451341
Si       5.14409977       0.76495753       7.55868398
Si       4.52358931       3.47501762      14.39930381
Si       3.80678211       2.53713086      16.18025504
Si       6.52066238       4.78235908       6.86221189
Si       5.88866950       2.31023213       1.98368497
Si       5.31339027       3.74994311      10.09291616
Si       4.25982337       2.19334148       0.59883961
Si       4.70931732       4.45283631      16.27878530
Si       5.81546333       2.23560936      11.48604739
Si       4.60568789       3.76923545      12.30295034
Si       2.22045704       2.71450903       0.90102632
Si       0.77190500      -0.45081923       8.91074420
Si       2.04284901       1.39057877      16.49055786
Si       7.03014405       4.72105456       9.20116830
Si       3.42391081       2.43169806       4.33660163
Si       4.21773665       4.85753506       6.99318260
Si       5.10074372       3.95738813       3.53269065
Si       5.49431440       1.47807558       9.53293289
Si       5.87268756       2.49033961      15.70261769
Si       5.37461187       1.23303862       5.50315926
22
Lattice="5.489013038548943 0.028007130313451683 0.023824513411339825 2.8805764827532307 5.16628926254914 0.2303081391979329 1.0545829982088861 0.7628091602641462 17.116120126162215" Properties=species:S:1:pos:R:3 unique_starting_index=40 config_type=initial n_minim_iter=17 stress="0.004318108074956103 0.0002552800805922743 9.400842904779093e-05 0.0002552800805922743 0.003886752006352929 0.0006469239483273372 9.400842904779093e-05 0.0006469239483273372 0.004616623459476654" pbc="T T T"
Si       6.12623645       2.32352746      13.60635457
Si       1.27974200       3.15108346       4.95468152
Si       5.16837389       0.74462705       7.58067685
Si       4.54473843       3.46892373      14.43183522
Si       3.82882494       2.51465106      16.19688740
Si       6.52722243       4.75779935       6.88457041
Si       5.87510825       2.28346428       1.98638657
Si       5.31108616       3.73058628      10.12272723
Si       4.25921254       2.18770268       0.59162601
Si       4.71077956       4.43930356      16.31825500
Si       5.80412596       2.21192472      11.51481246
Si       4.61922667       3.75921685      12.33761387
Si       2.21491922       2.66827287       0.90798352
Si       0.78187429      -0.46593677       8.92307825
Si       2.05334927       1.39023330      16.53455458
Si       7.03317790       4.70199530       9.22016065
Si       3.43012879       2.40011262       4.35666009
Si       4.21901380       4.81750280       7.00464970
Si       5.10336989       3.92556985       3.54427090
Si       5.50668778       1.44679833       9.55657199
Si       5.89997919       2.47690286      15.72763176
Si       5.38925533       1.21753534       5.52185176
22
Lattice="5.4901112217231125 0.020717223223421892 0.029565994205422365 2.8745570787233703 5.159148653296303 0.23186807347546723 1.071718653485251 0.7553369860007066 17.13472718075147" Properties=species:S:1:pos:R:3 unique_starting_index=40 config_type=initial n_minim_iter=18 stress="0.006699613658910031 -0.0001841162905287303 0.0006936514874033901 -0.0001841162905287303 0.005183851481789366 0.001643583388681767 0.0006936514874033901 0.001643583388681767 0.0089097896480722" pbc="T T T"
Si       6.13894636       2.31819048      13.62178792
Si       1.28555377       3.14978132       4.95656067
Si       5.18435166       0.73350846       7.59166556
Si       4.55980914       3.46446685      14.45237048
Si       3.84543584       2.50444252      16.20826814
Si       6.53360427       4.74338438       6.90011427
Si       5.86960898       2.26723132       1.99047405
Si       5.31372860       3.71947973      10.14121691
Si       4.25885483       2.18384651       0.59085895
Si       4.71597475       4.43321091      16.34522370
Si       5.80157737       2.19968985      11.53294692
Si       4.62938785       3.75430364      12.35914327
Si       2.21214725       2.64107386       0.91224718
Si       0.79290178      -0.47325281       8.93175504
Si       2.06493596       1.39193763      16.56025616
Si       7.03397150       4.68954242       9.23426825
Si       3.43474845       2.38243852       4.36878875
Si       4.22038067       4.79601463       7.01447831