16
Lattice="4.2246999642521965 8.013093181089699e-08 0.6001669243510649 -6.719449760781895e-07 10.040101718616242 3.3894623769327686e-06 0.15187410820817845 -5.020053232997329 7.061334070451803" Properties=species:S:1:pos:R:3 unique_starting_index=69 config_type=initial n_minim_iter=18 energy=-2611.8160632887475 free_energy=-2611.8160632887475 pbc="T T T"
Si       0.99065008       1.22678946       4.87720431
Si       3.38592313       6.24684119       2.78429948
Si       3.38592329       3.79325810       2.78429866
Si       0.99065024      -1.22679362       4.87720349
Si       2.50839259       7.52305376       1.28974307
Si       1.86818045       2.50300115       6.37176159
Si       1.86818078      -2.50300620       6.37175990
Si       2.50839292       2.51704642       1.28974138
Si       3.10289419       3.79334636       5.17751501
Si       1.27367935      -1.22670371       2.48398713
Si       1.27367919       1.22670120       2.48398796
Si       3.10289402       6.24675127       5.17751584
Si       0.39600794       7.53702406       0.98969226
Si       3.98056509       2.51697152       6.67181241
Si       3.98056543      -2.51697650       6.67181071
Si       0.39600828       2.50307604       0.98969056
