14
Lattice="7.640465357842666 3.572706622692351e-12 -7.642086831952387e-15 3.820232678918237 6.616837096628502 -7.662162486422914e-15 3.820232678920314 2.2056123655440287 7.738567059341886" Properties=species:S:1:pos:R:3 unique_starting_index=33 config_type=initial n_minim_iter=15 energy=-2282.7544997251166 free_energy=-2282.7544997251166 pbc="T T T"
Si       7.57168338       6.22073154       0.96926492
Si       9.24193560       3.56603892       0.96926492
Si       6.10777824       3.44690438       0.96926492
Si       8.70031251       3.80202060       5.89626183
Si       6.58295591       3.79797290       5.89626183
Si       7.63812880       5.63368135       5.89626183
Si       6.56162959       4.98085163       2.36499510
Si       8.67319499       5.06071112       2.36499510
Si       7.68657264       3.19211210       2.36499510
Si       7.85003025       1.20567560       3.08737930
Si       4.75959632       5.83251143       3.08737930
Si      10.31177066       6.19548781       3.08737930
Si       7.64046574       4.41122495       4.12017916
Si       7.64046574       4.41122495       7.86323527
