2
Lattice="3.330732710622417 0.0 0.0 -1.6653663553112086 2.8844991406148166 0.0 0.0 0.0 3.330732710622417" Properties=species:S:1:pos:R:3:forces:R:3 n_minim_iter=1 energy=-325.2506535913356 stress="-0.004975608066737947 -3.833389649487607e-17 9.097746271215668e-18 -3.833389649487607e-17 -0.004975608066738002 1.1736487632254514e-17 9.097746271215668e-18 1.1736487632254514e-17 -0.008065028947108982" free_energy=-325.2506535913356 pbc="T T T"
Si       0.00000000       0.00000000       0.00000000       0.00000000       0.00000000      -0.00000000
Si       0.00000000       1.92299943       1.66536636      -0.00000000      -0.00000000       0.00000000
