2
Lattice="2.6560468362520977 -8.187144694499549e-16 4.326688956612924e-41 -1.328023418126048 2.3002040338356036 2.294481141740164e-25 -2.6454968165909034e-40 -4.317023539266796e-25 4.32779105416995" Properties=species:S:1:pos:R:3 n_minim_iter=1 energy=-3186.852837407669 free_energy=-3186.852837407669 pbc="T T T"
Ti       0.00000000       0.00000000       0.00000000
Ti       0.00000000       1.53346936       2.16389553
2
Lattice="2.659675238332471 -8.249300898739992e-16 4.156486547067917e-41 -1.3298376191662347 2.3033463222123514 2.297615612124661e-25 -2.661729781425926e-40 -4.30525276935797e-25 4.3159909256210165" Properties=species:S:1:pos:R:3 n_minim_iter=2 stress="-0.13025792448572404 -4.328936262765861e-17 6.7894283099205146e-18 -4.328936262765861e-17 -0.13025792448572418 -1.3093152941296688e-18 6.7894283099205146e-18 -1.3093152941296688e-18 -0.13026030959619314" pbc="T T T"
Ti      -0.00000000       0.00000000       0.00000000
Ti       0.00000000       1.53556421       2.15799546
