2
Lattice="2.689897658767085 -8.530246956317618e-16 5.000704787758333e-41 -1.344948829383542 2.329519706072581 2.3237238767826805e-25 -1.9388779074643284e-40 -4.464146777522544e-25 4.4752812470290495" Properties=species:S:1:pos:R:3 n_minim_iter=1 stress="-0.14130972990530286 3.765342966838419e-17 -6.729745565808989e-18 3.765342966838419e-17 -0.14130972990530294 -1.159895782671282e-16 -6.729745565808989e-18 -1.159895782671282e-16 -0.1403740614021262" pbc="T T T"
Ti       0.00000000       0.00000000       0.00000000
Ti       0.00000000       1.55301314       2.23764062
