2
Lattice="2.6714171170565932 -8.378025704792863e-16 4.776494511276091e-41 -1.3357085585282964 2.313515087475598 2.3077590775686354e-25 -1.9558454202863603e-40 -4.396807412335606e-25 4.407773924078707" Properties=species:S:1:pos:R:3 n_minim_iter=2 stress="-0.13923290585392872 -1.8975032330050234e-16 -1.1963077272412132e-16 -1.8975032330050234e-16 -0.13923290585392872 2.0732032751935123e-16 -1.1963077272412132e-16 2.0732032751935123e-16 -0.13076445504093456" pbc="T T T"
Ti       0.00000000      -0.00000000      -0.00000000
Ti       0.00000000       1.54234339       2.20388696
