2
Lattice="2.656046836252098 -8.187144694499549e-16 4.3266889566129266e-41 -1.3280234181260482 2.300204033835604 2.294481141740164e-25 -3.1348680678003414e-40 -4.317023539266795e-25 4.32779105416995" Properties=species:S:1:pos:R:3 n_minim_iter=2 stress="-0.09905492366673872 -3.058902342466153e-17 1.5359637344225587e-17 -3.058902342466153e-17 -0.09905492366673856 3.857518033641999e-18 1.5359637344225587e-17 3.857518033641999e-18 -0.09744188189199274" pbc="T T T"
Ti      -0.00000000       0.00000000       0.00000000
Ti       0.00000000       1.53346936       2.16389553
