2
Lattice="2.7152755505310515 -8.610725737088987e-16 5.047884034312069e-41 -1.3576377752655253 2.351497605034668 2.345647094880638e-25 -2.2405008230808328e-40 -4.506263857095884e-25 4.5175033749714455" Properties=species:S:1:pos:R:3 n_minim_iter=2 stress="-0.09038360591417419 -1.578036304565159e-16 2.7315702274872133e-18 -1.578036304565159e-16 -0.09038360591417434 -7.290486606645754e-18 2.7315702274872133e-18 -7.290486606645754e-18 -0.09074670356215819" pbc="T T T"
Ti      -0.00000000       0.00000000       0.00000000
Ti       0.00000000       1.56766507       2.25875169
