2
Lattice="2.7822298830196255 -8.685239099283733e-16 5.239016267846426e-41 -1.3911149415098119 2.409481757863203 2.403486983528692e-25 -2.4819325829053267e-40 -4.530430888937159e-25 4.541730684194383" Properties=species:S:1:pos:R:3 n_minim_iter=2 stress="-0.012416511151752331 -6.998568009740133e-18 6.509454148171196e-17 -6.998568009740133e-18 -0.012416511151752359 -4.200670151306259e-17 6.509454148171196e-17 -4.200670151306259e-17 -0.012363400881285068" pbc="T T T"
Ti      -0.00000000       0.00000000       0.00000000
Ti       0.00000000       1.60632117       2.27086534
