2
Lattice="3.0067758051556073 -9.655896369559828e-16 3.2520901255554433e-41 -1.5033879025778032 2.6039442307491663 2.597465635095949e-25 -2.6784367345736367e-40 -4.899830745133992e-25 4.912051897066862" Properties=species:S:1:pos:R:3 n_minim_iter=2 stress="0.07189972280043794 -2.3355325398240817e-17 1.927371003903567e-18 -2.3355325398240817e-17 0.07189972280043802 4.192358997477017e-18 1.927371003903567e-18 4.192358997477017e-18 0.0686040122278197" pbc="T T T"
Ti       0.00000000      -0.00000000      -0.00000000
Ti       0.00000000       1.73596282       2.45602595
