2
Lattice="2.806424400758954 -8.760766708537165e-16 5.284575217810499e-41 -1.403212200379476 2.4304348248577745 2.4243879194341454e-25 -2.5035156886980613e-40 -4.569827917622016e-25 4.581225976900654" Properties=species:S:1:pos:R:3 n_minim_iter=2 stress="-0.012416511151752331 -6.998568009740133e-18 6.509454148171196e-17 -6.998568009740133e-18 -0.012416511151752359 -4.200670151306259e-17 6.509454148171196e-17 -4.200670151306259e-17 -0.012363400881285068" pbc="T T T"
Ti      -0.00000000       0.00000000       0.00000000
Ti       0.00000000       1.62028988       2.29061299
