2
Lattice="5.036878549189042 -7.42534658111575e-17 2.3551023339087544e-15 -7.42534658111449e-17 5.036878549189042 -4.2351438207814935e-15 2.5184392745945203 2.518439274594523 1.4511626448314465" Properties=species:S:1:pos:R:3:forces:R:3 cutoff=-1.0 nneightol=1.2 n_minim_iter=1 energy=-325.4871668704998 stress="0.06901080681395118 2.1764504878212995e-17 -5.471343425856937e-17 2.1764504878212995e-17 0.06901080681395136 2.44603909275902e-16 -5.471343425856937e-17 2.44603909275902e-16 0.050588419608144884" free_energy=-325.4871668704998 pbc="T T T"
Si      -0.00000000      -1.25921964      -0.36279066       0.00000000      -0.00000000      -0.00000000
Si      -0.00000000       1.25921964       0.36279066      -0.00000000       0.00000000       0.00000000
2
Lattice="4.956193097932083 -9.585590076791683e-17 2.4598744766621045e-15 -9.585590076790475e-17 4.956193097932079 -4.040501102252963e-15 2.4780965489660405 2.4780965489660414 1.4987962976309712" Properties=species:S:1:pos:R:3:forces:R:3 cutoff=-1.0 nneightol=1.2 n_minim_iter=2 energy=-325.5000004310676 stress="0.057946345560662374 4.9991986457631216e-17 -4.9191925906059785e-17 4.9991986457631216e-17 0.0579463455606618 1.4994883706659584e-16 -4.9191925906059785e-17 1.4994883706659584e-16 0.05530499161090785" free_energy=-325.5000004310676 pbc="T T T"
Si      -0.00000000      -1.23904827      -0.37469907      -0.00000000      -0.00000000       0.00000000
Si      -0.00000000       1.23904828       0.37469907       0.00000000       0.00000000       0.00000000
