2
Lattice="4.99037482013575 -9.651699683638887e-17 2.4768396643284682e-15 -9.65169968363767e-17 4.990374820135746 -4.068367507679831e-15 2.495187410067874 2.495187410067875 1.5091331504680574" Properties=species:S:1:pos:R:3:forces:R:3 cutoff=-1.0 nneightol=1.2 n_minim_iter=2 energy=-325.5000004310676 stress="0.057946345560662374 4.9991986457631216e-17 -4.9191925906059785e-17 4.9991986457631216e-17 0.0579463455606618 1.4994883706659584e-16 -4.9191925906059785e-17 1.4994883706659584e-16 0.05530499161090785" free_energy=-325.5000004310676 pbc="T T T"
Si      -0.00000000      -1.24759370      -0.37728329      -0.00000000      -0.00000000       0.00000000
Si      -0.00000000       1.24759371       0.37728329       0.00000000       0.00000000       0.00000000
