2
Lattice="5.024094591781601 -9.716915848968497e-17 2.4935755751357186e-15 -9.716915848966486e-17 5.024094591781601 -4.0958573112065824e-15 2.5120472958908 2.5120472958908016 1.519330305401519" Properties=species:S:1:pos:R:3:forces:R:3 cutoff=-1.0 nneightol=1.2 n_minim_iter=1 energy=-325.4011263479516 stress="0.07437728699531689 3.0988237547461664e-17 8.564335586326721e-18 3.0988237547461664e-17 0.07437728699531695 -3.680508429457801e-17 8.564335586326721e-18 -3.680508429457801e-17 0.0667823189893901" free_energy=-325.4011263479516 pbc="T T T"
Si      -0.00000000      -1.25602365      -0.37983258       0.00000000      -0.00000000       0.00000000
Si      -0.00000000       1.25602365       0.37983258      -0.00000000       0.00000000      -0.00000000
