2
Lattice="4.88833405707068 1.8800442195332084e-17 1.735969996367001e-16 1.8800442195332386e-17 4.88833405707068 -2.5219534027871904e-16 2.44416702853534 2.44416702853534 1.3481100550704657" Properties=species:S:1:pos:R:3:forces:R:3 cutoff=-1.0 nneightol=1.2 n_minim_iter=1 energy=-325.7087169297333 stress="0.013924109047094091 -7.364444382628234e-17 -4.759477427357025e-17 -7.364444382628234e-17 0.01392410904709351 -8.740134978638506e-17 -4.759477427357025e-17 -8.740134978638506e-17 0.011673552338705782" free_energy=-325.7087169297333 pbc="T T T"
Si      -0.00000000      -1.22208351      -0.33702751       0.00000000       0.00000000      -0.00000000
Si      -0.00000000       1.22208352       0.33702751      -0.00000000      -0.00000000       0.00000000
