2
Lattice="4.5558640130591215 1.752176856723216e-17 1.6179015472068914e-16 1.752176856723256e-17 4.5558640130591215 -2.3504278996135795e-16 2.2779320065295607 2.2779320065295607 1.256421106625259" Properties=species:S:1:pos:R:3:forces:R:3 cutoff=-1.0 nneightol=1.2 n_minim_iter=1 energy=-325.5020515934506 stress="-0.1268269681207451 2.234425131063039e-18 3.6035337695399574e-17 2.234425131063039e-18 -0.12682696812074548 -1.6756045552388765e-17 3.6035337695399574e-17 -1.6756045552388765e-17 -0.11198013372109948" free_energy=-325.5020515934506 pbc="T T T"
Si      -0.00000000      -1.13896600      -0.31410528      -0.00000000      -0.00000000       0.00000000
Si      -0.00000000       1.13896600       0.31410528       0.00000000       0.00000000      -0.00000000
