2
Lattice="4.849225709226923 1.8650032214261335e-17 1.7220816414240636e-16 1.8650032214261634e-17 4.849225709226923 -2.5017769112114384e-16 2.4246128546134615 2.4246128546134615 1.3373247125898096" Properties=species:S:1:pos:R:3:forces:R:3 cutoff=-1.0 nneightol=1.2 n_minim_iter=1 energy=-325.7087169297333 stress="0.013924109047094091 -7.364444382628234e-17 -4.759477427357025e-17 -7.364444382628234e-17 0.01392410904709351 -8.740134978638506e-17 -4.759477427357025e-17 -8.740134978638506e-17 0.011673552338705782" free_energy=-325.7087169297333 pbc="T T T"
Si      -0.00000000      -1.21230643      -0.33433118       0.00000000       0.00000000      -0.00000000
Si      -0.00000000       1.21230643       0.33433118      -0.00000000      -0.00000000       0.00000000
