1
Lattice="2.930058795341071 -4.57814994924111e-17 -5.754743496950715e-58 1.4650293976705353 2.5375053513473973 -6.535556557250093e-57 1.611537636924665e-57 1.0208073681846485e-55 2.798267247501446" Properties=species:S:1:pos:R:3:forces:R:3 cutoff=-1.0 nneightol=1.2 n_minim_iter=1 energy=-3.639716997481226 stress="0.22504289876998734 -1.067253779691519e-17 7.039961027345981e-59 -1.067253779691519e-17 0.22504289876998715 6.705016440415181e-57 7.039961027345981e-59 6.705016440415181e-57 0.19898899281810156" free_energy=-3.639716997481226 pbc="T T T"
Si       0.00000000       0.00000000       0.00000000      -0.00000000       0.00000000       0.00000000
1
Lattice="2.922505403981423 -4.9680202193388484e-17 -8.31865743413992e-58 1.4612527019907113 2.530963922545217 -5.770895863226345e-57 1.3653686989219447e-57 1.0283785277730451e-55 2.8127505205042405" Properties=species:S:1:pos:R:3:forces:R:3 cutoff=-1.0 nneightol=1.2 n_minim_iter=2 energy=-3.641486040317645 stress="0.2139653415790675 -1.9210568034447324e-16 3.80223725624811e-59 -1.9210568034447324e-16 0.21396534157906769 7.122345151993001e-57 3.80223725624811e-59 7.122345151993001e-57 0.20707262134223098" free_energy=-3.641486040317645 pbc="T T T"
Si       0.00000000       0.00000000       0.00000000       0.00000000      -0.00000000      -0.00000000
