1
Lattice="2.7061815684699013 -2.623083183846104e-17 -2.114705788604945e-56 1.3530907842349504 2.3436219855481513 7.675964726246065e-56 1.5896416926919965e-55 -2.0997112640497255e-55 2.353336897774927" Properties=species:S:1:pos:R:3:forces:R:3 cutoff=-1.0 nneightol=1.2 n_minim_iter=1 energy=-3.341103037741904 stress="-0.4602271993969687 1.1876798764589127e-16 -2.4407366268513445e-18 1.1876798764589127e-16 -0.4602271993969682 3.7192177171068095e-18 -2.4407366268513445e-18 3.7192177171068095e-18 -0.41483938160169853" free_energy=-3.341103037741904 pbc="T T T"
Si       0.00000000       0.00000000       0.00000000       0.00000000       0.00000000       0.00000000
1
Lattice="2.7149254893474404 -3.0179558566810305e-17 -2.2144207206849174e-56 1.35746274467372 2.351194443156781 7.796475894979465e-56 1.5849239597576646e-55 -2.0837484619229907e-55 2.3382025929399854" Properties=species:S:1:pos:R:3:forces:R:3 cutoff=-1.0 nneightol=1.2 n_minim_iter=2 energy=-3.343225595767576 stress="-0.43455406977918165 -1.3034695842922775e-16 5.709580323527252e-18 -1.3034695842922775e-16 -0.4345540697791814 7.264097103724241e-19 5.709580323527252e-18 7.264097103724241e-19 -0.43592705745420257" free_energy=-3.343225595767576 pbc="T T T"
Si       0.00000000       0.00000000       0.00000000       0.00000000       0.00000000       0.00000000
