1
Lattice="2.916214219662888 -3.833133758166032e-17 -3.568829072927892e-58 1.458107109831444 2.525515597105474 -7.129182008533332e-57 3.5480409799687268e-59 7.18116135579136e-56 2.7634887124072125" Properties=species:S:1:pos:R:3:forces:R:3 cutoff=-1.0 nneightol=1.2 n_minim_iter=2 energy=-3.807537037132496 stress="0.15789380634300096 2.2315306302640872e-17 -1.8132601150153078e-59 2.2315306302640872e-17 0.1578938063430009 3.534134446125182e-57 -1.8132601150153078e-59 3.534134446125182e-57 0.152647066707948" free_energy=-3.807537037132496 pbc="T T T"
Si       0.00000000       0.00000000       0.00000000      -0.00000000       0.00000000       0.00000000
