1
Lattice="2.849437541676423 -4.298858054239842e-17 1.571813775215236e-59 1.4247187708382116 2.467685297588861 -8.022114059281801e-57 -4.404965960865064e-59 1.8724850040279594e-56 2.63723967534427" Properties=species:S:1:pos:R:3:forces:R:3 cutoff=-1.0 nneightol=1.2 n_minim_iter=2 energy=-3.948073263746328 stress="0.04795464336861968 1.6763693515154593e-16 -5.175027506420369e-61 1.6763693515154593e-16 0.04795464336861947 1.7033357259485523e-58 -5.175027506420369e-61 1.7033357259485523e-58 0.045962685269684986" free_energy=-3.948073263746328 pbc="T T T"
Si       0.00000000       0.00000000       0.00000000       0.00000000       0.00000000      -0.00000000
