8
Lattice="5.8651739947785355 3.325847551431034e-16 -5.041635106091154e-49 -2.932586997389268 5.07938967709407 4.063732010252946e-48 3.9767168560942115e-49 -3.471647907168348e-48 4.626303926831532" Properties=species:S:1:pos:R:3:tags:I:1 spacegroup="P 1" unit_cell=conventional n_minim_iter=1 energy=-9783.770186522328 free_energy=-9783.770186522328 pbc="T T T"
Ti       2.93258700       3.43482133       1.15657598        0
Ti      -1.50834462       4.25710805       3.46972794        1
Ti       1.50834463       4.25710805       3.46972794        2
Ti       1.42424238       0.82229180       1.15657598        3
Ti       4.44093163       0.82229180       1.15657598        4
Ti       0.00000001       1.64457852       3.46972794        5
Al       0.00000001       3.38626487       1.15657598        6
Al       2.93258700       1.69313498       3.46972794        7
8
Lattice="5.893292065494089 4.1618670385384576e-16 -3.5748728619762274e-49 -2.946646032747045 5.103740640639146 3.859786391753076e-48 2.7876964945084075e-49 -3.6044878282152054e-48 4.582263205894688" Properties=species:S:1:pos:R:3:tags:I:1 spacegroup="P 1" unit_cell=conventional n_minim_iter=2 stress="0.0215952253202648 4.0424159657417395e-16 -7.935107544268768e-17 4.0424159657417395e-16 0.021595225320265265 5.595804399409087e-17 -7.935107544268768e-17 5.595804399409087e-17 0.021717424097733428" pbc="T T T"
Ti       2.94664604       3.45148684       1.14556580        0
Ti      -1.51574784       4.27761629       3.43669740        1
Ti       1.51574785       4.27761629       3.43669740        2
Ti       1.43089820       0.82613456       1.14556580        3
Ti       4.46239388       0.82613456       1.14556580        4
Ti       0.00000001       1.65226402       3.43669740        5
Al       0.00000001       3.40249887       1.14556580        6
Al       2.94664604       1.70125199       3.43669740        7
8
Lattice="5.894018569946089 3.9189388240350465e-16 -3.703532534238312e-49 -2.947009284973045 5.104369811950541 3.859648755925515e-48 2.7203732615579774e-49 -3.5656710594989734e-48 4.581133643980612" Properties=species:S:1:pos:R:3:tags:I:1 spacegroup="P 1" unit_cell=conventional n_minim_iter=3 stress="0.0215210182692799 7.693183585487559e-17 1.0330142390072972e-16 7.693183585487559e-17 0.0215210182692799 -1.0311181933614326e-16 1.0330142390072972e-16 -1.0311181933614326e-16 0.020987152979244073" pbc="T T T"
Ti       2.94700929       3.45314991       1.14528341        0
Ti      -1.51700647       4.27876241       3.43585023        1
Ti       1.51700648       4.27876241       3.43585023        2
Ti       1.43000281       0.82561761       1.14528341        3
Ti       4.46401577       0.82561761       1.14528341        4
Ti       0.00000001       1.65123012       3.43585023        5
Al       0.00000001       3.40291832       1.14528341        6
Al       2.94700929       1.70146171       3.43585023        7
