8
Lattice="6.005991375200669 3.5724791272146503e-16 1.2461512805172695e-47 -3.0029956876003356 5.2013411058340155 -4.826889706005858e-48 -9.570128558364432e-48 -1.2449222918604984e-48 4.6124503886269395" Properties=species:S:1:pos:R:3:tags:I:1 spacegroup="P 1" unit_cell=conventional n_minim_iter=1 energy=-9783.592903700712 free_energy=-9783.592903700712 pbc="T T T"
Ti       3.00299569       3.52037805       1.15311259        0
Ti      -1.54723447       4.36086218       3.45933779        1
Ti       1.54723448       4.36086218       3.45933779        2
Ti       1.45576122       0.84048934       1.15311259        3
Ti       4.55023016       0.84048934       1.15311259        4
Ti       0.00000001       1.68097347       3.45933779        5
Al       0.00000001       3.46756594       1.15311259        6
Al       3.00299569       1.73378557       3.45933779        7
8
Lattice="6.02735892868978 3.054343832622444e-16 1.255047151523192e-47 -3.013679464344891 5.219845949972309 -4.922513275368055e-48 -9.495367656177414e-48 -1.0710857200437589e-48 4.579805216823711" Properties=species:S:1:pos:R:3:tags:I:1 spacegroup="P 1" unit_cell=conventional n_minim_iter=2 stress="0.03948434617519039 -2.3279062876128385e-17 -5.4147412469690774e-17 -2.3279062876128385e-17 0.039484346175191136 -5.080139850982917e-17 -5.4147412469690774e-17 -5.080139850982917e-17 0.03956640682205921" pbc="T T T"
Ti       3.01367947       3.53313023       1.14495130        0
Ti      -1.55293628       4.37649070       3.43485391        1
Ti       1.55293629       4.37649070       3.43485391        2
Ti       1.46074319       0.84336569       1.14495130        3
Ti       4.56661575       0.84336569       1.14495130        4
Ti       0.00000001       1.68672616       3.43485391        5
Al       0.00000001       3.47990252       1.14495130        6
Al       3.01367947       1.73995387       3.43485391        7
8
Lattice="6.027843401280104 2.765465606612487e-16 1.2756643416499518e-47 -3.0139217006400534 5.22026551554297 -8.468622789883218e-48 -9.336243274160693e-48 -2.9841076346585715e-48 4.579069066003568" Properties=species:S:1:pos:R:3:tags:I:1 spacegroup="P 1" unit_cell=conventional n_minim_iter=3 stress="0.03943409396776972 -6.598033263472145e-17 7.006243874150577e-17 -6.598033263472145e-17 0.03943409396777036 -3.986011215074521e-17 7.006243874150577e-17 -3.986011215074521e-17 0.038920391527011426" pbc="T T T"
Ti       3.01392171       3.53512499       1.14476726        0
Ti      -1.55454267       4.37769787       3.43430180        1
Ti       1.55454268       4.37769787       3.43430180        2
Ti       1.45937903       0.84257810       1.14476726        3
Ti       4.56846438       0.84257810       1.14476726        4
Ti       0.00000001       1.68515097       3.43430180        5
Al       0.00000001       3.48018224       1.14476726        6
Al       3.01392171       1.74009373       3.43430180        7
