8
Lattice="5.407058953344469 2.421214584863602e-16 8.240726287407059e-48 -2.7035294766722346 4.6826504133564075 -8.98074905770295e-48 -6.78778316992851e-48 4.622773266623341e-48 4.453726829685919" Properties=species:S:1:pos:R:3:tags:I:1 spacegroup="P 1" unit_cell=conventional n_minim_iter=1 energy=-9783.461173878 free_energy=-9783.461173878 pbc="T T T"
Ti       2.70352948       3.12460570       1.11343171        0
Ti      -1.35421911       3.90363040       3.34029512        1
Ti       1.35421912       3.90363040       3.34029512        2
Ti       1.34931036       0.77902939       1.11343171        3
Ti       4.05774860       0.77902939       1.11343171        4
Ti       0.00000000       1.55805408       3.34029512        5
Al       0.00000000       3.12177163       1.11343171        6
Al       2.70352948       1.56088816       3.34029512        7
8
Lattice="5.415360956162146 2.4368857041459387e-16 8.346291887891095e-48 -2.707680478081073 4.6898401586988046 -9.13449222323418e-48 -6.75381939198161e-48 4.800225739811104e-48 4.440081751954271" Properties=species:S:1:pos:R:3:tags:I:1 spacegroup="P 1" unit_cell=conventional n_minim_iter=2 stress="-0.09758338228808022 -1.3406697002373012e-16 -1.061938759875068e-17 -1.3406697002373012e-16 -0.09758338228807988 2.557144714081225e-18 -1.061938759875068e-17 2.557144714081225e-18 -0.09899519025682733" pbc="T T T"
Ti       2.70768048       3.12864281       1.11002044        0
Ti      -1.35563985       3.90924383       3.33006131        1
Ti       1.35563986       3.90924383       3.33006131        2
Ti       1.35204063       0.78060571       1.11002044        3
Ti       4.06332033       0.78060571       1.11002044        4
Ti       0.00000000       1.56120673       3.33006131        5
Al       0.00000000       3.12656480       1.11002044        6
Al       2.70768048       1.56328475       3.33006131        7
8
Lattice="5.414145108290799 2.4850828259183217e-16 8.526819361930145e-48 -2.7070725541453995 4.688787203555082 -9.442975768170648e-48 -6.384985635728265e-48 4.8221558764380805e-48 4.442076183208667" Properties=species:S:1:pos:R:3:tags:I:1 spacegroup="P 1" unit_cell=conventional n_minim_iter=3 stress="-0.09694138125715172 -6.819631185770609e-16 -4.086287067746762e-17 -6.819631185770609e-16 -0.096941381257151 -6.067646814716908e-17 -4.086287067746762e-17 -6.067646814716908e-17 -0.09694388986877372" pbc="T T T"
Ti       2.70707256       3.12232980       1.11051904        0
Ti      -1.35047658       3.90556085       3.33155714        1
Ti       1.35047659       3.90556085       3.33155714        2
Ti       1.35659597       0.78323574       1.11051904        3
Ti       4.05754914       0.78323574       1.11051904        4
Ti       0.00000000       1.56646679       3.33155714        5
Al       0.00000000       3.12586283       1.11051904        6
Al       2.70707256       1.56293376       3.33155714        7
