8
Lattice="5.614282401090397 2.33213804078179e-16 2.3264860591801024e-48 -2.8071412005451983 4.862111183364178 -2.1749216282527697e-48 -1.9020457913264946e-48 9.550639336465666e-49 4.590022007729434" Properties=species:S:1:pos:R:3:tags:I:1 spacegroup="P 1" unit_cell=conventional n_minim_iter=1 energy=-9783.949169585441 free_energy=-9783.949169585441 pbc="T T T"
Ti       2.80714121       3.27023853       1.14750550        0
Ti      -1.42853483       4.06617729       3.44251650        1
Ti       1.42853484       4.06617729       3.44251650        2
Ti       1.37860637       0.79594362       1.14750550        3
Ti       4.23567604       0.79594362       1.14750550        4
Ti       0.00000000       1.59188238       3.44251650        5
Al       0.00000000       3.24141232       1.14750550        6
Al       2.80714121       1.62070859       3.44251650        7
