8
Lattice="5.794666366856209 3.910693264638654e-16 2.0280480255211555e-48 -2.897333183428105 5.018328280152754 5.791483383730939e-49 -1.6210808185852745e-48 -1.470478100256222e-48 4.631854068149055" Properties=species:S:1:pos:R:3:tags:I:1 spacegroup="P 1" unit_cell=conventional n_minim_iter=1 energy=-9783.834297775766 free_energy=-9783.834297775766 pbc="T T T"
Ti       2.89733319       3.38954972       1.15796351        0
Ti      -1.48676522       4.20394151       3.47389055        1
Ti       1.48676523       4.20394151       3.47389055        2
Ti       1.41056797       0.81439681       1.15796351        3
Ti       4.38409841       0.81439681       1.15796351        4
Ti       0.00000001       1.62878861       3.47389055        5
Al       0.00000001       3.34555721       1.15796351        6
Al       2.89733319       1.67278112       3.47389055        7
8
Lattice="5.820245152998016 3.7395160167554944e-16 2.0843791568951737e-48 -2.9101225764990084 5.040480158749525 1.669183801771165e-48 -1.4970596961086e-48 -2.3408604158580516e-49 4.5912314276899115" Properties=species:S:1:pos:R:3:tags:I:1 spacegroup="P 1" unit_cell=conventional n_minim_iter=2 stress="0.0190422001371473 1.0830370488821743e-16 -4.999845525014602e-18 1.0830370488821743e-16 0.019042200137146664 -6.834253306693039e-17 -4.999845525014602e-18 -6.834253306693039e-17 0.01921477426967963" pbc="T T T"
Ti       2.91012258       3.40475169       1.14780785        0
Ti      -1.49353579       4.22261845       3.44342357        1
Ti       1.49353580       4.22261845       3.44342357        2
Ti       1.41658678       0.81787180       1.14780785        3
Ti       4.40365838       0.81787180       1.14780785        4
Ti       0.00000001       1.63573856       3.44342357        5
Al       0.00000001       3.36032515       1.14780785        6
Al       2.91012258       1.68016510       3.44342357        7
8
Lattice="5.82137801525119 3.4014217679882014e-16 6.813242367041074e-49 -2.910689007625596 5.041461246239764 4.032733450415104e-48 -9.455232554936171e-49 -4.0959543413389275e-48 4.589444659444808" Properties=species:S:1:pos:R:3:tags:I:1 spacegroup="P 1" unit_cell=conventional n_minim_iter=3 stress="0.018828470583136893 1.6482545118100052e-16 1.8915280848602674e-16 1.6482545118100052e-16 0.01882847058313684 -6.972532577539127e-17 1.8915280848602674e-16 -6.972532577539127e-17 0.01796274207723847" pbc="T T T"
Ti       2.91068901       3.40810731       1.14736116        0
Ti      -1.49615863       4.22478680       3.44208349        1
Ti       1.49615864       4.22478680       3.44208349        2
Ti       1.41453038       0.81668454       1.14736116        3
Ti       4.40684765       0.81668454       1.14736116        4
Ti       0.00000001       1.63336403       3.44208349        5
Al       0.00000001       3.36097921       1.14736116        6
Al       2.91068901       1.68049213       3.44208349        7
8
Lattice="5.820399928110764 3.3004584120590077e-16 -5.0031478409979686e-49 -2.910199964055383 5.040614197929041 4.032709945415823e-48 6.28954105397467e-49 -3.914755920385711e-48 4.59098725240214" Properties=species:S:1:pos:R:3:tags:I:1 spacegroup="P 1" unit_cell=conventional n_minim_iter=4 stress="0.01879990713428355 -3.2735682608045046e-16 6.8622090125714775e-18 -3.2735682608045046e-16 0.018799907134284078 -1.905119381866967e-17 6.8622090125714775e-18 -1.905119381866967e-17 0.018636179153980078" pbc="T T T"
Ti       2.91019997       3.40860030       1.14774681        0
Ti      -1.49683009       4.22460977       3.44324044        1
Ti       1.49683010       4.22460977       3.44324044        2
Ti       1.41336987       0.81601452       1.14774681        3
Ti       4.40703007       0.81601452       1.14774681        4
Ti       0.00000001       1.63202399       3.44324044        5
Al       0.00000001       3.36041451       1.14774681        6
Al       2.91019997       1.68020978       3.44324044        7
