8
Lattice="6.174340908542556 2.4551927431357606e-16 1.763721545157665e-47 -3.087170454271278 5.347136078423344 -1.456942243153063e-47 -1.355100466068315e-47 5.1019972174289765e-48 4.743862355031072" Properties=species:S:1:pos:R:3:tags:I:1 spacegroup="P 1" unit_cell=conventional n_minim_iter=1 energy=-9782.85413637474 free_energy=-9782.85413637474 pbc="T T T"
Ti       3.08717046       3.64144606       1.18596559        0
Ti      -1.60999493       4.49429375       3.55789676        1
Ti       1.60999494       4.49429375       3.55789676        2
Ti       1.47717552       0.85285304       1.18596559        3
Ti       4.69716540       0.85285304       1.18596559        4
Ti       0.00000001       1.70570072       3.55789676        5
Al       0.00000001       3.56476274       1.18596559        6
Al       3.08717046       1.78238404       3.55789676        7
8
Lattice="6.15127177507239 2.6346536905301066e-16 1.7380804720581234e-47 -3.075635887536195 5.327157622794886 -1.5857935629552094e-47 -1.3652765442880806e-47 5.736959964652586e-48 4.779510919560112" Properties=species:S:1:pos:R:3:tags:I:1 spacegroup="P 1" unit_cell=conventional n_minim_iter=2 stress="0.0741947393386834 9.29648521546204e-17 4.238349891488026e-17 9.29648521546204e-17 0.07419473933868326 5.018162080691945e-17 4.238349891488026e-17 5.018162080691945e-17 0.07435784501976632" pbc="T T T"
Ti       3.07563589       3.62836940       1.19487773        0
Ti      -1.60443751       4.47776618       3.58463319        1
Ti       1.60443752       4.47776618       3.58463319        2
Ti       1.47119838       0.84940211       1.19487773        3
Ti       4.68007341       0.84940211       1.19487773        4
Ti       0.00000001       1.69879888       3.58463319        5
Al       0.00000001       3.55144375       1.19487773        6
Al       3.07563589       1.77572454       3.58463319        7
8
Lattice="6.151289599844004 2.9022327125177125e-16 1.735364332461849e-47 -3.075644799922002 5.327173059499922 -1.5825301594840305e-47 -1.3644663749766913e-47 5.759784249080446e-48 4.7794832201433435" Properties=species:S:1:pos:R:3:tags:I:1 spacegroup="P 1" unit_cell=conventional n_minim_iter=3 stress="0.07369942023699202 1.0100464002264423e-16 -6.827953280373944e-17 1.0100464002264423e-16 0.07369942023699236 6.75676588186416e-17 -6.827953280373944e-17 6.75676588186416e-17 0.0738042028393113" pbc="T T T"
Ti       3.07564481       3.63273149       1.19487080        0
Ti      -1.60821074       4.47995494       3.58461241        1
Ti       1.60821075       4.47995494       3.58461241        2
Ti       1.46743406       0.84722878       1.19487080        3
Ti       4.68385555       0.84722878       1.19487080        4
Ti       0.00000001       1.69445223       3.58461241        5
Al       0.00000001       3.55145404       1.19487080        6
Al       3.07564481       1.77572968       3.58461241        7
8
Lattice="6.151468288174911 3.0560891702883083e-16 1.7359999187121935e-47 -3.0757341440874555 5.327327808133846 -1.6583212369173794e-47 -1.3639387786509807e-47 7.137382824057523e-48 4.779205554573068" Properties=species:S:1:pos:R:3:tags:I:1 spacegroup="P 1" unit_cell=conventional n_minim_iter=4 stress="0.0733465380662634 -1.0161516913880328e-17 -7.31111276664303e-18 -1.0161516913880328e-17 0.07334653806626394 -1.2738471569283302e-17 -7.31111276664303e-18 -1.2738471569283302e-17 0.07334006055761588" pbc="T T T"
Ti       3.07573415       3.63622511       1.19480139        0
Ti      -1.61119162       4.48177912       3.58440416        1
Ti       1.61119163       4.48177912       3.58440416        2
Ti       1.46454252       0.84555935       1.19480139        3
Ti       4.68692578       0.84555935       1.19480139        4
Ti       0.00000001       1.69111336       3.58440416        5
Al       0.00000001       3.55155720       1.19480139        6
Al       3.07573415       1.77578127       3.58440416        7
