8
Lattice="5.4535844140035765 2.4531009512853637e-16 8.157854696547433e-48 -2.7267922070017883 4.722942644209969 -6.605702527859806e-48 -6.730926604324066e-48 2.407325741664096e-48 4.499672743212643" Properties=species:S:1:pos:R:3:tags:I:1 spacegroup="P 1" unit_cell=conventional n_minim_iter=1 energy=-9783.705093133933 free_energy=-9783.705093133933 pbc="T T T"
Ti       2.72679221       3.15927694       1.12491818        0
Ti      -1.37261389       3.94111216       3.37475455        1
Ti       1.37261390       3.94111216       3.37475455        2
Ti       1.35417832       0.78183994       1.12491818        3
Ti       4.09940610       0.78183994       1.12491818        4
Ti       0.00000000       1.56367516       3.37475455        5
Al       0.00000000       3.14863316       1.12491818        6
Al       2.72679221       1.57431894       3.37475455        7
8
Lattice="5.4615919829288515 2.4956283510799564e-16 8.377606415203628e-48 -2.7307959914644258 4.7298774023218115 -7.416359629152387e-48 -6.372487867208193e-48 2.798557086145144e-48 4.4864879334307295" Properties=species:S:1:pos:R:3:tags:I:1 spacegroup="P 1" unit_cell=conventional n_minim_iter=2 stress="-0.06103924491724557 1.0763629590762359e-16 -1.537788744589789e-17 1.0763629590762359e-16 -0.061039244917243246 -6.953424125890694e-17 -1.537788744589789e-17 -6.953424125890694e-17 -0.06576907552272496" pbc="T T T"
Ti       2.73079600       3.16211390       1.12162198        0
Ti      -1.37306886       3.94599802       3.36486595        1
Ti       1.37306887       3.94599802       3.36486595        2
Ti       1.35772713       0.78388885       1.12162198        3
Ti       4.10386486       0.78388885       1.12162198        4
Ti       0.00000000       1.56777297       3.36486595        5
Al       0.00000000       3.15325634       1.12162198        6
Al       2.73079600       1.57663053       3.36486595        7
8
Lattice="5.458296340709922 2.4622405333297617e-16 8.447113757530299e-48 -2.729148170354961 4.727023292438434 -7.441277752685422e-48 -6.384927333133086e-48 2.794860035455895e-48 4.4919073250765065" Properties=species:S:1:pos:R:3:tags:I:1 spacegroup="P 1" unit_cell=conventional n_minim_iter=3 stress="-0.06156959373120992 -4.244843627113599e-16 -3.180997971030535e-16 -4.244843627113599e-16 -0.06156959373120915 2.4483245289220608e-18 -3.180997971030535e-16 2.4483245289220608e-18 -0.06313974928986053" pbc="T T T"
Ti       2.72914818       3.15722854       1.12297683        0
Ti      -1.36966193       3.94212828       3.36893049        1
Ti       1.36966194       3.94212828       3.36893049        2
Ti       1.35948624       0.78490447       1.12297683        3
Ti       4.09881011       0.78490447       1.12297683        4
Ti       0.00000000       1.56980422       3.36893049        5
Al       0.00000000       3.15135359       1.12297683        6
Al       2.72914818       1.57567916       3.36893049        7
8
Lattice="5.4566677698619666 2.4434288035592735e-16 8.316333504175063e-48 -2.7283338849309833 4.72561290871224 -9.063145853454121e-48 -6.196439967218937e-48 1.2177972431046158e-47 4.494588991356317" Properties=species:S:1:pos:R:3:tags:I:1 spacegroup="P 1" unit_cell=conventional n_minim_iter=4 stress="-0.06152394595453271 6.848637984267867e-17 7.438098923719764e-17 6.848637984267867e-17 -0.06152394595453115 -1.539545321904058e-16 7.438098923719764e-17 -1.539545321904058e-16 -0.06147263273312973" pbc="T T T"
Ti       2.72833389       3.15327341       1.12364725        0
Ti      -1.36664384       3.93944552       3.37094174        1
Ti       1.36664385       3.93944552       3.37094174        2
Ti       1.36169005       0.78617684       1.12364725        3
Ti       4.09497773       0.78617684       1.12364725        4
Ti       0.00000000       1.57234896       3.37094174        5
Al       0.00000000       3.15041334       1.12364725        6
Al       2.72833389       1.57520903       3.37094174        7
