8
Lattice="5.211955723180605 2.105536528275432e-16 8.980826422544326e-48 -2.6059778615903024 4.513686059674099 -7.49564503307589e-48 -7.341882212457561e-48 2.836863615699882e-48 4.260806658068689" Properties=species:S:1:pos:R:3:tags:I:1 spacegroup="P 1" unit_cell=conventional n_minim_iter=1 energy=-9780.616354982532 free_energy=-9780.616354982532 pbc="T T T"
Ti       2.60597787       2.99377738       1.06520166        0
Ti      -1.28969442       3.75373398       3.19560499        1
Ti       1.28969443       3.75373398       3.19560499        2
Ti       1.31628344       0.75996112       1.06520166        3
Ti       3.89567229       0.75996112       1.06520166        4
Ti       0.00000000       1.51991771       3.19560499        5
Al       0.00000000       3.00912856       1.06520166        6
Al       2.60597787       1.50456654       3.19560499        7
8
Lattice="5.199042403822397 1.9562838160062053e-16 8.938492657611821e-48 -2.5995212019111986 4.502502797062709 -7.59325876823428e-48 -7.43851152186117e-48 2.808422142354242e-48 4.281998825112672" Properties=species:S:1:pos:R:3:tags:I:1 spacegroup="P 1" unit_cell=conventional n_minim_iter=2 stress="-0.4013572546272292 -1.0830561244026577e-16 1.8815306174104397e-16 -1.0830561244026577e-16 -0.40135725462722904 1.1169477330703902e-16 1.8815306174104397e-16 1.1169477330703902e-16 -0.4000879842057128" pbc="T T T"
Ti       2.59952121       2.98542719       1.07049970        0
Ti      -1.28569128       3.74396725       3.21149912        1
Ti       1.28569129       3.74396725       3.21149912        2
Ti       1.31382992       0.75854456       1.07049970        3
Ti       3.88521249       0.75854456       1.07049970        4
Ti       0.00000000       1.51708462       3.21149912        5
Al       0.00000000       3.00167304       1.07049970        6
Al       2.59952121       1.50083877       3.21149912        7
8
Lattice="5.199684414953197 1.8975646705052988e-16 8.94738463074953e-48 -2.5998422074765983 4.503058795011494 -7.542297159818597e-48 -7.433239405071896e-48 2.822350272017767e-48 4.280941483562036" Properties=species:S:1:pos:R:3:tags:I:1 spacegroup="P 1" unit_cell=conventional n_minim_iter=3 stress="-0.39954666644297804 -3.270982516398142e-17 1.5568552758887922e-16 -3.270982516398142e-17 -0.3995466664429762 -4.398628290220809e-17 1.5568552758887922e-16 -4.398628290220809e-17 -0.3996968735927075" pbc="T T T"
Ti       2.59984221       2.98086246       1.07023537        0
Ti      -1.28157760       3.74196288       3.21070611        1
Ti       1.28157761       3.74196288       3.21070611        2
Ti       1.31826460       0.76110493       1.07023537        3
Ti       3.88141982       0.76110493       1.07023537        4
Ti       0.00000000       1.52220535       3.21070611        5
Al       0.00000000       3.00204370       1.07023537        6
Al       2.59984221       1.50102411       3.21070611        7
