8
Lattice="5.265691013557083 2.127244620737145e-16 9.073418789261837e-48 -2.6328455067785415 4.560222186219862 -7.572925172011058e-48 -7.425296893949057e-48 2.885108833728144e-48 4.304735596680168" Properties=species:S:1:pos:R:3:tags:I:1 spacegroup="P 1" unit_cell=conventional n_minim_iter=3 stress="-0.30083541250403095 3.9971674740975846e-16 1.9263408916162391e-16 3.9971674740975846e-16 -0.30083541250402923 -1.8433693956526724e-17 1.9263408916162391e-16 -1.8433693956526724e-17 -0.3005586607951714" pbc="T T T"
Ti       2.63284551       3.02464324       1.07618390        0
Ti      -1.30299117       3.79243500       3.22855170        1
Ti       1.30299118       3.79243500       3.22855170        2
Ti       1.32985433       0.76779632       1.07618390        3
Ti       3.93583669       0.76779632       1.07618390        4
Ti       0.00000000       1.53558807       3.22855170        5
Al       0.00000000       3.04015269       1.07618390        6
Al       2.63284551       1.52007863       3.22855170        7
