8
Lattice="5.211955723180605 2.1055365282754316e-16 8.980826422544326e-48 -2.6059778615903024 4.513686059674099 -7.49564503307589e-48 -7.349523271132861e-48 2.8556668933353307e-48 4.260806658068689" Properties=species:S:1:pos:R:3:tags:I:1 spacegroup="P 1" unit_cell=conventional n_minim_iter=3 stress="-0.30083541250403095 3.9971674740975846e-16 1.9263408916162391e-16 3.9971674740975846e-16 -0.30083541250402923 -1.8433693956526724e-17 1.9263408916162391e-16 -1.8433693956526724e-17 -0.3005586607951714" pbc="T T T"
Ti       2.60597787       2.99377738       1.06520166        0
Ti      -1.28969442       3.75373398       3.19560499        1
Ti       1.28969443       3.75373398       3.19560499        2
Ti       1.31628344       0.75996112       1.06520166        3
Ti       3.89567229       0.75996112       1.06520166        4
Ti       0.00000000       1.51991771       3.19560499        5
Al       0.00000000       3.00912856       1.06520166        6
Al       2.60597787       1.50456654       3.19560499        7
