8
Lattice="5.820399928110764 3.3004584120590077e-16 -5.0031478409979686e-49 -2.910199964055383 5.040614197929041 4.032709945415823e-48 6.28954105397467e-49 -3.914755920385711e-48 4.59098725240214" Properties=species:S:1:pos:R:3:tags:I:1 spacegroup="P 1" unit_cell=conventional n_minim_iter=4 stress="0.01879990713428355 -3.2735682608045046e-16 6.8622090125714775e-18 -3.2735682608045046e-16 0.018799907134284078 -1.905119381866967e-17 6.8622090125714775e-18 -1.905119381866967e-17 0.018636179153980078" pbc="T T T"
Ti       2.91019997       3.40860030       1.14774681        0
Ti      -1.49683009       4.22460977       3.44324044        1
Ti       1.49683010       4.22460977       3.44324044        2
Ti       1.41336987       0.81601452       1.14774681        3
Ti       4.40703007       0.81601452       1.14774681        4
Ti       0.00000001       1.63202399       3.44324044        5
Al       0.00000001       3.36041451       1.14774681        6
Al       2.91019997       1.68020978       3.44324044        7
