8
Lattice="5.267958657102677 2.1524653924647008e-16 9.085528274353638e-48 -2.6339793285513387 4.562186023137076 -7.603533613624382e-48 -6.394929652932391e-48 8.582522066237692e-48 4.301030364525586" Properties=species:S:1:pos:R:3:tags:I:1 spacegroup="P 1" unit_cell=conventional n_minim_iter=4 stress="-0.21545066158253476 -4.8543745425437795e-17 1.5155231650015757e-16 -4.8543745425437795e-17 -0.2154506615825351 -2.821489306208479e-16 1.5155231650015757e-16 -2.821489306208479e-16 -0.21504296438408338" pbc="T T T"
Ti       2.63397933       3.02904731       1.07525759        0
Ti      -1.30623830       3.79561895       3.22577277        1
Ti       1.30623831       3.79561895       3.22577277        2
Ti       1.32774103       0.76657620       1.07525759        3
Ti       3.94021764       0.76657620       1.07525759        4
Ti       0.00000000       1.53314784       3.22577277        5
Al       0.00000000       3.04146191       1.07525759        6
Al       2.63397933       1.52073324       3.22577277        7
