8
Lattice="5.199684414953197 1.8975646705052988e-16 8.94738463074953e-48 -2.5998422074765983 4.503058795011494 -7.542297159818597e-48 -7.433239405071896e-48 2.822350272017767e-48 4.280941483562036" Properties=species:S:1:pos:R:3:tags:I:1 spacegroup="P 1" unit_cell=conventional n_minim_iter=3 stress="-0.39954666644297804 -3.270982516398142e-17 1.5568552758887922e-16 -3.270982516398142e-17 -0.3995466664429762 -4.398628290220809e-17 1.5568552758887922e-16 -4.398628290220809e-17 -0.3996968735927075" pbc="T T T"
Ti       2.59984221       2.98086246       1.07023537        0
Ti      -1.28157760       3.74196288       3.21070611        1
Ti       1.28157761       3.74196288       3.21070611        2
Ti       1.31826460       0.76110493       1.07023537        3
Ti       3.88141982       0.76110493       1.07023537        4
Ti       0.00000000       1.52220535       3.21070611        5
Al       0.00000000       3.00204370       1.07023537        6
Al       2.59984221       1.50102411       3.21070611        7
