8
Lattice="5.8651739947785355 3.3258475514310337e-16 -5.041635106091154e-49 -2.9325869973892686 5.079389677094069 4.063732010252945e-48 6.337924040356802e-49 -3.944870610910816e-48 4.626303926831532" Properties=species:S:1:pos:R:3:tags:I:1 spacegroup="P 1" unit_cell=conventional n_minim_iter=4 stress="0.01879990713428355 -3.2735682608045046e-16 6.8622090125714775e-18 -3.2735682608045046e-16 0.018799907134284078 -1.905119381866967e-17 6.8622090125714775e-18 -1.905119381866967e-17 0.018636179153980078" pbc="T T T"
Ti       2.93258700       3.43482133       1.15657598        0
Ti      -1.50834462       4.25710805       3.46972794        1
Ti       1.50834463       4.25710805       3.46972794        2
Ti       1.42424238       0.82229180       1.15657598        3
Ti       4.44093163       0.82229180       1.15657598        4
Ti       0.00000001       1.64457852       3.46972794        5
Al       0.00000001       3.38626487       1.15657598        6
Al       2.93258700       1.69313498       3.46972794        7
