8
Lattice="5.022023920647328 7.775200450202034e-17 2.4283448424160504e-47 -2.511011960323664 4.349200293693712 -2.6263101395164516e-47 -2.8189741708418056e-47 -2.1253173703710017e-47 4.302362360034003" Properties=species:S:1:pos:R:3:tags:I:1 spacegroup="P 1" unit_cell=conventional n_minim_iter=6 stress="-0.4365374135920319 -7.526447604901771e-17 6.092144565342914e-16 -7.526447604901771e-17 -0.43653741359202913 -2.583578523490284e-16 6.092144565342914e-16 -2.583578523490284e-16 -0.436711042635832" pbc="T T T"
Ti       2.51101196       2.83831744       1.07559059        0
Ti      -1.20254525       3.59376104       3.22677177        1
Ti       1.20254526       3.59376104       3.22677177        2
Ti       1.30846671       0.75544796       1.07559059        3
Ti       3.71355722       0.75544796       1.07559059        4
Ti       0.00000000       1.51089156       3.22677177        5
Al       0.00000000       2.89947122       1.07559059        6
Al       2.51101196       1.44973778       3.22677177        7
