8
Lattice="6.174340908542556 2.4551927431357606e-16 1.7637215451576653e-47 -3.0871704542712783 5.347136078423343 -1.4569422431530628e-47 -1.3518758754917248e-47 5.187965041912046e-48 4.743862355031072" Properties=species:S:1:pos:R:3:tags:I:1 spacegroup="P 1" unit_cell=conventional n_minim_iter=4 stress="0.06713562069572435 2.0438283111472075e-16 -1.2908617110818844e-16 2.0438283111472075e-16 0.06713562069572435 1.2293427982946127e-16 -1.2908617110818844e-16 1.2293427982946127e-16 0.0671304852377752" pbc="T T T"
Ti       3.08717046       3.64144606       1.18596559        0
Ti      -1.60999493       4.49429375       3.55789676        1
Ti       1.60999494       4.49429375       3.55789676        2
Ti       1.47717552       0.85285304       1.18596559        3
Ti       4.69716540       0.85285304       1.18596559        4
Ti       0.00000001       1.70570072       3.55789676        5
Al       0.00000001       3.56476274       1.18596559        6
Al       3.08717046       1.78238404       3.55789676        7
