8
Lattice="5.894018569946089 3.9189388240350465e-16 -3.703532534238312e-49 -2.947009284973045 5.104369811950541 3.859648755925515e-48 2.7203732615579774e-49 -3.5656710594989734e-48 4.581133643980612" Properties=species:S:1:pos:R:3:tags:I:1 spacegroup="P 1" unit_cell=conventional n_minim_iter=3 stress="0.0215210182692799 7.693183585487559e-17 1.0330142390072972e-16 7.693183585487559e-17 0.0215210182692799 -1.0311181933614326e-16 1.0330142390072972e-16 -1.0311181933614326e-16 0.020987152979244073" pbc="T T T"
Ti       2.94700929       3.45314991       1.14528341        0
Ti      -1.51700647       4.27876241       3.43585023        1
Ti       1.51700648       4.27876241       3.43585023        2
Ti       1.43000281       0.82561761       1.14528341        3
Ti       4.46401577       0.82561761       1.14528341        4
Ti       0.00000001       1.65123012       3.43585023        5
Al       0.00000001       3.40291832       1.14528341        6
Al       2.94700929       1.70146171       3.43585023        7
