8
Lattice="5.077215415949485 7.860649055366253e-17 2.455032087455088e-47 -2.5386077079747427 4.396997530698229 -2.655173001585107e-47 -2.849954389607244e-47 -2.1486743765334304e-47 4.349644853254662" Properties=species:S:1:pos:R:3:tags:I:1 spacegroup="P 1" unit_cell=conventional n_minim_iter=6 stress="-0.4365374135920319 -7.526447604901771e-17 6.092144565342914e-16 -7.526447604901771e-17 -0.43653741359202913 -2.583578523490284e-16 6.092144565342914e-16 -2.583578523490284e-16 -0.436711042635832" pbc="T T T"
Ti       2.53860771       2.86951023       1.08741121        0
Ti      -1.21576109       3.63325608       3.26223364        1
Ti       1.21576110       3.63325608       3.26223364        2
Ti       1.32284662       0.76375025       1.08741121        3
Ti       3.75436881       0.76375025       1.08741121        4
Ti       0.00000000       1.52749610       3.26223364        5
Al       0.00000000       2.93133609       1.08741121        6
Al       2.53860771       1.46567024       3.26223364        7
