8
Lattice="5.414145108290799 2.4850828259183217e-16 8.526819361930145e-48 -2.7070725541453995 4.688787203555082 -9.442975768170648e-48 -6.384985635728265e-48 4.8221558764380805e-48 4.442076183208667" Properties=species:S:1:pos:R:3:tags:I:1 spacegroup="P 1" unit_cell=conventional n_minim_iter=3 stress="-0.09694138125715172 -6.819631185770609e-16 -4.086287067746762e-17 -6.819631185770609e-16 -0.096941381257151 -6.067646814716908e-17 -4.086287067746762e-17 -6.067646814716908e-17 -0.09694388986877372" pbc="T T T"
Ti       2.70707256       3.12232980       1.11051904        0
Ti      -1.35047658       3.90556085       3.33155714        1
Ti       1.35047659       3.90556085       3.33155714        2
Ti       1.35659597       0.78323574       1.11051904        3
Ti       4.05754914       0.78323574       1.11051904        4
Ti       0.00000000       1.56646679       3.33155714        5
Al       0.00000000       3.12586283       1.11051904        6
Al       2.70707256       1.56293376       3.33155714        7
