8
Lattice="6.786525193359725 0.0 0.0 0.0 6.844802635332383 -2.5030254355120797e-16 0.0 2.481714387210823e-16 6.786525193359727" Properties=species:S:1:pos:R:3 unique_starting_index=2 config_type=initial n_minim_iter=1 energy=-1303.502555762434 free_energy=-1303.502555762434 pbc="T T T"
Si       3.50643650       2.46245426       4.34303369
Si       3.28127128       2.46245426       2.44225466
Si       4.34424341       4.38181974       3.28006157
Si       2.44346437       4.38181974       3.50522678
Si       6.67453388       4.38181974       0.94977110
Si       0.11317390       4.38181974       5.83551725
Si       5.83672697       2.46245426       6.67332416
Si       0.95098081       2.46245426       0.11196419
8
Lattice="6.79684623574395 -7.919343972941896e-80 -4.462910834002324e-65 3.73308613011934e-80 6.870880804400923 -2.466846056747039e-16 -1.4104453774032036e-63 2.5309016746962344e-16 6.796846235743951" Properties=species:S:1:pos:R:3 unique_starting_index=2 config_type=initial n_minim_iter=2 stress="0.014237116266541687 -7.328051473855165e-13 -4.726879732463516e-13 -7.328051473855165e-13 0.0048615824847362665 1.4466275612366083e-12 -4.726879732463516e-13 1.4466275612366083e-12 0.014237116265858309" pbc="T T T"
Si       3.51102777       2.47493131       4.34925437
Si       3.28700285       2.47493131       2.44635314
Si       4.35046593       4.39541885       3.28579130
Si       2.44756470       4.39541885       3.50981621
Si       6.68542597       4.39541885       0.95083125
Si       0.11260465       4.39541885       5.84477626
Si       5.84598781       2.47493131       6.68421441
Si       0.95204281       2.47493131       0.11139310
8
Lattice="6.79379417104715 -8.674237308850545e-78 4.219579598203446e-62 -5.73844601706229e-78 6.902541694767998 -2.7694274231443647e-16 2.122674332276648e-62 2.2517049574258714e-16 6.793794171047149" Properties=species:S:1:pos:R:3 unique_starting_index=2 config_type=initial n_minim_iter=3 stress="-0.0012259852413510483 9.342132439958927e-13 -1.5719797147108122e-12 9.342132439958927e-13 0.009743271919122326 -2.5157384912800013e-13 -1.5719797147108122e-12 -2.5157384912800013e-13 -0.0012259852390415645" pbc="T T T"
Si       3.50823170       2.49119748       4.34617287
Si       3.28674632       2.49119748       2.44638313
Si       4.34738388       4.41081113       3.28553531
Si       2.44759415       4.41081113       3.50702069
Si       6.68364341       4.41081113       0.94927578
Si       0.11133462       4.41081113       5.84328022
Si       5.84449123       2.49119748       6.68243240
Si       0.95048679       2.49119748       0.11012361
8
Lattice="6.796564476350423 -8.555416228212841e-78 5.510784154501519e-62 -1.443494635655714e-77 6.887202081283339 -2.891280350160989e-16 2.1457995888480897e-61 2.1241802314012561e-16 6.796564476350422" Properties=species:S:1:pos:R:3 unique_starting_index=2 config_type=initial n_minim_iter=4 stress="0.0015336258788068546 1.0255819639245246e-13 -2.9157616845443062e-12 1.0255819639245246e-13 -0.0010506308670106045 1.518718936125167e-14 -2.9157616845443062e-12 1.518718936125167e-14 0.001533625878576724" pbc="T T T"
Si       3.50827923       2.49137760       4.34789597
Si       3.28946959       2.49137760       2.44742983
Si       4.34910748       4.39529258       3.28825808
Si       2.44864134       4.39529258       3.50706772
Si       6.68775182       4.39529258       0.94961373
Si       0.10999699       4.39529258       5.84571207
Si       5.84692357       2.49137760       6.68654032
Si       0.95082524       2.49137760       0.10878548
8
Lattice="6.773952610755069 -8.726982922735923e-78 3.2000341319298288e-62 -1.9332244565074364e-77 6.9032105282730285 -3.026319128014873e-16 3.2881715763346896e-61 1.986822917917957e-16 6.773952610755069" Properties=species:S:1:pos:R:3 unique_starting_index=2 config_type=initial n_minim_iter=5 stress="-0.0003793201581081986 -1.5762935242855284e-12 -1.0855860285935e-12 -1.5762935242855284e-12 -9.243373770288003e-06 1.0876497097785277e-12 -1.0855860285935e-12 1.0876497097785277e-12 -0.0003793201582632439" pbc="T T T"
Si       3.49501554       2.50172440       4.33704816
Si       3.28011747       2.50172440       2.43566990
Si       4.33825563       4.40095299       3.27891000
Si       2.43687738       4.40095299       3.49380806
Si       6.66709378       4.40095299       0.95007185
Si       0.10803923       4.40095299       5.82264620
Si       5.82385368       2.50172440       6.66588630
Si       0.95127933       2.50172440       0.10683175
8
Lattice="6.761015092532833 -9.18047270924711e-77 2.790221041029111e-59 -5.7253796105635e-76 6.939008206227067 -3.4342494378416553e-16 1.3529855201126551e-59 1.5857427692677057e-16 6.761015092532835" Properties=species:S:1:pos:R:3 unique_starting_index=2 config_type=initial n_minim_iter=6 stress="0.01864660529574469 -2.3336550973612066e-12 2.228101199930263e-12 -2.3336550973612066e-12 -0.0005288676469247403 1.3591184348323907e-12 2.228101199930263e-12 1.3591184348323907e-12 0.018646605293680205" pbc="T T T"
Si       3.43485836       2.52399438       4.33632312
Si       3.32733488       2.52399438       2.42345977
Si       4.33752829       4.41447792       3.32612971
Si       2.42466494       4.41447792       3.43365319
Si       6.70784242       4.41447792       0.95581558
Si       0.05435081       4.41447792       5.80396732
Si       5.80517249       2.52399438       6.70663725
Si       0.95702075       2.52399438       0.05314564
8
Lattice="6.759622393649982 3.7484788577053216e-50 -2.836191056009901e-35 -2.2554140411960455e-50 6.9249116675197 -3.49154352426433e-16 1.986275861677921e-34 1.5249498429857146e-16 6.759622393649981" Properties=species:S:1:pos:R:3 unique_starting_index=2 config_type=initial n_minim_iter=7 stress="0.00381071458894501 -2.625727272379512e-12 5.00093616207339e-14 -2.625727272379512e-12 0.005650477060456455 -5.791834103825634e-13 5.00093616207339e-14 -5.791834103825634e-13 0.0038107145876199303" pbc="T T T"
Si       3.40641201       2.50786321       4.33542628
Si       3.35438828       2.50786321       2.42296417
Si       4.33663120       4.41651365       3.35318336
Si       2.42416910       4.41651365       3.40520709
Si       6.73419948       4.41651365       0.95561508
Si       0.02660082       4.41651365       5.80277537
Si       5.80398029       2.50786321       6.73299456
Si       0.95682000       2.50786321       0.02539589
8
Lattice="6.758144419199065 3.79207427699132e-50 -2.8355709299622305e-35 -2.251443013342221e-50 6.920228462622405 -4.517337716143372e-16 1.985841567451843e-34 5.0626325165122964e-17 6.7581444191990645" Properties=species:S:1:pos:R:3 unique_starting_index=2 config_type=initial n_minim_iter=8 stress="0.0049603919441811965 7.229876436500281e-14 -8.752736603815359e-13 7.229876436500281e-14 0.0018457322999355342 6.800040499106359e-13 -8.752736603815359e-13 6.800040499106359e-13 0.004960391949651444" pbc="T T T"
Si       3.39255354       2.50816136       4.33505898
Si       3.36676852       2.50816136       2.42185377
Si       4.33626363       4.41153265       3.36556386
Si       2.42305843       4.41153265       3.39134888
Si       6.74584073       4.41153265       0.95598677
Si       0.01348133       4.41153265       5.80092598
Si       5.80213064       2.50816136       6.74463607
Si       0.95719142       2.50816136       0.01227667
8
Lattice="6.759693467801416 2.401340495861344e-50 -8.865179217441007e-35 -9.916752683741598e-51 6.915796587063338 -4.562931342412128e-16 2.1636420825450802e-34 4.621848068654633e-17 6.759693467801415" Properties=species:S:1:pos:R:3 unique_starting_index=2 config_type=initial n_minim_iter=9 stress="-0.00015021179799740188 -2.1502909469930158e-12 3.8070011707666365e-13 -2.1502909469930158e-12 -0.0007739327128928823 -1.290462376922193e-12 3.8070011707666365e-13 -1.290462376922193e-12 -0.00015021179812835483" pbc="T T T"
Si       3.39206105       2.50715364       4.33530812
Si       3.36881034       2.50715364       2.42315339
Si       4.33651306       4.40810883       3.36760540
Si       2.42435832       4.40810883       3.39085611
Si       6.74865707       4.40810883       0.95546139
Si       0.01221431       4.40810883       5.80300012
Si       5.80420506       2.50715364       6.74745214
Si       0.95666632       2.50715364       0.01100938
8
Lattice="6.758891051924382 2.3356325298893995e-50 -8.930639526088882e-35 -9.94161534962442e-51 6.9187773425821 -4.10619658015943e-16 2.156733979520277e-34 9.146918164495017e-17 6.7588910519243806" Properties=species:S:1:pos:R:3 unique_starting_index=2 config_type=initial n_minim_iter=10 stress="0.0011987027416333854 1.0999360116330545e-12 -1.0046227333808962e-12 1.0999360116330545e-12 -0.00048492835749105995 -2.5284500306653227e-12 -1.0046227333808962e-12 -2.5284500306653227e-12 0.0011987027424736243" pbc="T T T"
Si       3.38083864       2.50892807       4.33509579
Si       3.37923018       2.50892807       2.42256345
Si       4.33630058       4.40931493       3.37802539
Si       2.42376825       4.40931493       3.37963385
Si       6.75867571       4.40931493       0.95565026
Si       0.00139312       4.40931493       5.80200898
Si       5.80321377       2.50892807       6.75747092
Si       0.95685505       2.50892807       0.00018833
8
Lattice="6.759170819531947 2.2801575260552954e-50 -8.576275010666887e-35 -9.33365901012935e-51 6.91924463967103 -3.9676434681533497e-16 2.1213498344788732e-34 1.0522955057984758e-16 6.7591708195319455" Properties=species:S:1:pos:R:3 unique_starting_index=2 config_type=initial n_minim_iter=11 stress="0.00017989654069406957 4.639320396539873e-13 -1.1470169688337508e-12 4.639320396539873e-13 -0.00011092386723222453 6.617325216770051e-13 -1.1470169688337508e-12 6.617325216770051e-13 0.00017989654295259144" pbc="T T T"
Si       3.38062066       2.50882855       4.33513059
Si       3.37972798       2.50882855       2.42280837
Si       4.33633543       4.40988171       3.37852314
Si       2.42401321       4.40988171       3.37941582
Si       6.75931339       4.40988171       0.95554518
Si       0.00103525       4.40988171       5.80239378
Si       5.80359862       2.50882855       6.75810855
Si       0.95675002       2.50882855      -0.00016959
8
Lattice="6.759233156186395 2.294052109954874e-50 -8.598524991693657e-35 -9.355614934651006e-51 6.91942128603904 -4.031878671494072e-16 2.1224779429947195e-34 9.886680045408015e-17 6.759233156186393" Properties=species:S:1:pos:R:3 unique_starting_index=2 config_type=initial n_minim_iter=12 stress="9.35835885715856e-06 -1.4115140953603127e-12 1.6217307843122829e-12 -1.4115140953603127e-12 6.897030426219493e-06 -1.1382018119274878e-12 1.6217307843122829e-12 -1.1382018119274878e-12 9.358357070559317e-06" pbc="T T T"
Si       3.38020111       2.50882735       4.33514367
Si       3.38020988       2.50882735       2.42285761
Si       4.33634853       4.41005955       3.37900503
Si       2.42406246       4.41005955       3.37899625
Si       6.75982646       4.41005955       0.95552710
Si       0.00058453       4.41005955       5.80247419
Si       5.80367904       2.50882735       6.75862161
Si       0.95673195       2.50882735      -0.00062033
