2
Lattice="2.8360339064124953 -6.717710191322387e-17 2.8360339064124953 2.8360339064124953 2.8360339064124953 4.29074403690121e-17 6.047299350809525e-17 2.8360339064124953 2.8360339064124953" Properties=species:S:1:pos:R:3:forces:R:3 n_minim_iter=1 energy=-326.2234786612578 stress="0.04762993542829484 -1.2076801796754644e-16 1.0934978089423068e-16 -1.2076801796754644e-16 0.04762993542829493 3.3949901636999326e-16 1.0934978089423068e-16 3.3949901636999326e-16 0.047629935428294815" free_energy=-326.2234786612578 pbc="T T T"
Si       0.00000000       0.00000000       0.00000000       0.00000000       0.00000000      -0.00000000
Si       1.41801695       1.41801695       1.41801695      -0.00000000      -0.00000000       0.00000000
