2
Lattice="2.8360339064124958 -6.717710191322388e-17 2.8360339064124958 2.8360339064124958 2.8360339064124958 4.29074403690121e-17 6.047299350809526e-17 2.8360339064124958 2.8360339064124958" Properties=species:S:1:pos:R:3:forces:R:3 n_minim_iter=1 energy=-326.2690345773137 stress="0.0400752076153823 -3.504951646043605e-17 1.0345999887738412e-16 -3.504951646043605e-17 0.040075207615382406 1.83398560300829e-17 1.0345999887738412e-16 1.83398560300829e-17 0.04007520761538233" free_energy=-326.2690345773137 pbc="T T T"
Si       0.00000000       0.00000000       0.00000000       0.00000000       0.00000000      -0.00000000
Si       1.41801695       1.41801695       1.41801695      -0.00000000      -0.00000000      -0.00000000
