2
Lattice="2.676873004398226 -6.340705949199688e-17 2.676873004398226 2.676873004398226 2.676873004398226 4.0499434281068596e-17 5.707919198390024e-17 2.676873004398226 2.676873004398226" Properties=species:S:1:pos:R:3:forces:R:3 n_minim_iter=1 energy=-326.3417811070042 stress="-0.019305799103131717 -3.71687890340235e-16 2.880374471727213e-16 -3.71687890340235e-16 -0.01930579910313179 -2.8517099117932336e-16 2.880374471727213e-16 -2.8517099117932336e-16 -0.019305799103131557" free_energy=-326.3417811070042 pbc="T T T"
Si       0.00000000       0.00000000       0.00000000      -0.00000000       0.00000000      -0.00000000
Si       1.33843650       1.33843650       1.33843650       0.00000000      -0.00000000       0.00000000
