2
Lattice="2.5040501868575724 -7.830612822716943e-16 8.507319548282591e-41 -1.2520250934287853 2.1685710741698285 2.163175683988691e-25 -3.1721124587341218e-40 -4.4154719672911405e-25 4.4264850321447" Properties=species:S:1:pos:R:3 n_minim_iter=1 energy=-3186.0821531919764 free_energy=-3186.0821531919764 pbc="T T T"
Ti       0.00000000       0.00000000       0.00000000
Ti       0.00000000       1.44571405       2.21324252
2
Lattice="2.4942157559961284 -7.788743967142485e-16 9.28276792026181e-41 -1.2471078779980633 2.1600542072120565 2.1546800069383677e-25 -3.053588987398234e-40 -4.450360096862374e-25 4.46146017964662" Properties=species:S:1:pos:R:3 n_minim_iter=2 stress="-0.3503686289305249 -9.914708583726917e-17 2.0877669300518876e-16 -9.914708583726917e-17 -0.35036862893052656 -2.175256235397566e-15 2.0877669300518876e-16 -2.175256235397566e-15 -0.36433837182057444" pbc="T T T"
Ti       0.00000000      -0.00000000      -0.00000000
Ti       0.00000000       1.44003614       2.23073009
