2
Lattice="3.0588654758860665 -9.727980980435838e-16 5.212202837955608e-41 -1.5294327379430324 2.64905520887651 2.6424643774144923e-25 -2.3626019682926275e-40 -4.833005165546479e-25 4.845059641199368" Properties=species:S:1:pos:R:3 n_minim_iter=1 stress="0.10801208128278869 -3.1716155754207543e-18 -1.1839143497278493e-17 -3.1716155754207543e-18 0.10801208128278893 5.302717497080412e-18 -1.1839143497278493e-17 5.302717497080412e-18 0.10237733517192367" pbc="T T T"
Ti       0.00000000       0.00000000       0.00000000
Ti       0.00000000       1.76603681       2.42252982
