2
Lattice="2.973257495462618 -9.455725527589679e-16 5.066329748069075e-41 -1.486628747731308 2.5749165230631226 2.5685101481505125e-25 -1.9551669820299454e-40 -4.697744620465249e-25 4.709461729429782" Properties=species:S:1:pos:R:3 n_minim_iter=1 stress="0.05568944830072089 1.4949413308385646e-17 1.7120799354127337e-17 1.4949413308385646e-17 0.055689448300720916 2.01435882618031e-17 1.7120799354127337e-17 2.01435882618031e-17 0.060049562341540394" pbc="T T T"
Ti       0.00000000       0.00000000       0.00000000
Ti       0.00000000       1.71661102       2.35473086
