2
Lattice="2.6455738050106996 -8.43347277871687e-16 6.213511521080313e-41 -1.3227869025053491 2.291134122725925 2.2854337965080475e-25 -1.8389652394541797e-40 -4.351270788998333e-25 4.3621237233504555" Properties=species:S:1:pos:R:3 n_minim_iter=2 stress="-0.21916421751417503 -1.1026345628727886e-17 -5.2186321875089197e-17 -1.1026345628727886e-17 -0.2191642175141758 4.927218460233735e-17 -5.2186321875089197e-17 4.927218460233735e-17 -0.22207506526127715" pbc="T T T"
Ti      -0.00000000       0.00000000       0.00000000
Ti       0.00000000       1.52742275       2.18106186
