2
Lattice="2.5040501868575724 -7.830612822716942e-16 8.507319548282591e-41 -1.2520250934287855 2.168571074169828 2.1631756839886904e-25 -2.5314164738037237e-40 -4.415471967291133e-25 4.4264850321447" Properties=species:S:1:pos:R:3 n_minim_iter=2 stress="-0.30390484264019313 1.3548542861098989e-17 1.0523605140001438e-16 1.3548542861098989e-17 -0.3039048426401975 1.356018150105321e-16 1.0523605140001438e-16 1.356018150105321e-16 -0.30297154622269695" pbc="T T T"
Ti      -0.00000000       0.00000000       0.00000000
Ti       0.00000000       1.44571405       2.21324252
