2
Lattice="2.7854514456320074 -8.858453860965059e-16 4.746314620359414e-41 -1.392725722816003 2.412271712925408 2.40626999720155e-25 -2.1514228461215408e-40 -4.401011202108788e-25 4.411988198939272" Properties=species:S:1:pos:R:3 n_minim_iter=1 stress="-0.076360023819844 -1.734156099312133e-16 -1.9688964018077553e-16 -1.734156099312133e-16 -0.07636002381984547 1.0415652325191364e-16 -1.9688964018077553e-16 1.0415652325191364e-16 -0.08032317291454272" pbc="T T T"
Ti       0.00000000       0.00000000       0.00000000
Ti       0.00000000       1.60818114       2.20599410
