2
Lattice="2.7080373927376935 -8.612257210569315e-16 4.614403704572404e-41 -1.3540186963688459 2.3452291765090196 2.339394262162808e-25 -2.7133647889886837e-40 -4.278697056399018e-25 4.2893689774348465" Properties=species:S:1:pos:R:3 n_minim_iter=1 stress="-0.13576489400655425 -2.509540908465888e-16 6.104322094579157e-17 -2.509540908465888e-16 -0.13576489400655636 -3.473421893053111e-17 6.104322094579157e-17 -3.473421893053111e-17 -0.1397587760788314" pbc="T T T"
Ti       0.00000000       0.00000000       0.00000000
Ti       0.00000000       1.56348612       2.14468449
