2
Lattice="2.6812233801263856 -8.526981736133352e-16 4.568713538158939e-41 -1.3406116900631921 2.322007560410231 2.3162304212879817e-25 -2.0709193278543352e-40 -4.236330936515324e-25 4.246897188026055" Properties=species:S:1:pos:R:3 n_minim_iter=1 stress="-0.178514186494831 -4.755701902788645e-16 1.6473487174218856e-16 -4.755701902788645e-16 -0.17851418649483125 -1.903686638860614e-16 1.6473487174218856e-16 -1.903686638860614e-16 -0.18858822370043657" pbc="T T T"
Ti       0.00000000       0.00000000       0.00000000
Ti       0.00000000       1.54800504       2.12344859
