16
Lattice="6.806349505963903 -0.9947964457541464 -0.7991150314070048 -0.17762910394164755 5.367065707176916 -0.5947851807484381 0.23813195031899448 0.5136966409024988 9.967867443392878" Properties=species:S:1:pos:R:3 unique_starting_index=30 config_type=initial n_minim_iter=1 energy=-2621.524883236525 free_energy=-2621.524883236525 pbc="T T T"
Si       3.73029762       3.08598255       5.00553999
Si       3.13655473       1.79998336       3.56842724
Si       1.52516676       2.40352870       2.51656354
Si       5.34168560       2.48243720       6.05740369
Si       4.52261055       2.65912677       7.90379896
Si       2.34424181       2.22683914       0.67016827
Si       4.21544912       2.13380077      -0.06360666
Si       2.65140323       2.75216513       8.63757389
Si       1.77519869       2.97927169       4.47792960
Si       5.09165366       1.90669422       4.09603763
Si       6.92310562       2.36426619       4.81038805
Si      -0.05625327       2.52169971       3.76357918
Si       1.31192804       1.07757473       4.01660433
Si       5.55492432       3.80839117       4.55736290
Si       3.43388164       3.86406012      -0.73232290
Si       3.43297072       1.02190579       9.30629013
16
Lattice="6.805029062176083 -0.9961156058210402 -0.797884276089352 -0.1802801841533333 5.3572221221188805 -0.5956290023496136 0.2393728894774689 0.5110794114593082 9.967584578314566" Properties=species:S:1:pos:R:3 unique_starting_index=30 config_type=initial n_minim_iter=2 stress="-0.009187859179932669 -0.0005139208043655949 -0.0012805121675103642 -0.0005139208043655949 -0.011706846495078724 -0.0006377640078058207 -0.0012805121675103642 -0.0006377640078058207 -0.005179229192094707" pbc="T T T"
Si       3.72863147       3.07768332       5.00574376
Si       3.13549029       1.79450261       3.56832754
Si       1.52409546       2.39776948       2.51621221
Si       5.34002631       2.47441645       6.05785909
Si       4.52139223       2.65073105       7.90339728
Si       2.34272953       2.22145488       0.67067402
Si       4.21320042       2.12810695      -0.06314221
Si       2.65092135       2.74407898       8.63721351
Si       1.77404649       2.97184465       4.47747505
Si       5.09007527       1.90034128       4.09659625
Si       6.92172490       2.35531723       4.81096484
Si      -0.05760313       2.51686870       3.76310646
Si       1.31195130       1.07456841       4.01630702
Si       5.55217047       3.79761752       4.55776428
Si       3.43108929       3.85507377      -0.73211456
Si       3.43303248       1.01711216       9.30618586
16
Lattice="6.813347320132188 -0.999177351807102 -0.7957010938477999 -0.18353159332034544 5.355117712071333 -0.5966652567963503 0.24341130432923358 0.5098498384998771 9.97576904730014" Properties=species:S:1:pos:R:3 unique_starting_index=30 config_type=initial n_minim_iter=3 stress="0.01145248069244735 -0.005942718608886848 -0.0010476945875938083 -0.005942718608886848 -0.007629293978558919 -0.0010054030150619764 -0.0010476945875938083 -0.0010054030150619764 0.011390332657951202" pbc="T T T"
Si       3.73331201       3.07413522       5.01168949
Si       3.13991503       1.79165498       3.57171321
Si       1.52584699       2.39547056       2.51824849
Si       5.34738004       2.47031964       6.06515421
Si       4.52852418       2.64652753       7.91036449
Si       2.34470285       2.21926267       0.67303821
Si       4.21699742       2.12584552      -0.06129792
Si       2.65622961       2.73994468       8.64470061
Si       1.77658766       2.96895055       4.48132828
Si       5.09663937       1.89683965       4.10207441
Si       6.93242109       2.34924747       4.81749703
Si      -0.05919406       2.51654273       3.76590567
Si       1.31496419       1.07320481       4.01946906
Si       5.55826284       3.79258539       4.56393364
Si       3.43304467       3.85164795      -0.73105698
Si       3.44018236       1.01414225       9.31445968
16
Lattice="6.808809694633238 -0.9977024623358319 -0.7903507434645305 -0.1823246025192486 5.35731359632008 -0.5960505649901 0.25021115978318814 0.5104628402215071 9.966588523358935" Properties=species:S:1:pos:R:3 unique_starting_index=30 config_type=initial n_minim_iter=4 stress="0.003300790632986954 -0.00279618723193403 0.00639714006860227 -0.00279618723193403 -0.003906104044771859 0.0015271789305030719 0.00639714006860227 0.0015271789305030719 0.0008639199231241834" pbc="T T T"
Si       3.73525104       3.07677423       5.01072760
Si       3.14144521       1.79329974       3.56945962
Si       1.52773051       2.39651057       2.51647850
Si       5.34896575       2.47356340       6.06370872
Si       4.53193800       2.64915557       7.90476448
Si       2.34475825       2.22091840       0.67542273
Si       4.21508124       2.12937527      -0.05796538
Si       2.66161502       2.74069871       8.63815260
Si       1.77990348       2.97055464       4.47802611
Si       5.09679277       1.89951934       4.10216110
Si       6.93517539       2.35075088       4.81779468
Si      -0.05847914       2.51932309       3.76239254
Si       1.31763824       1.07432038       4.01557553
Si       5.55905802       3.79575360       4.56461168
Si       3.43207037       3.85425339      -0.72684211
Si       3.44462588       1.01582058       9.30702933
16
Lattice="6.80490043105036 -0.9940754775425555 -0.801226271546365 -0.17845714210097738 5.359478001951724 -0.5991278733290615 0.233341686855939 0.5043874341330156 9.96495901654613" Properties=species:S:1:pos:R:3 unique_starting_index=30 config_type=initial n_minim_iter=5 stress="0.0009927188627241895 0.0011679260400877763 -0.0024487036048906337 0.0011679260400877763 -0.005220316547466025 0.0021406394498292166 -0.0024487036048906337 0.0021406394498292166 0.004350443554553087" pbc="T T T"
Si       3.72497870       3.07655237       5.00337780
Si       3.13480627       1.79323759       3.56122707
Si       1.52382287       2.39605594       2.51182575
Si       5.33596210       2.47373402       6.05277912
Si       4.51639375       2.64732233       7.89363600
Si       2.34339123       2.22246763       0.67096887
Si       4.21326882       2.13351119      -0.06655816
Si       2.64651615       2.73627877       8.63116303
Si       1.77310072       2.96937813       4.47207670
Si       5.08668426       1.90041183       4.09252817
Si       6.92571070       2.35051689       4.80422378
Si      -0.06592572       2.51927307       3.76038110
Si       1.31013790       1.07320056       4.01101430
Si       5.54964708       3.79658940       4.55359057
Si       3.43291043       3.85781346      -0.73397592
Si       3.42687455       1.01197650       9.29858079
16
Lattice="6.804360634858598 -0.9985559587511537 -0.8025315907234613 -0.18195890747222762 5.364722283790748 -0.6064815867218688 0.22781430411979206 0.489826448595428 9.955330011461063" Properties=species:S:1:pos:R:3 unique_starting_index=30 config_type=initial n_minim_iter=6 stress="0.0011072726078939304 -0.0057030978279188765 -0.002325293854328323 -0.0057030978279188765 -0.00036321975179421815 -0.004828679279977926 -0.002325293854328323 -0.004828679279977926 -0.004227095293530833" pbc="T T T"
Si       3.71845844       3.06911480       4.99398931
Si       3.13175759       1.78687798       3.55232753
Si       1.51987683       2.39280547       2.50512946
Si       5.33033920       2.46318730       6.04118738
Si       4.50884467       2.63447126       7.88013712
Si       2.34137136       2.22152151       0.66617971
Si       4.21075460       2.13270922      -0.07240475
Si       2.63946144       2.72328355       8.61872158
Si       1.76853988       2.96369430       4.46197671
Si       5.08167615       1.89229848       4.08434012
Si       6.92160594       2.33911143       4.79343867
Si      -0.07138991       2.51688135       3.75287816
Si       1.30620898       1.06795751       4.00362646
Si       5.54400705       3.78803526       4.54269038
Si       3.42919842       3.85975802      -0.73991931
Si       3.42101761       0.99623475       9.28623615
16
Lattice="6.792677569481328 -0.9909278418708007 -0.7996948107936745 -0.17722616495117618 5.370682211892489 -0.6253084104846142 0.2291053476125033 0.4573094951514262 9.969998700336944" Properties=species:S:1:pos:R:3 unique_starting_index=30 config_type=initial n_minim_iter=7 stress="-0.0029995216510694265 -0.0001231901768998973 0.001779307500974575 -0.0001231901768998973 -0.002245963234165366 -0.0017828994684182232 0.001779307500974575 -0.0017828994684182232 -0.0003925269245053338" pbc="T T T"
Si       3.71126652       3.06057808       5.00301227
Si       3.13329023       1.77648578       3.54198321
Si       1.51367723       2.38561185       2.50163984
Si       5.33087953       2.45145201       6.04335564
Si       4.50092912       2.61437448       7.88367504
Si       2.34362763       2.22268938       0.66132044
Si       4.20594466       2.14158926      -0.08302268
Si       2.63861210       2.69547461       8.62801816
Si       1.77013846       2.95344922       4.45365774
Si       5.07441829       1.88361465       4.09133774
Si       6.92169791       2.32590493       4.79898279
Si      -0.07714116       2.51115894       3.74601269
Si       1.29788801       1.06351509       3.99461342
Si       5.54666874       3.77354878       4.55038206
Si       3.42381677       3.86968047      -0.74706100
Si       3.42073998       0.96738339       9.29205648
16
Lattice="6.795525170053884 -0.9937280551636201 -0.8034802712379685 -0.1795320602909656 5.369467872191989 -0.626814450342886 0.22177491779090136 0.45305698499220604 9.96102657277606" Properties=species:S:1:pos:R:3 unique_starting_index=30 config_type=initial n_minim_iter=8 stress="0.010499453225030467 0.0009176733334326641 -0.0011371154122629711 0.0009176733334326641 -0.005818932728321944 0.006782496691428087 -0.0011371154122629711 0.006782496691428087 -0.017171718888560988" pbc="T T T"
Si       3.70805309       3.05646275       4.99908298
Si       3.12971493       1.77233405       3.53164887
Si       1.50858637       2.38285772       2.49584151
Si       5.32918165       2.44593908       6.03489034
Si       4.49499557       2.60825600       7.87105340
Si       2.34277245       2.22054080       0.65967845
Si       4.20738634       2.14051867      -0.09017548
Si       2.63038168       2.68827813       8.62090733
Si       1.76625747       2.95274474       4.44423020
Si       5.07151056       1.87605206       4.08650165
Si       6.92196368       2.31780807       4.79099522
Si      -0.08419565       2.51098873       3.73973663
Si       1.29116461       1.06211012       3.98356455
Si       5.54660342       3.76668668       4.54716730
Si       3.42152024       3.86695632      -0.74715045
Si       3.41624779       0.96184049       9.27788230
16
Lattice="6.759259497102078 -1.0055184669857256 -0.8073928598081129 -0.1894989824708154 5.377203541572115 -0.6531221096407291 0.2114135106680781 0.4080306197432397 9.996017260436583" Properties=species:S:1:pos:R:3 unique_starting_index=30 config_type=initial n_minim_iter=9 stress="-0.004397638116598784 -0.0009450378633501413 -0.0008250332836741848 -0.0009450378633501413 0.008176017624867119 0.004369686879511153 -0.0008250332836741848 0.004369686879511153 0.0001065792427462132" pbc="T T T"
Si       3.68064228       3.02983193       5.01397681
Si       3.10053174       1.74988376       3.52152548
Si       1.48493844       2.37056132       2.48668098
Si       5.29623558       2.40915437       6.04882131
Si       4.45655663       2.56561274       7.87903891
Si       2.32461740       2.21410296       0.65646338
Si       4.18306495       2.13875842      -0.11285496
Si       2.59810907       2.64095727       8.64835725
Si       1.74727700       2.94114532       4.43593262
Si       5.03389703       1.83857037       4.09956967
Si       6.88251067       2.27692968       4.79945785
Si      -0.10133664       2.50278601       3.73604444
Si       1.26660604       1.04490135       3.97321820
Si       5.51456798       3.73481434       4.56228410
Si       3.38831590       3.86594040      -0.75940509
Si       3.39285812       0.91377529       9.29490738
16
Lattice="6.7547997631710865 -0.9960439347951474 -0.8037529448865549 -0.18579025923292586 5.373460038023003 -0.6787889491941198 0.21142625428910478 0.36109588057497194 10.004389058385515" Properties=species:S:1:pos:R:3 unique_starting_index=30 config_type=initial n_minim_iter=10 stress="0.005374930744538717 0.010639347229473677 0.00198789006882257 0.010639347229473677 0.007562998850979227 -0.0023764116045888292 0.00198789006882257 -0.0023764116045888292 -0.0012059118448562451" pbc="T T T"
Si       3.68386323       3.00374385       5.01043719
Si       3.09657253       1.73476813       3.51140998
Si       1.48103915       2.35817373       2.47329900
Si       5.29939661       2.38033826       6.04854816
Si       4.45433545       2.52900804       7.87301066
Si       2.32610031       2.20950394       0.64883650
Si       4.18572540       2.14459216      -0.12800705
Si       2.59471036       2.59391983       8.64985421
Si       1.74891244       2.92241066       4.42016409
Si       5.03152332       1.81610132       4.10168307
Si       6.88447225       2.25296013       4.79650379
Si      -0.10403650       2.48555185       3.72534337
Si       1.25941297       1.02795828       3.96232791
Si       5.52102279       3.71055370       4.55951926
Si       3.38694609       3.86895979      -0.77142623
Si       3.39348967       0.86955219       9.29327339
16
Lattice="6.719434008401495 -1.0422126405874486 -0.8226669039338784 -0.2242038590527648 5.3703261874548955 -0.7139279391066432 0.17517592813259256 0.2977548104570299 10.05062688685431" Properties=species:S:1:pos:R:3 unique_starting_index=30 config_type=initial n_minim_iter=11 stress="0.002033965366519823 0.00814920016060764 -0.0019664989729180193 0.00814920016060764 0.016190331588694817 0.0015025124792182119 -0.0019664989729180193 0.0015025124792182119 0.005902846406165862" pbc="T T T"
Si       3.63025465       2.93215664       5.02046519
Si       3.04015142       1.69371171       3.49356685
Si       1.42970432       2.33083214       2.45304737
Si       5.24070176       2.29503622       6.06098467
Si       4.37020835       2.44375866       7.88071674
Si       2.30019772       2.18210970       0.63331531
Si       4.15263648       2.12890539      -0.16743728
Si       2.51776959       2.49696297       8.68146932
Si       1.70302724       2.89212966       4.39871191
Si       4.96737884       1.73373869       4.11532013
Si       6.81839361       2.15482209       4.79283206
Si      -0.14798753       2.47104627       3.72119999
Si       1.20860658       1.00026158       3.93869939
Si       5.46179950       3.62560678       4.57533265
Si       3.33160516       3.85227008      -0.78635726
Si       3.33880092       0.77359827       9.30038931
16
Lattice="6.702200426946338 -1.0853174330341433 -0.8304736085932272 -0.26333207853985274 5.351386964523016 -0.7437583255946161 0.15403333686158377 0.24048070896106877 10.072069428841592" Properties=species:S:1:pos:R:3 unique_starting_index=30 config_type=initial n_minim_iter=12 stress="0.011297254658308872 0.010792694748199345 -0.002484445044344581 0.010792694748199345 0.01528268556740766 0.0014967966871645237 -0.002484445044344581 0.0014967966871645237 0.006284270504654828" pbc="T T T"
Si       3.58887157       2.85154006       5.02475559
Si       3.00403011       1.65501018       3.47308191
Si       1.38871851       2.29971045       2.42831441
Si       5.20418318       2.20683979       6.06952309
Si       4.30776907       2.35813644       7.87553650
Si       2.28513261       2.14841380       0.62230100
Si       4.12669689       2.10443271      -0.19432393
Si       2.46620479       2.40211753       8.69216143
Si       1.66963764       2.86064337       4.37636432
Si       4.92326404       1.64590687       4.12147317
Si       6.77906501       2.05632339       4.78525541
Si      -0.18616333       2.45022685       3.71258208
Si       1.16178578       0.96925062       3.91171548
Si       5.43111590       3.53729962       4.58612202
Si       3.28468109       3.82204980      -0.79431825
Si       3.30822059       0.68450044       9.29215574
16
Lattice="6.687371868581187 -1.1418632125591934 -0.8346863204305802 -0.3119533773094764 5.334033377756475 -0.7629357828487894 0.1382690140651865 0.20137953270650474 10.079791100864417" Properties=species:S:1:pos:R:3 unique_starting_index=30 config_type=initial n_minim_iter=13 stress="0.010156620562037448 0.0063161157919813075 0.003087656760625713 0.0063161157919813075 0.012838998495469713 0.0032842477904960034 0.003087656760625713 0.0032842477904960034 0.00305031893918219" pbc="T T T"
Si       3.55204918       2.76849128       5.03305188
Si       2.96163833       1.62505842       3.44911712
Si       1.34909345       2.27254073       2.40881599
Si       5.16459406       2.12100896       6.07335300
Si       4.24777056       2.28178073       7.86310251
Si       2.26591695       2.11176897       0.61906649
Si       4.10132370       2.07079691      -0.21000294
Si       2.41236380       2.32275279       8.69217194
Si       1.63474956       2.83319546       4.35577649
Si       4.87893795       1.56035424       4.12639251
Si       6.73943341       1.95910132       4.77649313
Si      -0.22574591       2.43444838       3.70567587
Si       1.11322374       0.94871085       3.88539087
Si       5.40046377       3.44483885       4.59677812
Si       3.23054295       3.78985674      -0.79559117
Si       3.28314455       0.60369295       9.27776017
16
Lattice="6.67008209046925 -1.2379809478444304 -0.8318238559060305 -0.39214074559550427 5.312355841131194 -0.7750954008784261 0.1353290667812594 0.17710207720839474 10.11620733124663" Properties=species:S:1:pos:R:3 unique_starting_index=30 config_type=initial n_minim_iter=14 stress="0.004740877878615854 -0.007964767281471129 0.010796451761326082 -0.007964767281471129 -0.002362128491594421 -0.0009418777907294117 0.010796451761326082 -0.0009418777907294117 -0.002139653208401621" pbc="T T T"
Si       3.50705816       2.65746662       5.07150890
Si       2.90621225       1.59401035       3.43777917
Si       1.29579205       2.24999879       2.40082409
Si       5.11747836       2.00147818       6.10846398
Si       4.17499309       2.19344058       7.89245913
Si       2.23827733       2.05803639       0.61682895
Si       4.05728199       2.02090280      -0.22252963
Si       2.35598842       2.23057417       8.73181771
Si       1.59325033       2.80251471       4.36026528
Si       4.82002008       1.44896226       4.14902280
Si       6.69170450       1.82911083       4.79389128
Si      -0.27843409       2.42236614       3.71539680
Si       1.05777469       0.92578716       3.88259733
Si       5.35549572       3.32568981       4.62669074
Si       3.15204870       3.72835534      -0.78700965
Si       3.26122171       0.52312163       9.29629772
16
Lattice="6.667356707164055 -1.3481466409787926 -0.8231165403718965 -0.4710818252293044 5.325529652422725 -0.7180879016171207 0.15057300559628303 0.27765873401455554 10.083883512979606" Properties=species:S:1:pos:R:3 unique_starting_index=30 config_type=initial n_minim_iter=15 stress="-0.0003724411368486279 -0.011703172743768203 -0.0022422816950094016 -0.011703172743768203 -0.016078921938556767 -0.003151166795305546 -0.0022422816950094016 -0.003151166795305546 -0.010481812642852903" pbc="T T T"
Si       3.45939842       2.63357351       5.08624941
Si       2.88744946       1.62146823       3.45642966
Si       1.25976548       2.28439209       2.42124582
Si       5.08708241       1.97064966       6.12143326
Si       4.14693038       2.22355256       7.89018666
Si       2.19991751       2.03148919       0.65249241
Si       4.02408104       1.98330784      -0.18769609
Si       2.32276685       2.27173390       8.73037516
Si       1.56942626       2.82873078       4.39906679
Si       4.77742163       1.42631097       4.14361228
Si       6.64434637       1.79656382       4.80243334
Si      -0.29749848       2.45847792       3.74024573
Si       1.03417439       0.96202835       3.90650187
Si       5.31267350       3.29301340       4.63617720
Si       3.09350292       3.67626595      -0.74733042
Si       3.25334497       0.57877579       9.29000949
16
Lattice="6.667194696550522 -1.415937713093272 -0.7922909670845555 -0.5192175926037635 5.3703403941341525 -0.7056509791309385 0.19632319235269924 0.30593094233652995 10.097478634814305" Properties=species:S:1:pos:R:3 unique_starting_index=30 config_type=initial n_minim_iter=16 stress="0.019096059992301812 -0.007359422362622219 -0.00037660570873741144 -0.007359422362622219 -0.014396010045056867 0.0025730581763038062 -0.00037660570873741144 0.0025730581763038062 0.013520420675424133" pbc="T T T"
Si       3.46227121       2.60707648       5.14267337
Si       2.88202909       1.65325714       3.45686332
Si       1.25213405       2.31742541       2.45257593
Si       5.09216624       1.94290821       6.14696076
Si       4.16124772       2.23473981       7.91896648
Si       2.18305258       2.02559381       0.68057021
Si       4.00416558       1.98228275      -0.16943452
Si       2.34013472       2.27805087       8.76897121
Si       1.57533027       2.84619600       4.42593218
Si       4.76897002       1.41413762       4.17360451
Si       6.63819003       1.77200898       4.84366009
Si      -0.29388974       2.48832464       3.75587660
Si       1.03133927       0.98420627       3.93144794
Si       5.31296103       3.27612736       4.66808875
Si       3.05715436       3.65798476      -0.73093507
Si       3.28714593       0.60234886       9.33047176
16
Lattice="6.637209441198111 -1.4705879428443942 -0.7669235730935019 -0.5620935232266602 5.387645446864558 -0.7131221240364839 0.23094340797604357 0.296720875366629 10.131459594278759" Properties=species:S:1:pos:R:3 unique_starting_index=30 config_type=initial n_minim_iter=17 stress="0.01838208411582138 -0.0025993291818755637 0.005554545416375471 -0.0025993291818755637 -0.004930382958049908 0.0012801785437459644 0.005554545416375471 0.0012801785437459644 0.01707339012185752" pbc="T T T"
Si       3.44510329       2.54718808       5.19392883
Si       2.86095604       1.66659030       3.45748507
Si       1.23303621       2.32942084       2.46802952
Si       5.07302311       1.88435754       6.18338437
Si       4.14701850       2.20667708       7.95422973
Si       2.15904082       2.00710130       0.69718416
Si       3.97936408       1.97234624      -0.16915286
Si       2.32669525       2.24143214       8.82056676
Si       1.57600657       2.84299114       4.44972110
Si       4.73005276       1.37078724       4.20169280
Si       6.61216963       1.72097655       4.88835237
Si      -0.30611030       2.49280183       3.76306153
Si       1.01557231       0.98803678       3.93976956
Si       5.29048702       3.22574159       4.71164434
Si       3.00181553       3.63632560      -0.72551644
Si       3.30424380       0.57745278       9.37693033
16
Lattice="6.625155020298658 -1.4738135630106137 -0.7668717999531502 -0.5634664597613015 5.3943984876424835 -0.7141994327369212 0.2304005244946559 0.29549986429771413 10.133375548676911" Properties=species:S:1:pos:R:3 unique_starting_index=30 config_type=initial n_minim_iter=18 stress="0.008620763437167901 -0.001040700647813771 0.0019721677806267693 -0.001040700647813771 0.004603739251988409 0.0016814398385950422 0.0019721677806267693 0.0016814398385950422 0.013234731509386899" pbc="T T T"
Si       3.43534640       2.54393452       5.20138151
Si       2.85674268       1.67215027       3.45092281
Si       1.23281407       2.33813432       2.46721176
Si       5.05927501       1.87795046       6.18509256
Si       4.13704876       2.20839136       7.95533012
Si       2.15504032       2.00769343       0.69697419
Si       3.97458399       1.97799483      -0.17268036
Si       2.31750510       2.23808996       8.82498468
Si       1.56699666       2.84763405       4.45398155
Si       4.72509243       1.36845073       4.19832276
Si       6.59819440       1.72170806       4.88600138
Si      -0.30610531       2.49437672       3.76630293
Si       1.01527061       0.99107335       3.93936725
Si       5.27681847       3.22501144       4.71293707
Si       2.99266161       3.63838032      -0.73038545
Si       3.29942748       0.57770447       9.38268977
16
Lattice="6.633913978339549 -1.4244335099826106 -0.7702008121351481 -0.5231767549036631 5.39659204309254 -0.7059484540172752 0.22799028442528413 0.30935053827329917 10.102776023491861" Properties=species:S:1:pos:R:3 unique_starting_index=30 config_type=initial n_minim_iter=19 stress="-0.023659868911268908 0.013882897856418896 -0.0048972499239042545 0.013882897856418896 0.0115900013256118 0.003411170173195076 -0.0048972499239042545 0.003411170173195076 -0.014405393751383477" pbc="T T T"
Si       3.45271135       2.58427964       5.17915306
Si       2.88601616       1.69722943       3.44747370
Si       1.26729577       2.35967022       2.46478123
Si       5.07143174       1.92183885       6.16184552
Si       4.15815861       2.25308067       7.93503776
Si       2.18056890       2.02842840       0.69158900
Si       3.99948515       2.00627131      -0.16708016
Si       2.33924236       2.27523777       8.79370692
Si       1.58776814       2.86407210       4.44673587
Si       4.75095936       1.41743697       4.17989088
Si       6.61581996       1.78525611       4.86875524
Si      -0.27709245       2.49625296       3.75787152
Si       1.05316763       0.99713912       3.92778310
Si       5.28555988       3.28436995       4.69884366
Si       3.02612556       3.66099052      -0.74448873
Si       3.31260195       0.62051856       9.37111549
16
Lattice="6.623612711149825 -1.4699752655866183 -0.7706420519782987 -0.5610619855376092 5.393873981967846 -0.721994774999931 0.2183957693827001 0.2769046110075142 10.09929642230938" Properties=species:S:1:pos:R:3 unique_starting_index=30 config_type=initial n_minim_iter=20 stress="-0.017781167411297545 -0.001601949001226031 0.001348696188160144 -0.001601949001226031 0.01690029725377036 -0.002283556428787544 0.001348696188160144 -0.002283556428787544 -0.013751248304443034" pbc="T T T"
Si       3.41137244       2.51794408       5.18461503
Si       2.86957405       1.68285925       3.42204457
Si       1.24232379       2.36432368       2.44249865
Si       5.03862271       1.83647964       6.16416095
Si       4.10624582       2.19914145       7.91576236
Si       2.17470068       2.00166188       0.69089723
Si       3.98411145       1.99832512      -0.18347139
Si       2.29683504       2.20247820       8.79013098
Si       1.56208561       2.84887356       4.42397447
Si       4.71886088       1.35192977       4.18268513
Si       6.57446305       1.71385620       4.85965243
Si      -0.29351655       2.48694713       3.74700717
Si       1.03823389       0.98372961       3.89052733
Si       5.24271260       3.21707371       4.71613227
Si       2.98066665       3.63541644      -0.75887061
Si       3.30027985       0.56538689       9.36553021
16
Lattice="6.62199086416445 -1.4786947630960763 -0.7512481843845048 -0.5737009089895867 5.370883590821036 -0.7283880436921386 0.24929103319237858 0.26760323461198243 10.138197991297373" Properties=species:S:1:pos:R:3 unique_starting_index=30 config_type=initial n_minim_iter=21 stress="0.009186975929818536 -0.0071067077051088735 0.005699004573223176 -0.0071067077051088735 0.009692395365116896 -0.0014617571857332785 0.005699004573223176 -0.0014617571857332785 0.008524016990685454" pbc="T T T"
Si       3.41153050       2.46475096       5.22928703
Si       2.88605049       1.69504110       3.42927473
Si       1.25432388       2.37485115       2.45272139
Si       5.04325711       1.78494091       6.20584037
Si       4.10854376       2.17830706       7.95580126
Si       2.18903723       1.98148500       0.70276051
Si       3.99717077       1.99367827      -0.18115475
Si       2.30041022       2.16611379       8.83971652
Si       1.57469467       2.83888373       4.44913347
Si       4.72288632       1.32090834       4.20942829
Si       6.58767214       1.68622086       4.89366535
Si      -0.29009116       2.47357120       3.76489642
Si       1.05493749       0.98468773       3.88435979
Si       5.24264350       3.17510433       4.77420198
Si       2.95647935       3.61172404      -0.76809516
Si       3.34110164       0.54806803       9.42665693
