22
Lattice="5.347416194387617 -0.542671141978989 0.6079445050123373 2.0163361247681815 5.3188100392709385 1.1391866171961111 2.411430862762098 1.9633103342971614 17.244698426489357" Properties=species:S:1:pos:R:3 unique_starting_index=40 config_type=initial n_minim_iter=1 energy=-3595.6926011214055 free_energy=-3595.6926011214055 pbc="T T T"
Si       8.64896728       2.78026553      15.42188011
Si       2.78668242       2.39968725       5.06130493
Si       5.43609753       1.16813945       7.86179369
Si       4.99073841       4.28319756      15.34208175
Si       5.00718489       3.19577832      17.03324581
Si       5.47173316       6.24578263       9.35704360
Si       5.41760260       1.67364903       2.75301264
Si       5.33302902       4.22249303      11.41917401
Si       3.98494687       1.87373001       1.08641775
Si       5.46146202       5.17344277      17.13742721
Si       4.97895360       2.27079095      11.73742109
Si       4.41382068       3.82655446      13.18907523
Si       1.91057113       2.33413743       1.33629904
Si       1.41234275       0.77855877       8.46338511
Si       3.86191471       1.84207423      16.07071314
Si       6.81488730       5.03780830      10.24980635
Si       4.01937286       3.77642892       5.83759320
Si       4.09680303       7.12695594       7.99860924
Si       4.70230462       2.47170019       4.46278100
Si       5.37438099       1.49757739       9.86874085
Si       6.89925615       3.33045885      16.35917413
Si       4.06283111       1.90149561       6.53490808
22
Lattice="5.346294733722508 -0.543408510319538 0.6099764472299529 2.0146693504926434 5.309269369473881 1.1389679906239665 2.4207639629627344 1.9617793891194744 17.212046518723763" Properties=species:S:1:pos:R:3 unique_starting_index=40 config_type=initial n_minim_iter=2 stress="-0.015190882471532295 0.00025677861452575796 -0.0049600686851537625 0.00025677861452575796 -0.004330410448226692 0.0032639509651891372 -0.0049600686851537625 0.0032639509651891372 0.001775385067769562" pbc="T T T"
Si       8.65510673       2.77498528      15.39689232
Si       2.78816433       2.39548378       5.05331338
Si       5.43879703       1.16553434       7.84986446
Si       4.99724752       4.27642471      15.31511944
Si       5.01512893       3.19111268      17.00245006
Si       5.47395231       6.23477619       9.34261759
Si       5.41692393       1.66940198       2.75120910
Si       5.33698927       4.21501361      11.40075048
Si       3.98382608       1.86971521       1.08694324
Si       5.46898552       5.16513301      17.10749136
Si       4.98393487       2.26714003      11.71739921
Si       4.41956772       3.82057034      13.16586664
Si       1.91001297       2.32990200       1.33548098
Si       1.41674879       0.77825749       8.44733670
Si       3.87012655       1.84012592      16.04102655
Si       6.81726753       5.02863037      10.23439254
Si       4.02043325       3.76962793       5.82871828
Si       4.09805116       7.11467204       7.98632672
Si       4.70286962       2.46669768       4.45725648
Si       5.37824547       1.49482504       9.85252221
Si       6.90613691       3.32521450      16.33123971
Si       4.06526969       1.89759748       6.52485400
22
Lattice="5.361354548775737 -0.5449770017484048 0.6164371951008946 2.0200850921823217 5.306371734166634 1.137077112114391 2.449810513397105 1.9517089603846214 17.185499672599775" Properties=species:S:1:pos:R:3 unique_starting_index=40 config_type=initial n_minim_iter=3 stress="0.012791715172856499 0.0004533516814166905 0.00407001034004606 0.0004533516814166905 -0.0016757050575653503 0.0020732480852827346 0.00407001034004606 0.0020732480852827346 -0.0018201781809713585" pbc="T T T"
Si       8.69824139       2.76377365      15.38135598
Si       2.80137561       2.39131958       5.04716992
Si       5.46315794       1.15980985       7.84384810
Si       5.02977919       4.26551127      15.29362762
Si       5.05014061       3.17933005      16.97815471
Si       5.49963758       6.22642979       9.33105050
Si       5.43392806       1.66580807       2.75319778
Si       5.36509808       4.20604464      11.38789417
Si       3.99569006       1.86835767       1.08953945
Si       5.50589703       5.15245696      17.08381489
Si       5.01208223       2.25882124      11.70344063
Si       4.44849174       3.81135560      13.14727205
Si       1.91615487       2.32844984       1.33572526
Si       1.43118129       0.77378871       8.43452351
Si       3.90149637       1.83031522      16.01765585
Si       6.84698035       5.01983885      10.22419751
Si       4.03773036       3.76519910       5.82168923
Si       4.11735898       7.10715315       7.97503653
Si       4.72095839       2.46249914       4.45513664
Si       5.40498432       1.48820229       9.84242287
Si       6.94545827       3.31462684      16.31129096
Si       4.08523531       1.89126607       6.51902522
22
Lattice="5.355117314112312 -0.5498627027523866 0.61797863899171 2.0147212329056585 5.307988571672071 1.1251577908744068 2.4496746693060394 1.9169779799837625 17.158898299992035" Properties=species:S:1:pos:R:3 unique_starting_index=40 config_type=initial n_minim_iter=4 stress="-0.009644515232456926 -0.0038415637481181595 0.005575376788270533 -0.0038415637481181595 0.01178156750976184 -0.011568992108105506 0.005575376788270533 -0.011568992108105506 -0.011356859626937348" pbc="T T T"
Si       8.69090058       2.72977036      15.35720343
Si       2.79792110       2.38181290       5.03547566
Si       5.45682385       1.14231033       7.83302091
Si       5.02358600       4.23402239      15.26321992
Si       5.04629047       3.14193254      16.94706104
Si       5.49293478       6.20947053       9.30703459
Si       5.42519139       1.65774070       2.74730248
Si       5.35823574       4.18324583      11.36909116
Si       3.99054514       1.86874317       1.08443669
Si       5.50339021       5.11640185      17.05237696
Si       5.00646793       2.23256959      11.68488462
Si       4.44583598       3.78531233      13.12088579
Si       1.91216020       2.32887275       1.33405342
Si       1.42870589       0.75804681       8.42148603
Si       3.89955009       1.79704931      15.99027197
Si       6.83500971       4.99971995      10.20267927
Si       4.03075944       3.75768622       5.80457296
Si       4.10914113       7.09552926       7.95130778
Si       4.71558328       2.45341105       4.44639030
Si       5.39861787       1.46771952       9.82723054
Si       6.93829971       3.28301183      16.28336761
Si       4.08325772       1.87308427       6.50881115
22
Lattice="5.358211447746003 -0.5463806703116246 0.6123915794226059 2.016778492285037 5.29890758716554 1.1292130437130126 2.4332558985776704 1.9295098363702607 17.17954018333902" Properties=species:S:1:pos:R:3 unique_starting_index=40 config_type=initial n_minim_iter=5 stress="-0.002877231590892184 0.0012547982512569336 -0.006887747006866608 0.0012547982512569336 -0.0029020047809033608 0.0016477528642335182 -0.006887747006866608 0.0016477528642335182 -0.007347990272319888" pbc="T T T"
Si       8.68254053       2.74059311      15.36967474
Si       2.79554513       2.38235478       5.04040251
Si       5.45197404       1.14941562       7.83873446
Si       5.01129597       4.23965625      15.27857508
Si       5.03288970       3.15021416      16.96304861
Si       5.49047367       6.20631176       9.31858367
Si       5.42493748       1.65756451       2.74600993
Si       5.35081893       4.18610464      11.38520347
Si       3.99362249       1.87048721       1.08235295
Si       5.49398535       5.12055872      17.07334974
Si       4.99724351       2.23912492      11.69697034
Si       4.43795341       3.79069618      13.13434429
Si       1.91256317       2.32815209       1.34035962
Si       1.41840223       0.76631370       8.43079423
Si       3.88534101       1.80883227      16.00426841
Si       6.82741184       5.00123914      10.21339359
Si       4.02750903       3.75873296       5.80933576
Si       4.10524273       7.09000790       7.96389261
Si       4.71611731       2.45431764       4.45033983
Si       5.39114066       1.47704950       9.83503819
Si       6.92645553       3.29633185      16.29828465
Si       4.08211572       1.87399856       6.51467699
22
Lattice="5.355626987539446 -0.5496707240067321 0.6279618784142557 2.0139283014477267 5.288850517799423 1.1371260035635329 2.4738727373545166 1.9224982694464012 17.236804210299507" Properties=species:S:1:pos:R:3 unique_starting_index=40 config_type=initial n_minim_iter=6 stress="-0.012184712173401674 -0.0027215764938167807 0.006706980653841853 -0.0027215764938167807 -0.005795766001861865 0.0022786818026501532 0.006706980653841853 0.0022786818026501532 0.0028371710685293097" pbc="T T T"
Si       8.71263490       2.72709828      15.43666083
Si       2.80525903       2.37495693       5.06240833
Si       5.46616308       1.14283093       7.87706352
Si       5.04345177       4.22615295      15.33417596
Si       5.07155290       3.13800206      17.02468920
Si       5.50568236       6.19072603       9.35956878
Si       5.42399385       1.64905754       2.76734030
Si       5.37270307       4.17390561      11.43611531
Si       3.99299304       1.86612612       1.09554265
Si       5.53217186       5.10436143      17.13728328
Si       5.02012062       2.22817152      11.74570812
Si       4.46688720       3.77891201      13.18375616
Si       1.91263606       2.32512234       1.35382891
Si       1.43555832       0.76490885       8.45917094
Si       3.92130546       1.79921190      16.05727661
Si       6.84106296       4.98644572      10.26213307
Si       4.03497693       3.74894227       5.83615506
Si       4.11717607       7.07518469       7.99757749
Si       4.72280502       2.44636038       4.47692158
Si       5.40917644       1.47150384       9.87813650
Si       6.95970358       3.28745838      16.36302517
Si       4.09492350       1.86760740       6.54253864
22
Lattice="5.361801262822456 -0.5532394441438755 0.6271742669443652 2.0132425157802296 5.275119629358597 1.1186813230479096 2.4705680125425724 1.8652898288410573 17.205430589699915" Properties=species:S:1:pos:R:3 unique_starting_index=40 config_type=initial n_minim_iter=7 stress="0.0012179843142884116 0.004042553418499322 0.001957072579121625 0.004042553418499322 -0.012520221041048992 -0.00443892760889827 0.001957072579121625 -0.00443892760889827 -0.009250099691608794" pbc="T T T"
Si       8.71502374       2.66835817      15.40026761
Si       2.80829824       2.34961066       5.04917327
Si       5.46815173       1.11539469       7.86442044
Si       5.04550438       4.16641703      15.29310458
Si       5.07492797       3.07662065      16.98820100
Si       5.50648935       6.14774682       9.32465169
Si       5.42103249       1.63098270       2.75612771
Si       5.37602429       4.13121186      11.41386076
Si       3.99888411       1.86009934       1.08584564
Si       5.53766669       5.03510697      17.09234078
Si       5.01706478       2.17713792      11.72488724
Si       4.47013167       3.72670030      13.15321615
Si       1.91549816       2.32184424       1.35613793
Si       1.42633668       0.74279404       8.44314759
Si       3.91943645       1.74072958      16.01465743
Si       6.83514446       4.94194968      10.23405974
Si       4.03300027       3.72128396       5.81603218
Si       4.11863553       7.03813601       7.96304703
Si       4.73024494       2.42546940       4.46490548
Si       5.40669696       1.44245876       9.85774400
Si       6.96305459       3.23952626      16.32300634
Si       4.09771462       1.84636116       6.51919371
22
Lattice="5.361231999301332 -0.5729292715289788 0.625591317930459 1.9928655560238133 5.2799650222241326 1.1251226790277438 2.4618693291717992 1.885491632467531 17.189230026445323" Properties=species:S:1:pos:R:3 unique_starting_index=40 config_type=initial n_minim_iter=8 stress="2.7695077543469328e-05 -0.004882824196472251 0.004049178451818333 -0.004882824196472251 0.0018967158309787305 0.009372334755026824 0.004049178451818333 0.009372334755026824 -0.01726300460116849" pbc="T T T"
Si       8.69849760       2.66260321      15.38374375
Si       2.79915476       2.34696215       5.04805920
Si       5.45903582       1.11037080       7.85931489
Si       5.03033734       4.17580407      15.28035271
Si       5.06197314       3.08875434      16.97316882
Si       5.48053745       6.15419547       9.32111116
Si       5.40723434       1.61523713       2.75417799
Si       5.36061083       4.13548826      11.41224169
Si       3.99269797       1.85118434       1.08734321
Si       5.51961745       5.04668709      17.07766013
Si       5.00330422       2.17715847      11.71860268
Si       4.45542203       3.73383745      13.14842638
Si       1.90846545       2.32555874       1.36563962
Si       1.41754255       0.75621128       8.43347348
Si       3.91130643       1.75193003      15.99015033
Si       6.80792268       4.94202327      10.23223145
Si       4.01492825       3.72538055       5.81742911
Si       4.09270567       7.04991372       7.96510493
Si       4.72312230       2.41787679       4.46504389
Si       5.39405315       1.44565423       9.84907349
Si       6.94968637       3.25394715      16.30593271
Si       4.08969148       1.84549556       6.51162173
22
Lattice="5.3583345455153095 -0.5882886594884454 0.6263931774728497 1.9758413709799614 5.255735977915518 1.1107538670299613 2.4479507013742654 1.8217064897881656 17.21637051497473" Properties=species:S:1:pos:R:3 unique_starting_index=40 config_type=initial n_minim_iter=9 stress="0.009512277257656047 -0.015710954199608065 -0.0035152673830829394 -0.015710954199608065 -0.011384643094987334 -0.004244211135238995 -0.0035152673830829394 -0.004244211135238995 0.0033464276279218308" pbc="T T T"
Si       8.67390354       2.58128319      15.39755552
Si       2.78914589       2.31039921       5.04925641
Si       5.44534903       1.07024004       7.87048130
Si       5.01385265       4.09912517      15.29389861
Si       5.04271832       3.01368655      16.99452509
Si       5.45381725       6.09382124       9.31544331
Si       5.39077372       1.58248904       2.75058315
Si       5.34458791       4.06952075      11.42527761
Si       3.98785485       1.83102188       1.08284433
Si       5.49881474       4.96099565      17.08941773
Si       4.98491818       2.12012566      11.73784462
Si       4.43722296       3.66543685      13.17031484
Si       1.90378540       2.31426720       1.36962274
Si       1.40430213       0.73090696       8.44608407
Si       3.89936477       1.68648024      16.00247488
Si       6.77751755       4.87934220      10.23717390
Si       3.99678230       3.68990664       5.81891178
Si       4.06904021       6.99553859       7.95944394
Si       4.71612741       2.38237943       4.46788161
Si       5.37541303       1.40394889       9.86215338
Si       6.93276087       3.18925585      16.31994200
Si       4.08123249       1.80899865       6.51481932
22
Lattice="5.343155932610866 -0.5754486915008237 0.6355401542916089 1.9856043591027963 5.259170266560201 1.1070778855222443 2.473630502048521 1.8056399650870651 17.21687072787131" Properties=species:S:1:pos:R:3 unique_starting_index=40 config_type=initial n_minim_iter=10 stress="-0.00625701167043859 -0.0004349392379861139 0.004101343848714269 -0.0004349392379861139 -0.007559466274925786 0.003349879766467548 0.004101343848714269 0.003349879766467548 -0.004032563754933973" pbc="T T T"
Si       8.67579120       2.57963388      15.40194159
Si       2.79622375       2.30315673       5.04898307
Si       5.44295628       1.07636580       7.87756689
Si       5.04144039       4.08659409      15.29412196
Si       5.06392492       3.00290739      16.99703521
Si       5.46740528       6.09612697       9.31207493
Si       5.37830717       1.58782641       2.75433170
Si       5.36295630       4.06252963      11.43367892
Si       3.98734838       1.83979764       1.08690317
Si       5.52894456       4.94826977      17.08703790
Si       4.99151372       2.11617489      11.74759424
Si       4.45704449       3.65343306      13.18117688
Si       1.91110575       2.32195221       1.37802102
Si       1.40923083       0.72998810       8.44597887
Si       3.92135926       1.67463301      15.99237372
Si       6.78042220       4.88551715      10.24229648
Si       4.00317506       3.69598493       5.82305896
Si       4.09110936       6.99681264       7.95819781
Si       4.72155299       2.38710011       4.47614724
Si       5.37324915       1.41266284       9.86863804
Si       6.95208994       3.19980949      16.32014083
Si       4.08825600       1.81091320       6.51651075
22
Lattice="5.327603940290201 -0.587799976707662 0.6378708724594335 1.9716922921041358 5.265513859942427 1.0798369726306658 2.4665215062175094 1.7255609722817487 17.172456760728114" Properties=species:S:1:pos:R:3 unique_starting_index=40 config_type=initial n_minim_iter=11 stress="0.003366111356720011 0.002438766968046655 0.008494301720381832 0.002438766968046655 0.0009029890067032279 0.005904359952031759 0.008494301720381832 0.005904359952031759 -0.005522394844052128" pbc="T T T"
Si       8.63478403       2.49480386      15.35350518
Si       2.78689531       2.26040206       5.02107296
Si       5.42333986       1.04424060       7.84955069
Si       5.03038842       3.99484137      15.23906500
Si       5.04894800       2.91587218      16.94743429
Si       5.42506870       6.06432068       9.25319138
Si       5.34950903       1.55898265       2.73048136
Si       5.34919243       3.99198599      11.41235199
Si       3.97862901       1.83369476       1.07270876
Si       5.52184687       4.86797794      17.02476138
Si       4.96332406       2.05760221      11.73022259
Si       4.45173086       3.57995968      13.15083639
Si       1.91457823       2.32791748       1.37857030
Si       1.39585354       0.70301820       8.42685483
Si       3.92108027       1.59545762      15.92164048
Si       6.73938416       4.85285961      10.19657230
Si       3.98465194       3.67187975       5.80396611
Si       4.07152821       6.97569095       7.91570516
Si       4.71524837       2.36389488       4.47095565
Si       5.33561152       1.38308287       9.84370460
Si       6.93170118       3.15956590      16.26028215
Si       4.08572168       1.78620910       6.48905603
22
Lattice="5.309347610404597 -0.6170085594186137 0.6547436797281386 1.9445262994568988 5.268109484520938 1.036628942328875 2.4876077365757046 1.5689835825502578 17.159084163092075" Properties=species:S:1:pos:R:3 unique_starting_index=40 config_type=initial n_minim_iter=12 stress="0.013560232717133055 0.005584829529505109 0.0012855867413244517 0.005584829529505109 0.026320879662533585 0.00047490778207052406 0.0012855867413244517 0.00047490778207052406 0.020751758356199308" pbc="T T T"
Si       8.59482931       2.31689577      15.34772308
Si       2.78576720       2.18240144       5.00044201
Si       5.40216966       0.97215630       7.84288798
Si       5.03809008       3.79712220      15.20665519
Si       5.05465674       2.74714780      16.92169784
Si       5.37553265       5.99141036       9.18355814
Si       5.31348453       1.49938411       2.70518164
Si       5.36075362       3.86114048      11.41081235
Si       3.97338840       1.82140501       1.06112646
Si       5.54611203       4.70089161      16.99246129
Si       4.93204643       1.92447976      11.76199212
Si       4.47301815       3.42484197      13.15905335
Si       1.92592085       2.32980539       1.37891246
Si       1.38526863       0.65236449       8.42726178
Si       3.95817373       1.43485748      15.85490818
Si       6.68179387       4.79329295      10.15043088
Si       3.95063518       3.60660792       5.79417911
Si       4.05066273       6.92305805       7.87113664
Si       4.72441878       2.30469023       4.48143674
Si       5.28729696       1.31999732       9.83949081
Si       6.92115215       3.07723448      16.22556094
Si       4.09879688       1.72761579       6.47702176
22
Lattice="5.299045011382415 -0.6360708612882703 0.6741998249830088 1.931590681874723 5.260565070556458 0.9791893415934905 2.520776122473679 1.3664675983292076 17.13602514002217" Properties=species:S:1:pos:R:3 unique_starting_index=40 config_type=initial n_minim_iter=13 stress="0.028905756272232484 0.014499525107443862 -0.007048102871009531 0.014499525107443862 0.04083364343706175 -0.006397239330423976 -0.007048102871009531 -0.006397239330423976 0.0325452936076193" pbc="T T T"
Si       8.57806851       2.10577097      15.33935481
Si       2.79539257       2.08631399       4.97832640
Si       5.40645351       0.88204292       7.84153271
Si       5.06232904       3.55823127      15.15576835
Si       5.08315357       2.54059149      16.89598751
Si       5.35340700       5.89318066       9.09603480
Si       5.29489881       1.44545666       2.67666270
Si       5.39129892       3.69044569      11.39918841
Si       3.97452991       1.81055539       1.04313223
Si       5.59406380       4.48799166      16.94334412
Si       4.91581670       1.77640751      11.78736848
Si       4.52054113       3.23278249      13.14559039
Si       1.94519989       2.32357401       1.36566665
Si       1.37160445       0.58567918       8.42015165
Si       4.00960436       1.22753085      15.78143116
Si       6.64468214       4.70828631      10.08569967
Si       3.93079170       3.53885625       5.77490600
Si       4.05663921       6.84497376       7.79911891
Si       4.75111712       2.23040439       4.47913849
Si       5.25392260       1.24045480       9.82879843
Si       6.92781217       2.95829355      16.18009968
Si       4.11201812       1.65030345       6.45449046
22
Lattice="5.297197022454955 -0.648365127270869 0.6835592545760687 1.922752622015446 5.255622080459363 0.9563640199180009 2.541220567279985 1.2859937955685214 17.1028165465805" Properties=species:S:1:pos:R:3 unique_starting_index=40 config_type=initial n_minim_iter=14 stress="0.03266644942382589 0.015050834735970265 -0.01024433296521496 0.015050834735970265 0.036566075083455725 -0.014029606810553439 -0.01024433296521496 -0.014029606810553439 0.022617519352473203" pbc="T T T"
Si       8.58263846       2.01204847      15.31880528
Si       2.80590859       2.04234083       4.96439541
Si       5.41161787       0.84600786       7.82868288
Si       5.07487717       3.45348442      15.11432950
Si       5.09404369       2.44943154      16.86300280
Si       5.34674915       5.85441559       9.04878054
Si       5.29073184       1.42337818       2.66281559
Si       5.41220231       3.61870879      11.37866728
Si       3.97561700       1.80517067       1.03966232
Si       5.62386562       4.40097968      16.89943692
Si       4.91065639       1.71437108      11.78643829
Si       4.54517475       3.14815728      13.12900135
Si       1.95335955       2.31830651       1.35640830
Si       1.36793233       0.56480106       8.40425806
Si       4.04364711       1.14353492      15.73167215
Si       6.62529050       4.66361114      10.04989173
Si       3.92386680       3.50389732       5.76015317
Si       4.05489587       6.81270366       7.76103816
Si       4.76152034       2.19573325       4.47829098
Si       5.24192485       1.21438365       9.81690166
Si       6.93373696       2.91492445      16.14067155
Si       4.11894284       1.61817872       6.43445462
22
Lattice="5.296512432146824 -0.6797640080763587 0.7086365289467433 1.8937128113898076 5.226546452409262 0.9558575560733988 2.602002069132106 1.232157002825603 17.127348034676643" Properties=species:S:1:pos:R:3 unique_starting_index=40 config_type=initial n_minim_iter=15 stress="0.01529763458772902 0.007034778076181747 -0.007988817666038364 0.007034778076181747 0.021003231742351726 -0.004958319475624607 -0.007988817666038364 -0.004958319475624607 0.005588532960061459" pbc="T T T"
Si       8.61131350       1.90072278      15.38119059
Si       2.82035717       1.97921894       4.97009837
Si       5.42665202       0.81248959       7.85259528
Si       5.11354289       3.33452908      15.14151357
Si       5.13843491       2.37224607      16.90881212
Si       5.33982590       5.80245268       9.05583799
Si       5.28989608       1.39244818       2.67500659
Si       5.45489384       3.53502675      11.41724153
Si       3.95991600       1.78146355       1.05476306
Si       5.69386026       4.30809300      16.92266174
Si       4.92386166       1.63581174      11.82817565
Si       4.59586856       3.07411102      13.18308511
Si       1.95943876       2.29552974       1.34997125
Si       1.37609506       0.56736550       8.41968574
Si       4.12664672       1.06737806      15.74038604
Si       6.60362737       4.60361577      10.07352631
Si       3.91959061       3.45321983       5.77938288
Si       4.03813335       6.76451189       7.77147218
Si       4.77459253       2.13919706       4.51479895
Si       5.23799523       1.19475008       9.85138830
Si       6.95453025       2.89111426      16.17333497
Si       4.13874405       1.57289154       6.44788055
22
Lattice="5.29475899129334 -0.6913042832742284 0.7140556753232769 1.8813974903555566 5.215419691592329 0.9576247181194537 2.61130911348726 1.2209016416211644 17.144931058343293" Properties=species:S:1:pos:R:3 unique_starting_index=40 config_type=initial n_minim_iter=16 stress="0.005112528731285527 0.006364141482968574 -0.0077431551548971245 0.006364141482968574 0.0019424004510746763 -0.007742632552975181 -0.0077431551548971245 -0.007742632552975181 -0.0013722314196799275" pbc="T T T"
Si       8.60549635       1.86437833      15.41039269
Si       2.82399130       1.95989745       4.97540986
Si       5.42617707       0.80394829       7.86572710
Si       5.11829552       3.29663070      15.16136864
Si       5.13825173       2.34699478      16.93168137
Si       5.32765018       5.78684324       9.06530735
Si       5.28904807       1.38578953       2.67965804
Si       5.46039376       3.50740497      11.43791044
Si       3.95407987       1.76903415       1.06663291
Si       5.70621595       4.28515667      16.93349502
Si       4.91920797       1.61135895      11.84460650
Si       4.60402476       3.05565377      13.20503722
Si       1.95706317       2.28749539       1.34739730
Si       1.37134985       0.57508282       8.42790895
Si       4.14687450       1.05030681      15.75230227
Si       6.58738888       4.58904268      10.08473090
Si       3.91084309       3.43409875       5.78542104
Si       4.02511888       6.74988776       7.77998227
Si       4.77531702       2.11873608       4.52751341
Si       5.22763191       1.19036378       9.86420369
Si       6.94978208       2.88935653      16.18941190
Si       4.13899027       1.55782147       6.45320264
22
Lattice="5.304348797531405 -0.7060508953576016 0.7197132272121828 1.8664555066191884 5.2102027573885 0.9977875581719132 2.6317394934503855 1.32159253766378 17.206002510676417" Properties=species:S:1:pos:R:3 unique_starting_index=40 config_type=initial n_minim_iter=17 stress="0.003678013528135347 -0.014206245511324687 -0.00433967089949566 -0.014206245511324687 -0.014659355928830671 0.005570866247341084 -0.00433967089949566 0.005570866247341084 0.0022597435637316957" pbc="T T T"
Si       8.62905370       1.92262592      15.49670465
Si       2.83118745       1.98348956       5.00568980
Si       5.43613642       0.84254284       7.90680585
Si       5.13057349       3.36867739      15.24210394
Si       5.15345691       2.42869017      17.01609739
Si       5.32670083       5.82681118       9.15081916
Si       5.31416301       1.41220689       2.71723407
Si       5.47283197       3.55941297      11.49193961
Si       3.93993198       1.75928777       1.10280830
Si       5.71607737       4.37644250      17.01594099
Si       4.93529258       1.66611447      11.87980810
Si       4.60984874       3.13196475      13.25951720
Si       1.93769780       2.28104493       1.35068675
Si       1.38453325       0.63019906       8.46025608
Si       4.17661805       1.14390579      15.82892029
Si       6.59475001       4.62748700      10.15589179
Si       3.91317879       3.44195947       5.80990042
Si       4.01422732       6.78437354       7.84518380
Si       4.77468808       2.12617824       4.55735433
Si       5.24442121       1.22563031       9.90345589
Si       6.97736988       2.94026991      16.26182994
Si       4.13894378       1.57428382       6.48571833
22
Lattice="5.306649991478449 -0.7188390649901836 0.7367317829145574 1.8552989833983575 5.203625791013605 1.0176888638884 2.6784830761430434 1.34751238030127 17.268558294083533" Properties=species:S:1:pos:R:3 unique_starting_index=40 config_type=initial n_minim_iter=18 stress="0.008692323555761234 -0.012271050293325708 0.007816591587476824 -0.012271050293325708 -0.017546498618874983 0.012472225693247884 0.007816591587476824 0.012472225693247884 -0.0013036518208568663" pbc="T T T"
Si       8.65669476       1.91902049      15.58615677
Si       2.84266021       1.97213196       5.02562800
Si       5.44721501       0.86280810       7.95249627
Si       5.17148566       3.35106110      15.31753668
Si       5.20709897       2.44195449      17.10207634
Si       5.31545603       5.84280243       9.21331332
Si       5.33712104       1.43360180       2.75313859
Si       5.51367377       3.55299777      11.55076206
Si       3.92525670       1.75212450       1.13850223
Si       5.77075707       4.36797540      17.08518301
Si       4.95107158       1.67174878      11.93662507
Si       4.63953660       3.13201808      13.32366425
Si       1.92045020       2.28194702       1.35920277
Si       1.40447941       0.66695365       8.49098997
Si       4.23953165       1.16523064      15.88387927
Si       6.60305384       4.64269977      10.21737255
Si       3.91352968       3.42643877       5.82892705
Si       4.01923424       6.79132209       7.89677733
Si       4.79865783       2.10895750       4.59013171
Si       5.25129697       1.23820449       9.94389103
Si       7.01524402       2.95729440      16.32896880