18
Lattice="10.529465599741402 3.794932112201177e-14 1.920601980074259e-27 -5.264732799870732 9.118784697650378 2.6053956518377653e-27 -6.882959024810674e-28 -1.47060098203547e-27 3.810713453875248" Properties=species:S:1:pos:R:3 unique_starting_index=50 config_type=initial n_minim_iter=14 energy=-2933.308813424427 free_energy=-2933.308813424427 pbc="T T T"
Si       3.23782616       7.95152285       2.92282682
Si       0.00257490       2.33898355       0.38235118
Si      -3.24040108       7.94706298       1.65258900
Si       2.02690663       1.16726184       1.01747009
Si       5.26215788       6.77980113       2.28770791
Si       8.50513387       1.17172171       3.55794573
Si       7.29030073       4.21040516       1.02082590
Si       5.26590026       0.69999647       2.29106372
Si       3.23799739       4.20838305       3.56130153
Si      -2.02556795       4.90837953       2.92618262
Si      -0.00116747       8.41878822       0.38570699
Si       2.02673540       4.91040163       1.65594481
Si      -2.02731716       7.24903828       3.55861204
Si       2.02677707       7.24997370       1.01813641
Si       0.00054006       3.73855740       2.28837422
Si       7.29204994       1.86974641       1.65325531
Si       3.23795571       1.86881099       2.92349313
Si       5.26419273       5.38022729       0.38301750
