16
Lattice="6.356944913370495 -0.06083466021231064 -0.8607264787145091 0.7744200591410404 6.840606919557712 -0.27631867562857537 0.4964707357244799 1.4272879653026256 10.448847923209089" Properties=species:S:1:pos:R:3 unique_starting_index=30 config_type=initial n_minim_iter=1 energy=-2597.089102809617 free_energy=-2597.089102809617 pbc="T T T"
Si       3.49590736       5.88464285       4.99275317
Si       4.13192835       2.32241738       4.31904960
Si       2.62019766       3.49057500       2.94847009
Si       5.00763805       4.71648523       6.36333268
Si       4.54475407       2.95994955       7.60938285
Si       3.08308164       5.24711068       1.70241992
Si       4.15261346       4.15751068      -0.25588402
Si       3.47522224       4.04954955       9.56768679
Si       1.88530772       3.98338561       4.78730647
Si       5.74252799       4.22367462       4.52449630
Si       6.97573783       5.42544862       3.48582829
Si       0.65209788       2.78161161       5.82597448
Si       2.15041518       2.02159003       4.44539714
Si       5.47742053       6.18547019       4.86640563
Si       4.62192717       6.16526851       0.80351259
Si       3.00590854       2.04179172       8.50829018
16
Lattice="6.538096699303796 -0.18607194236027377 -0.8904834126366874 0.6555839865064211 6.699485877293077 -0.32123453712558236 0.4204334186254934 1.3255844980328602 10.358878391877937" Properties=species:S:1:pos:R:3 unique_starting_index=30 config_type=initial n_minim_iter=2 stress="0.08100080232993045 0.013589267208397966 -0.019245791111355756 0.013589267208397966 0.033983177809665345 -0.013891926856469887 -0.019245791111355756 -0.013891926856469887 0.021115239204725043" pbc="T T T"
Si       3.44511364       5.65495866       4.89062592
Si       4.16900047       2.18403978       4.25653452
Si       2.60467269       3.35116501       2.88376234
Si       5.00944141       4.48783342       6.26339810
Si       4.56679847       2.78958840       7.52264989
Si       3.04731563       5.04941003       1.62451055
Si       4.19075446       4.02022350      -0.28420662
Si       3.42335964       3.81877493       9.43136706
Si       1.83129156       3.86198903       4.71301677
Si       5.78282255       3.97700941       4.43414368
Si       7.05136788       5.15420998       3.39837835
Si       0.56274623       2.68478845       5.74878209
Si       2.15022536       1.90319640       4.37311901
Si       5.46388875       5.93580204       4.77404143
Si       4.61683948       5.94951901       0.71198742
Si       2.99727463       1.88947943       8.43517302
16
Lattice="6.645272448353303 -0.35081999572580713 -0.8957154568821275 0.485978205624923 6.493287029703975 -0.3480707707178338 0.36299448613260804 1.2300035269631433 10.216301892448952" Properties=species:S:1:pos:R:3 unique_starting_index=30 config_type=initial n_minim_iter=3 stress="0.04065352235362255 -0.017883899305966008 0.004162911655694325 -0.017883899305966008 0.004337708042354506 0.009319039326794258 0.004162911655694325 0.009319039326794258 -0.004184363125235935" pbc="T T T"
Si       3.33913493       5.36075299       4.78294147
Si       4.15511021       2.01171757       4.18957420
Si       2.54820627       3.17123347       2.81753326
Si       4.94603887       4.20123709       6.15498241
Si       4.54117529       2.58433243       7.41769422
Si       2.95306986       4.78813813       1.55482145
Si       4.15668819       3.82347466      -0.28649608
Si       3.33755695       3.54899590       9.25901175
Si       1.74587119       3.70683800       4.62610893
Si       5.74837395       3.66563256       4.34640673
Si       7.03066085       4.79807608       3.32759925
Si       0.46358429       2.57439448       5.64491641
Si       2.13206171       1.76237506       4.28506163
Si       5.36218343       5.61009550       4.68745403
Si       4.52393627       5.65316728       0.64072455
Si       2.97030887       1.71930328       8.33179112
16
Lattice="6.687323410770787 -0.41587546918949403 -0.9143940651452218 0.41575639862902636 6.383598648475787 -0.3857491033360553 0.31118413811600226 1.1476489938543606 10.149846682345263" Properties=species:S:1:pos:R:3 unique_starting_index=30 config_type=initial n_minim_iter=4 stress="0.01628069390779554 -0.014306700056039474 -0.0004450268036410142 -0.014306700056039474 -0.038810919031793956 0.006423423275026138 -0.0004450268036410142 0.006423423275026138 -0.01871299036902154" pbc="T T T"
Si       3.28244186       5.19545228       4.70573077
Si       4.13182209       1.91991989       4.14397274
Si       2.51519137       3.07237336       2.76967876
Si       4.89907258       4.04299881       6.08002476
Si       4.50612816       2.46577359       7.35471805
Si       2.90813579       4.64959859       1.49498546
Si       4.14181895       3.73262815      -0.30870932
Si       3.27244500       3.38274403       9.15841284
Si       1.69761526       3.61688487       4.56793044
Si       5.71664869       3.49848731       4.28177307
Si       7.01399826       4.61635729       3.26218334
Si       0.40026568       2.49901489       5.58752018
Si       2.11504570       1.67896661       4.23174457
Si       5.29921825       5.43640557       4.61795894
Si       4.47969767       5.50420619       0.57204856
Si       2.93456628       1.61116598       8.27765495
16
Lattice="6.678707188596047 -0.4549808364051517 -0.9038734437601176 0.3716350881811178 6.419433889946697 -0.3922235175408827 0.3209560121929513 1.1415219788899567 10.16455048157916" Properties=species:S:1:pos:R:3 unique_starting_index=30 config_type=initial n_minim_iter=5 stress="0.008539646715530029 -0.03499410874090887 0.005609453993508556 -0.03499410874090887 -0.016330021382528207 0.004873069470885896 0.005609453993508556 0.004873069470885896 -0.01975758577844267" pbc="T T T"
Si       3.25457090       5.19610438       4.71016004
Si       4.11672739       1.90987065       4.15829348
Si       2.49567205       3.07190936       2.77421029
Si       4.87562624       4.03406567       6.09424323
Si       4.49474616       2.45459131       7.37809847
Si       2.87655213       4.65138372       1.49035505
Si       4.11335214       3.73908785      -0.29922715
Si       3.25794615       3.36688718       9.16768067
Si       1.68220017       3.63139661       4.57190834
Si       5.68909811       3.47457842       4.29654518
Si       6.98441345       4.59922438       3.27847105
Si       0.38688484       2.50675066       5.58998247
Si       2.11298778       1.66946025       4.23485888
Si       5.25831051       5.43651478       4.63359464
Si       4.43630316       5.51154557       0.56927790
Si       2.93499513       1.59442946       8.29917562
16
Lattice="6.6364002787915926 -0.42747961940156376 -0.8724804877057355 0.40084241517312563 6.464084999106326 -0.35008957731617174 0.3871491082119393 1.2131157146764344 10.246065630801995" Properties=species:S:1:pos:R:3 unique_starting_index=30 config_type=initial n_minim_iter=6 stress="-0.03509781947870706 -0.005743783367815687 0.0033587436996303653 -0.005743783367815687 -0.008879065379086297 0.022482690827185833 0.0033587436996303653 0.022482690827185833 -0.009348138240000371" pbc="T T T"
Si       3.29684862       5.26910277       4.79391430
Si       4.12754319       1.98061832       4.22958127
Si       2.51481237       3.12142295       2.82989224
Si       4.90957944       4.12829815       6.19360332
Si       4.52893434       2.55188956       7.48427693
Si       2.89545746       4.69783154       1.53921863
Si       4.11396766       3.79078346      -0.24447004
Si       3.31042414       3.45893763       9.26796561
Si       1.72535662       3.70047078       4.63447795
Si       5.69903519       3.54925032       4.38901762
Si       7.00072329       4.68497300       3.38234141
Si       0.42366851       2.56474810       5.64115415
Si       2.13931676       1.72057127       4.28207841
Si       5.28507504       5.52914982       4.74141715
Si       4.44628532       5.58424015       0.63137482
Si       2.97810648       1.66548094       8.39212074
16
Lattice="6.565821003239727 -0.37896986677413885 -0.713000833697616 0.4315852187157167 6.482685902944747 -0.39518195913391196 0.6715506892683564 1.1234475951704512 10.377123084686694" Properties=species:S:1:pos:R:3 unique_starting_index=30 config_type=initial n_minim_iter=7 stress="-0.04971092783798722 -0.007453100050556253 0.02272332673767921 -0.007453100050556253 -0.0017137456400314807 -0.008690465464250636 0.02272332673767921 -0.008690465464250636 -0.03316406556995756" pbc="T T T"
Si       3.44510757       5.23024709       4.88729160
Si       4.22384934       1.99691654       4.38164870
Si       2.59024494       3.10737515       2.91276994
Si       5.07871197       4.11978848       6.35617035
Si       4.71767599       2.54042512       7.70357585
Si       2.95128092       4.68673851       1.56536444
Si       4.11537618       3.83862593      -0.15546622
Si       3.55358073       3.38853770       9.42440651
Si       1.89809736       3.67547444       4.69445638
Si       5.77085955       3.55168919       4.57448391
Si       7.08767261       4.70756742       3.58079509
Si       0.58128430       2.51959621       5.68814520
Si       2.25095191       1.71832465       4.36004700
Si       5.41800500       5.50883898       4.90889329
Si       4.47184743       5.62943543       0.69344005
Si       3.19710948       1.59772820       8.57550024
16
Lattice="6.542387291757861 -0.39498708084199385 -0.7055365856418933 0.4131482714373448 6.442096283471701 -0.37770357242792807 0.714520644017024 1.146186711042337 10.642337238760518" Properties=species:S:1:pos:R:3 unique_starting_index=30 config_type=initial n_minim_iter=8 stress="-0.042601686776201575 -0.00979754981458121 0.010294942502268393 -0.00979754981458121 -0.0313113454833707 -0.009841860539516226 0.010294942502268393 -0.009841860539516226 0.0014661519267663936" pbc="T T T"
Si       3.44401136       5.18826657       5.03722919
Si       4.22604485       2.00502935       4.52186789
Si       2.58711815       3.08334294       3.00608608
Si       5.08293806       4.10995297       6.55301100
Si       4.73107734       2.55171387       7.94256467
Si       2.93897886       4.64158205       1.61653241
Si       4.09896970       3.81424344      -0.11600841
Si       3.57108651       3.37905247       9.67510549
Si       1.92139810       3.66623821       4.83398492
Si       5.74865811       3.52705771       4.72511216
Si       7.07387208       4.67136277       3.72877864
Si       0.59618413       2.52193314       5.83031844
Si       2.25557444       1.72589685       4.47323624
Si       5.41448177       5.46739907       5.08586084
Si       4.44808871       5.59136859       0.74099293
Si       3.22196750       1.60192732       8.81810415
16
Lattice="6.535299189470971 -0.40314865834000396 -0.6731048960065475 0.41198655369566445 6.448722138524665 -0.30509893222696727 0.7719109065899206 1.2535128449437398 10.68252625758708" Properties=species:S:1:pos:R:3 unique_starting_index=30 config_type=initial n_minim_iter=9 stress="-0.009614605049430484 -0.009967279376283287 0.017090504957039437 -0.009967279376283287 -0.03641527590253816 0.013962753977903778 0.017090504957039437 0.013962753977903778 -0.017434892093412955" pbc="T T T"
Si       3.46430845       5.21516112       5.11441025
Si       4.25488820       2.08392521       4.58991218
Si       2.60031336       3.10646840       3.05991376
Si       5.11888329       4.19261793       6.64440867
Si       4.77355633       2.66214739       8.04293220
Si       2.94564032       4.63693894       1.66139023
Si       4.10688769       3.83223536      -0.03306226
Si       3.61230896       3.46685096       9.73738469
Si       1.97138190       3.73424535       4.89682904
Si       5.74781475       3.56484097       4.80749339
Si       7.09698219       4.70918930       3.85157353
Si       0.62221446       2.58989702       5.85274890
Si       2.26790293       1.78161488       4.49508748
Si       5.45129372       5.51747145       5.20923495
Si       4.45439559       5.61333339       0.81141907
Si       3.26480106       1.68575293       8.89290335
16
Lattice="6.456687886126304 -0.40856183227539544 -0.7092289258949499 0.3983942781331229 6.509460538611238 -0.30762531641048274 0.7047810598483955 1.268777717242517 10.678505808714274" Properties=species:S:1:pos:R:3 unique_starting_index=30 config_type=initial n_minim_iter=10 stress="-0.02419217509642714 -0.014734368524703263 0.003782613644825074 -0.014734368524703263 -0.008607858866234438 0.011553245263344947 0.003782613644825074 0.011553245263344947 -0.002766601324152001" pbc="T T T"
Si       3.38426006       5.23213325       5.08555243
Si       4.17560316       2.13754317       4.57609913
Si       2.54650469       3.13323625       3.03400779
Si       5.01335854       4.23644017       6.62764377
Si       4.67374149       2.72029027       8.03795271
Si       2.88612174       4.64938616       1.62369886
Si       4.05610784       3.87244813      -0.04582513
Si       3.50375539       3.49722829       9.70747669
Si       1.93963608       3.77583635       4.89092809
Si       5.62022714       3.59384008       4.77072348
Si       6.97596722       4.74564137       3.83726984
Si       0.58389601       2.62403505       5.82438173
Si       2.20259732       1.80514814       4.47305423
Si       5.35726591       5.56452828       5.18859733
Si       4.39417478       5.67614786       0.76748898
Si       3.16568845       1.69352857       8.89416259
16
Lattice="6.439145085574837 -0.3704283763070844 -0.6979499349847927 0.43418548328477946 6.549001080158998 -0.3297422218855973 0.725187495307729 1.242020165874001 10.641072286465397" Properties=species:S:1:pos:R:3 unique_starting_index=30 config_type=initial n_minim_iter=11 stress="0.012312468059402582 0.004180908389321826 0.0009364783279874364 0.004180908389321826 0.016167737372800327 -0.0039660459677434284 0.0009364783279874364 -0.0039660459677434284 0.01850256657752456" pbc="T T T"
Si       3.41410016       5.24077754       5.04968980
Si       4.18441791       2.17981533       4.56369033
Si       2.56473357       3.16120554       2.99905954
Si       5.03378449       4.25938733       6.61432059
Si       4.68461910       2.75048021       8.02541225
Si       2.91389896       4.67011266       1.58796787
Si       4.07272650       3.91808560      -0.05195074
Si       3.52579156       3.50250727       9.66533087
Si       1.97240317       3.78913460       4.86739187
Si       5.62611489       3.63145827       4.74598825
Si       6.98873026       4.79088177       3.83466192
Si       0.60978780       2.62971110       5.77871821
Si       2.20071856       1.80909420       4.45835242
Si       5.39779950       5.61149867       5.15502771
Si       4.41523721       5.73126541       0.74312801
Si       3.18328085       1.68932746       8.87025212
16
Lattice="6.555527136419935 -0.32069726969266954 -0.8758821117074279 0.5246530568079733 6.620717797056788 -0.2237283006925385 0.3990977750200948 1.4457439701707895 10.228743279477893" Properties=species:S:1:pos:R:3 unique_starting_index=30 config_type=initial n_minim_iter=12 stress="0.07371258765097236 0.0054880704311244515 -0.012754143822979375 0.0054880704311244515 0.06796728199523684 -0.003657260643577551 -0.012754143822979375 -0.003657260643577551 0.012624477839428317" pbc="T T T"
Si       3.40741514       5.35502403       4.83020247
Si       4.07186283       2.39074047       4.29893040
Si       2.54897414       3.28751464       2.82284987
Si       4.93030382       4.45824985       6.30628299
Si       4.49232411       3.00920590       7.66855537
Si       2.98695385       4.73655860       1.46057750
Si       4.18864034       3.99337905      -0.11260893
Si       3.29063762       3.75238545       9.24174180
Si       1.91960779       3.91066504       4.67361921
Si       5.55967018       3.83509946       4.45551366
Si       7.01116553       4.97324377       3.59095569
Si       0.46811244       2.77252072       5.53817717
Si       2.09525843       1.93121843       4.25604773
Si       5.38401954       5.81454607       4.87308514
Si       4.50618887       5.85228844       0.66312186
Si       2.97308910       1.89347606       8.46601101
16
Lattice="6.661149055350899 -0.25558798039207803 -1.0213823865454985 0.6215999050490236 6.658111399388093 -0.16956043554008604 0.1454063333134293 1.560556579063883 9.944396551096998" Properties=species:S:1:pos:R:3 unique_starting_index=30 config_type=initial n_minim_iter=13 stress="0.061846059292711454 0.0014974191916132806 0.007956557255501342 0.0014974191916132806 0.05358488418623212 -0.009670523184237763 0.007956557255501342 -0.009670523184237763 -0.031598143586659744" pbc="T T T"
Si       3.46732196       5.32830597       4.63721536
Si       3.96083334       2.63477403       4.11623837
Si       2.54894159       3.36804534       2.68664216
Si       4.87921370       4.59503465       6.06681156
Si       4.34083545       3.24473042       7.47942507
Si       3.08731984       4.71834957       1.27402866
Si       4.31935965       4.07017990      -0.15852567
Si       3.10879565       3.89290010       8.91197940
Si       1.92690651       3.97668412       4.50761952
Si       5.50124878       3.98639587       4.24583421
Si       7.05307773       5.07271579       3.45016218
Si       0.37507757       2.89036421       5.30329155
Si       2.00753251       2.01289211       4.09637251
Si       5.42062278       5.95018789       4.65708122
Si       4.61485269       5.94815297       0.54501325
Si       2.81330261       2.01492703       8.20844048
16
Lattice="6.774179329297389 -0.26102084961143507 -1.1974487508189222 0.6367833031503015 6.6139987403689116 -0.16934620872535663 -0.1476690626589909 1.5825312631723856 9.859500522410553" Properties=species:S:1:pos:R:3 unique_starting_index=30 config_type=initial n_minim_iter=14 stress="0.03970585364423945 0.003620059953833817 -0.003727895619871961 0.003620059953833817 0.014128181692319683 -0.023769688203117114 -0.003727895619871961 -0.023769688203117114 -0.07259801894185934" pbc="T T T"
Si       3.44923685       5.19067890       4.49962627
Si       3.81405672       2.74483026       3.99307929
Si       2.49365203       3.36202348       2.61025884
Si       4.76964154       4.57348568       5.88244672
Si       4.14925439       3.29432521       7.37818877
Si       3.11403918       4.64118394       1.11451680
Si       4.40650394       4.02976465      -0.27537463
Si       2.85678963       3.90574450       8.76808019
Si       1.84713488       3.95046884       4.39938421
Si       5.41615869       3.98504031       4.09332135
Si       7.01757036       5.00364352       3.30652530
Si       0.24572321       2.93186564       5.18618027
Si       1.88730211       2.00325908       4.00963457
Si       5.37599146       5.93225008       4.48307099
Si       4.65089900       5.90860298       0.40160877
Si       2.61239457       2.02690617       8.09109680
16
Lattice="6.97441726744101 -0.3052659048483916 -1.1624301872994909 0.6100906998584747 6.449052752127594 -0.17210891839755568 -0.02008017966355744 1.5468060526009275 10.33710096304111" Properties=species:S:1:pos:R:3 unique_starting_index=30 config_type=initial n_minim_iter=15 stress="0.0745525542619903 0.007197451290583934 -0.00561900385912249 0.007197451290583934 0.008097649060999065 -0.034897816074935646 -0.00561900385912249 -0.034897816074935646 -0.023520984979825493" pbc="T T T"
Si       3.74000045       4.84599872       4.72100827
Si       3.82442733       2.84459418       4.28155359
Si       2.55986553       3.27351890       2.78633574
Si       5.00456226       4.41707400       6.21622612
Si       4.36018058       3.27421849       7.90102781
Si       3.20424720       4.41637441       1.10153405
Si       4.56855811       3.87740223      -0.25220237
Si       2.99586968       3.81319067       9.25476423
Si       1.96587602       3.85519230       4.59488097
Si       5.59855177       3.83540060       4.40768088
Si       7.23633404       4.77275551       3.65961532
Si       0.32809375       2.91783739       5.34294654
Si       1.96508328       1.93142926       4.20258231
Si       5.59934451       5.75916364       4.79997954
Si       4.76217197       5.73112432       0.41772121
Si       2.80225582       1.95946858       8.58484064
16
Lattice="6.973927319768492 -0.31719694061004083 -1.1667373960381278 0.597859486479487 6.428715624485688 -0.16712610264624014 -0.021085926585228995 1.5520077925600255 10.401660047761442" Properties=species:S:1:pos:R:3 unique_starting_index=30 config_type=initial n_minim_iter=16 stress="0.060637588571117264 2.5552747791152207e-05 -0.0076337215013754026 2.5552747791152207e-05 -0.0112385981212857 -0.03778008305170774 -0.0076337215013754026 -0.03778008305170774 -0.018083232320867487" pbc="T T T"
Si       3.75057289       4.79516325       4.74665655
Si       3.80012799       2.86836322       4.32114000
Si       2.54919917       3.26354501       2.80520246
Si       5.00150171       4.39998147       6.26259409
Si       4.35576543       3.27968776       7.97162004
Si       3.19493545       4.38383871       1.09617651
Si       4.57138784       3.85132668      -0.25364855
Si       2.97931304       3.81219980       9.32144510
Si       1.96867634       3.84882219       4.62117516
Si       5.58202454       3.81470429       4.44662139
Si       7.22553388       4.74284921       3.70498374
Si       0.32516700       2.92067727       5.36281281
Si       1.95124428       1.92589735       4.22626644
Si       5.59945660       5.73762913       4.84153011
Si       4.75032312       5.70673857       0.41664373
Si       2.80037776       1.95678791       8.65115282
16
Lattice="6.837897563419978 -0.3606694706915205 -1.1370151384222005 0.5302928552860808 6.414617853555245 -0.1877182918131104 0.028525928516498416 1.5135092276400883 10.560527170926509" Properties=species:S:1:pos:R:3 unique_starting_index=30 config_type=initial n_minim_iter=17 stress="0.028665824136094212 -0.04802982451877327 0.0027114516318674266 -0.04802982451877327 -0.005874260419054693 -0.020168632290722174 0.0027114516318674266 -0.020168632290722174 0.040251382234010195" pbc="T T T"
Si       3.66047783       4.76725609       4.82805735
Si       3.73623851       2.80020152       4.40773640
Si       2.47540428       3.22676216       2.85853626
Si       4.92131206       4.34069545       6.37725748
Si       4.32214621       3.19585682       8.09066349
Si       3.07457014       4.37160079       1.14513025
Si       4.46129668       3.78917780      -0.26753889
Si       2.93541967       3.77827981       9.50333263
Si       1.90852208       3.82753821       4.70026938
Si       5.48819427       3.73991940       4.53552436
Si       7.07161016       4.67786607       3.77836832
Si       0.32510618       2.88959154       5.45742542
Si       1.89682141       1.89514435       4.29630591
Si       5.49989494       5.67231327       4.93948783
Si       4.61983883       5.65131356       0.42997005
Si       2.77687752       1.91614405       8.80582369
16
Lattice="6.803402480494921 -0.32696376354204354 -1.1363808552321408 0.563905071305889 6.429502106362933 -0.17716095180841612 0.02596744833291585 1.5328863862430355 10.496566782369985" Properties=species:S:1:pos:R:3 unique_starting_index=30 config_type=initial n_minim_iter=18 stress="0.029445279158878967 -0.024851535426372955 -0.014853247015006775 -0.024851535426372955 0.009667641304001605 -0.006213477542245816 -0.014853247015006775 -0.006213477542245816 0.02875855749237058" pbc="T T T"
Si       3.70609295       4.79337612       4.80051444
Si       3.68718205       2.84204861       4.38251054
Si       2.47565777       3.24882087       2.83731433
Si       4.91761723       4.38660386       6.34571064
Si       4.32222432       3.23905428       8.04967257
Si       3.07105068       4.39637044       1.13335240
Si       4.46730947       3.79598179      -0.28185444
Si       2.92596553       3.83944294       9.46487942
Si       1.90397856       3.85832559       4.69171124
Si       5.48929644       3.77709914       4.49131373
Si       7.05301383       4.72957165       3.75850661
Si       0.34026117       2.90585308       5.42451837
Si       1.86258766       1.90921005       4.26903303
Si       5.53068734       5.72621468       4.91399195
Si       4.63149154       5.67477174       0.41502090
Si       2.76178346       1.96065298       8.76800407
16
Lattice="6.740312941449529 -0.2862343168130577 -1.0401621394706722 0.5988360923579255 6.386113677539299 -0.15215324611201916 0.1833600229179671 1.5452283880585378 10.458923973046993" Properties=species:S:1:pos:R:3 unique_starting_index=30 config_type=initial n_minim_iter=19 stress="-0.01155805819642044 0.0049190316567417165 -0.0009558635895743501 0.0049190316567417165 0.03170566499574885 -0.0017981100795848315 -0.0009558635895743501 -0.0017981100795848315 0.04711978839475021" pbc="T T T"
Si       3.81189332       4.80089872       4.83799774
Si       3.71061574       2.84420903       4.42861085
Si       2.51207850       3.24946677       2.84782033
Si       5.01043056       4.39564098       6.41878825
Si       4.44193588       3.26870294       8.09689383
Si       3.08057318       4.37640481       1.16971476
Si       4.45248136       3.77006115      -0.22100866
Si       3.07002770       3.87504660       9.48761724
Si       1.99680141       3.88007798       4.73102518
Si       5.52570765       3.76502977       4.53558340
Si       7.10551755       4.75131848       3.84757508
Si       0.41699150       2.89378927       5.41903351
Si       1.89387289       1.90427928       4.27613555
Si       5.62863617       5.74082847       4.99047304
Si       4.65458561       5.65613676       0.46613228
Si       2.86792345       1.98897099       8.80047631
16
Lattice="6.842061499506524 -0.3432635180030374 -1.0046759758692083 0.5588918873454987 6.243270434162527 -0.06398304938012885 0.20889639588073444 1.635720014170701 10.246220714299266" Properties=species:S:1:pos:R:3 unique_starting_index=30 config_type=initial n_minim_iter=20 stress="0.015105156012253273 0.0233265387926975 0.009304958136375057 0.0233265387926975 0.04065656544591457 0.01122694231196399 0.009304958136375057 0.01122694231196399 -0.011228828599793898" pbc="T T T"
Si       3.90172260       4.74727256       4.80153618
Si       3.70812718       2.78845437       4.37602551
Si       2.52517094       3.22211592       2.78582627
Si       5.08467884       4.31361101       6.39173542
Si       4.51448297       3.30109615       8.02150563
Si       3.09536681       4.23463078       1.15605606
Si       4.47002289       3.61404265      -0.16141280
Si       3.13982689       3.92168428       9.33897449
Si       2.05677119       3.89570146       4.67307688
Si       5.55307860       3.64002547       4.50448481
Si       7.21217063       4.64446559       3.87158794
Si       0.39767915       2.89126134       5.30597375
Si       1.89314519       1.90246092       4.22686345
Si       5.71670459       5.63326601       4.95069824
Si       4.70076432       5.51273809       0.50174444
Si       2.90908547       2.02298884       8.67581725
16
Lattice="6.909835328007992 -0.4793846035104859 -1.053908868499057 0.41394485908270323 6.087351134621588 -0.11844113579847661 0.08869894758243584 1.5192464745897332 10.151022461656234" Properties=species:S:1:pos:R:3 unique_starting_index=30 config_type=initial n_minim_iter=21 stress="-0.005266153122425198 -0.004531566531283657 -0.001083144367405389 -0.004531566531283657 0.012894362322918514 0.005253496843359509 -0.001083144367405389 0.005253496843359509 -0.00011947960954428026" pbc="T T T"
Si       3.83000534       4.53476851       4.69330796
Si       3.58247380       2.59244449       4.28536450
Si       2.41251847       3.09495974       2.71096753
Si       4.99996066       4.03225327       6.26770493
Si       4.40763933       3.09425858       7.96109977
Si       3.00483981       4.03295443       1.01757268
Si       4.40599573       3.36913345      -0.26069785
Si       3.00648340       3.75807955       9.23937031
Si       1.93068301       3.78313968       4.56918882
Si       5.48179613       3.34407333       4.40948364
Si       7.13548734       4.34541116       3.77532035
Si       0.27699180       2.78180184       5.20335211
Si       1.78139746       1.79410064       4.17733163
Si       5.63108168       5.33311237       4.80134082
Si       4.61381444       5.28485208       0.37309387
Si       2.79866470       1.84236093       8.60557859
