22
Lattice="5.195142193124675 -1.0934091575780183 0.715551039203446 1.417021145991967 5.133440443267429 1.1792337806370397 2.492856651861605 1.7100367343424003 17.329221060476236" Properties=species:S:1:pos:R:3 unique_starting_index=40 config_type=initial n_minim_iter=1 energy=-3602.6452952609457 free_energy=-3602.6452952609457 pbc="T T T"
Si       8.68340272       2.02798851      16.25225504
Si       2.58293326       0.98644881       5.16656641
Si       5.12352677       1.03285817       8.09741383
Si       5.44985760       3.38793002      15.17726599
Si       4.83385947       2.91520488      17.04242963
Si       4.54621376       6.17204836       9.58835931
Si       5.23822521       1.43808657       2.91478534
Si       4.85721973       3.36120414      11.72879755
Si       3.73146164       1.78212170       1.05255930
Si       5.83637386       4.63357907      16.73475702
Si       4.06442914       1.53587332      11.95810090
Si       4.43893942       2.66714741      13.58237134
Si       1.77680961       1.68218531       1.60291624
Si       1.07698732       1.12989312       8.68826694
Si       4.74078449       1.54359470      15.55094189
Si       5.71032682       4.76600558      10.48639192
Si       2.80321340       2.94432014       5.56367648
Si       3.30025595       6.86557153       8.10493361
Si       4.29028684       1.92456756       4.64728383
Si       4.70799931       1.46138126      10.03782401
Si       6.77321304       2.71015539      16.53012265
Si       3.87478800       1.58422653       6.59400809
22
Lattice="5.195155200664542 -1.0933828818259417 0.7155601296126348 1.417034573445161 5.133334906619564 1.1792042710986628 2.4928689595786353 1.7098986685476683 17.32924899055868" Properties=species:S:1:pos:R:3 unique_starting_index=40 config_type=initial n_minim_iter=2 stress="-5.0906418633608346e-05 -6.63580388944534e-05 -8.086244875676792e-06 -6.63580388944534e-05 -0.0002525990861427348 -3.3245136083269014e-05 -8.086244875676792e-06 -3.3245136083269014e-05 -8.849143766387243e-05" pbc="T T T"
Si       8.68344169       2.02786521      16.25228848
Si       2.58297026       0.98641604       5.16659920
Si       5.12353105       1.03280335       8.09742118
Si       5.44989595       3.38775657      15.17728858
Si       4.83386827       2.91503948      17.04244220
Si       4.54623770       6.17188307       9.58836297
Si       5.23823276       1.43805961       2.91478429
Si       4.85722160       3.36107296      11.72879659
Si       3.73148544       1.78208624       1.05253522
Si       5.83641369       4.63339503      16.73476500
Si       4.06444548       1.53579067      11.95810498
Si       4.43896309       2.66701934      13.58239163
Si       1.77682960       1.68214471       1.60289768
Si       1.07701007       1.12980773       8.68829430
Si       4.74080569       1.54348557      15.55097976
Si       5.71034797       4.76583909      10.48637785
Si       2.80322666       2.94422124       5.56367985
Si       3.30028367       6.86539033       8.10488063
Si       4.29027979       1.92449470       4.64729646
Si       4.70801722       1.46130460      10.03784784
Si       6.77324097       2.71001891      16.53014106
Si       3.87477226       1.58416063       6.59397603
22
Lattice="5.195181000615799 -1.0933597095966072 0.7155716377502869 1.417081780685155 5.133411606227009 1.1792150304279059 2.4929116083706524 1.7099332804742882 17.329416199404516" Properties=species:S:1:pos:R:3 unique_starting_index=40 config_type=initial n_minim_iter=3 stress="0.000123261593856391 -9.049415061650383e-06 -6.99778241016343e-06 -9.049415061650383e-06 -1.0681951881911272e-05 -4.630387050607219e-05 -6.99778241016343e-06 -4.630387050607219e-05 8.068517934965887e-05" pbc="T T T"
Si       8.68353027       2.02795240      16.25245625
Si       2.58301421       0.98645279       5.16666649
Si       5.12356982       1.03285512       8.09750012
Si       5.44997769       3.38782278      15.17744244
Si       4.83392690       2.91510098      17.04260433
Si       4.54631841       6.17199889       9.58846952
Si       5.23827225       1.43812206       2.91481654
Si       4.85727506       3.36115176      11.72890709
Si       3.73152943       1.78213556       1.05253728
Si       5.83650694       4.63349329      16.73492802
Si       4.06449088       1.53584239      11.95821375
Si       4.43902506       2.66708310      13.58252858
Si       1.77686204       1.68217873       1.60290633
Si       1.07704199       1.12982149       8.68838626
Si       4.74086203       1.54353857      15.55113985
Si       5.71042503       4.76592743      10.48647572
Si       2.80326902       2.94427345       5.56374000
Si       3.30036299       6.86549970       8.10494159
Si       4.29031069       1.92454044       4.64735180
Si       4.70806674       1.46135905      10.03795381
Si       6.77331905       2.71010310      16.53030313
Si       3.87479628       1.58420590       6.59402118
22
Lattice="5.195122549861983 -1.0933428775932668 0.7155686676439156 1.4170885912849678 5.1334576940800565 1.1792361170143943 2.4929110985805494 1.7100392700804308 17.329346522755866" Properties=species:S:1:pos:R:3 unique_starting_index=40 config_type=initial n_minim_iter=4 stress="-4.531517403971014e-05 3.7890462370169975e-05 -7.344667320535931e-06 3.7890462370169975e-05 1.928568309362567e-05 -9.030640294435143e-06 -7.344667320535931e-06 -9.030640294435143e-06 -1.9291218432309816e-05" pbc="T T T"
Si       8.68346771       2.02808292      16.25240312
Si       2.58300372       0.98649642       5.16665711
Si       5.12352470       1.03292236       8.09747391
Si       5.44995450       3.38793465      15.17739681
Si       4.83390490       2.91522233      17.04254309
Si       4.54630528       6.17210943       9.58846632
Si       5.23822240       1.43817081       2.91481586
Si       4.85724329       3.36125437      11.72887189
Si       3.73150109       1.78216692       1.05253785
Si       5.83648639       4.63362822      16.73487895
Si       4.06446582       1.53593029      11.95816561
Si       4.43900599       2.66718603      13.58248489
Si       1.77685596       1.68220523       1.60290452
Si       1.07704748       1.12987419       8.68835372
Si       4.74083661       1.54364371      15.55108447
Si       5.71039557       4.76602825      10.48645285
Si       2.80325514       2.94433170       5.56373418
Si       3.30036351       6.86559764       8.10493369
Si       4.29027103       1.92458809       4.64734746
Si       4.70803425       1.46143838      10.03792205
Si       6.77327744       2.71023199      16.53024721
Si       3.87476190       1.58426192       6.59399628
22
Lattice="5.195153325254758 -1.0933949015127593 0.7155845254768456 1.4170433458852256 5.1334836446546035 1.1793181218751376 2.493000491075737 1.7102640074762683 17.329407850211403" Properties=species:S:1:pos:R:3 unique_starting_index=40 config_type=initial n_minim_iter=5 stress="1.0465210612125033e-06 -6.080614326289758e-05 3.6845758412847474e-05 -6.080614326289758e-05 2.7782782683939628e-05 6.52865251313136e-05 3.6845758412847474e-05 6.52865251313136e-05 7.4619141179953145e-06" pbc="T T T"
Si       8.68357187       2.02823960      16.25251239
Si       2.58304329       0.98654027       5.16670620
Si       5.12356543       1.03298217       8.09753728
Si       5.45003095       3.38808651      15.17749810
Si       4.83398996       2.91543031      17.04263391
Si       4.54630447       6.17223982       9.58861109
Si       5.23822765       1.43817495       2.91487060
Si       4.85726448       3.36139335      11.72895643
Si       3.73150659       1.78214625       1.05255926
Si       5.83655988       4.63381058      16.73499934
Si       4.06452601       1.53607443      11.95821626
Si       4.43907704       2.66734408      13.58256906
Si       1.77686482       1.68221826       1.60292664
Si       1.07709078       1.12998897       8.68838334
Si       4.74093054       1.54381040      15.55116817
Si       5.71042726       4.76612458      10.48655612
Si       2.80324996       2.94440519       5.56380430
Si       3.30033349       6.86570431       8.10504460
Si       4.29027298       1.92460014       4.64740817
Si       4.70809123       1.46153520      10.03798689
Si       6.77337312       2.71041075      16.53035392
Si       3.87478642       1.58430633       6.59405218
22
Lattice="5.195171697444191 -1.0933022844449134 0.7155278173383632 1.4171332488083088 5.133461257874564 1.179238560046353 2.492825429982955 1.7100966582165429 17.329335117469412" Properties=species:S:1:pos:R:3 unique_starting_index=40 config_type=initial n_minim_iter=6 stress="4.78824620942365e-05 -4.2999789072573937e-05 -0.00010337669507618322 -4.2999789072573937e-05 5.521900484531702e-05 -6.336735582458591e-06 -0.00010337669507618322 -6.336735582458591e-06 -0.00010112048612140502" pbc="T T T"
Si       8.68350279       2.02823866      16.25238927
Si       2.58304687       0.98648856       5.16669859
Si       5.12349588       1.03296053       8.09748283
Si       5.44998101       3.38792749      15.17736880
Si       4.83387902       2.91532177      17.04251494
Si       4.54632068       6.17222918       9.58853977
Si       5.23822886       1.43827416       2.91478042
Si       4.85712647       3.36138002      11.72881303
Si       3.73159078       1.78217448       1.05238454
Si       5.83651509       4.63364717      16.73483952
Si       4.06440928       1.53603877      11.95810609
Si       4.43901999       2.66725436      13.58247203
Si       1.77693209       1.68223186       1.60283039
Si       1.07700407       1.12990015       8.68832271
Si       4.74081351       1.54367604      15.55112921
Si       5.71045593       4.76604181      10.48637379
Si       2.80320535       2.94441923       5.56374073
Si       3.30032739       6.86560509       8.10486350
Si       4.29023566       1.92455853       4.64732193
Si       4.70803168       1.46148237      10.03789973
Si       6.77330836       2.71034851      16.53024619
Si       3.87474808       1.58423450       6.59400778
22
Lattice="5.195126950299199 -1.0931813710770704 0.715646693973633 1.4172496625018502 5.133396983082212 1.1792698826591719 2.4931641379419007 1.7100377059311986 17.32979792526128" Properties=species:S:1:pos:R:3 unique_starting_index=40 config_type=initial n_minim_iter=7 stress="-4.9896055642858774e-05 -1.5514006510607917e-05 8.3050897849083e-06 -1.5514006510607917e-05 8.070416730411734e-06 -3.074065138757806e-05 8.3050897849083e-06 -3.074065138757806e-05 4.8214142872504886e-05" pbc="T T T"
Si       8.68380650       2.02832913      16.25295578
Si       2.58315607       0.98647929       5.16688881
Si       5.12361520       1.03300366       8.09778741
Si       5.45031104       3.38787764      15.17782403
Si       4.83423105       2.91529968      17.04300317
Si       4.54658593       6.17220735       9.58886823
Si       5.23826166       1.43836833       2.91494020
Si       4.85732699       3.36140044      11.72916124
Si       3.73164364       1.78220692       1.05241937
Si       5.83690163       4.63358875      16.73532752
Si       4.06462010       1.53606371      11.95845601
Si       4.43931422       2.66723842      13.58287417
Si       1.77700250       1.68224228       1.60286951
Si       1.07718174       1.12986076       8.68853798
Si       4.74110830       1.54365744      15.55162458
Si       5.71072505       4.76601212      10.48669270
Si       2.80332347       2.94442091       5.56392440
Si       3.30056395       6.86550612       8.10506884
Si       4.29030351       1.92456357       4.64750552
Si       4.70821622       1.46149698      10.03822686
Si       6.77364959       2.71037489      16.53078466
Si       3.87486541       1.58422859       6.59425605
22
Lattice="5.195204536152092 -1.0930637844683835 0.7156655285044707 1.4173773610626506 5.133367648059514 1.1793261855584178 2.4933589696859917 1.7102464678294866 17.329709824117423" Properties=species:S:1:pos:R:3 unique_starting_index=40 config_type=initial n_minim_iter=8 stress="4.676454570525523e-05 4.305758283640219e-05 2.2979579637354703e-05 4.305758283640219e-05 -3.2226332347301304e-05 3.0385592097624766e-05 2.2979579637354703e-05 3.0385592097624766e-05 -2.772804605047585e-05" pbc="T T T"
Si       8.68412995       2.02865226      16.25293018
Si       2.58325604       0.98655106       5.16688950
Si       5.12376773       1.03317138       8.09777916
Si       5.45058459       3.38807344      15.17778763
Si       4.83449160       2.91553185      17.04293611
Si       4.54683762       6.17233922       9.58891513
Si       5.23839848       1.43849237       2.91496746
Si       4.85751927       3.36159614      11.72914419
Si       3.73177102       1.78225713       1.05243301
Si       5.83722167       4.63380956      16.73528500
Si       4.06479346       1.53626356      11.95841510
Si       4.43955123       2.66743195      13.58282516
Si       1.77708132       1.68228322       1.60287878
Si       1.07728581       1.12995679       8.68848708
Si       4.74133348       1.54387452      15.55158504
Si       5.71099711       4.76615909      10.48669542
Si       2.80345411       2.94449359       5.56394696
Si       3.30078867       6.86555279       8.10510356
Si       4.29043133       1.92465005       4.64752623
Si       4.70839518       1.46166014      10.03820248
Si       6.77395155       2.71064627      16.53075226
Si       3.87499557       1.58433885       6.59426673
22
Lattice="5.195200780781304 -1.0930085794852582 0.7156429767152277 1.41742264796853 5.133348761064937 1.1793199708974504 2.4932709864137053 1.710224579508404 17.329887852962234" Properties=species:S:1:pos:R:3 unique_starting_index=40 config_type=initial n_minim_iter=9 stress="-5.083815915720418e-06 -3.913640470456031e-06 7.118943050998738e-07 -3.913640470456031e-06 5.103310249135996e-06 -5.454712629851682e-06 7.118943050998738e-07 -5.454712629851682e-06 -9.79239640847888e-06" pbc="T T T"
Si       8.68416729       2.02877234      16.25308121
Si       2.58323706       0.98648147       5.16696360
Si       5.12366685       1.03322020       8.09781601
Si       5.45055234       3.38797968      15.17789813
Si       4.83446025       2.91551743      17.04305079
Si       4.54679987       6.17245554       9.58904069
Si       5.23841094       1.43859040       2.91494446
Si       4.85732589       3.36171651      11.72923611
Si       3.73187509       1.78224507       1.05234321
Si       5.83723648       4.63380322      16.73535029
Si       4.06470077       1.53634864      11.95854571
Si       4.43957816       2.66744023      13.58288821
Si       1.77709825       1.68236361       1.60286231
Si       1.07726427       1.12992107       8.68855603
Si       4.74128960       1.54378665      15.55182048
Si       5.71104855       4.76614367      10.48672311
Si       2.80341115       2.94446784       5.56404276
Si       3.30075533       6.86548087       8.10517286
Si       4.29036285       1.92459989       4.64757321
Si       4.70834785       1.46161210      10.03827880
Si       6.77395850       2.71067823      16.53092613
Si       3.87489349       1.58431865       6.59436480
22
Lattice="5.195223821086655 -1.09292690584705 0.7156218647399895 1.4174868440869943 5.133297590585249 1.1793724635444194 2.4932130565966233 1.7103466210057696 17.33025909404261" Properties=species:S:1:pos:R:3 unique_starting_index=40 config_type=initial n_minim_iter=10 stress="-2.2533439905760442e-05 1.618352349107624e-05 -6.468755135952383e-05 1.618352349107624e-05 -5.004723818913331e-05 5.4619933516125634e-05 -6.468755135952383e-05 5.4619933516125634e-05 8.483126557668848e-05" pbc="T T T"
Si       8.68421122       2.02899649      16.25339382
Si       2.58322159       0.98648033       5.16708845
Si       5.12366094       1.03332113       8.09797251
Si       5.45060967       3.38802217      15.17820793
Si       4.83452194       2.91566882      17.04343533
Si       4.54683819       6.17256505       9.58930885
Si       5.23847186       1.43869281       2.91497476
Si       4.85721962       3.36191255      11.72947432
Si       3.73195854       1.78223476       1.05233389
Si       5.83726785       4.63388804      16.73562356
Si       4.06465302       1.53649605      11.95878868
Si       4.43963364       2.66756330      13.58315045
Si       1.77713432       1.68244015       1.60287849
Si       1.07721572       1.12997520       8.68872301
Si       4.74127322       1.54388287      15.55218941
Si       5.71111499       4.76620451      10.48691012
Si       2.80340453       2.94444445       5.56420663
Si       3.30077301       6.86544097       8.10539804
Si       4.29034734       1.92460161       4.64769743
Si       4.70832965       1.46166475      10.03849371
Si       6.77397796       2.71083945      16.53126084
Si       3.87482484       1.58437359       6.59449659
22
Lattice="5.195280770654077 -1.0929329832525414 0.7156980707992511 1.4175237523048483 5.1333130649771395 1.1793229099910139 2.4934811317010874 1.7101709792069673 17.33007382358339" Properties=species:S:1:pos:R:3 unique_starting_index=40 config_type=initial n_minim_iter=11 stress="1.0763687925354343e-05 -3.907204195667371e-06 2.5869460286342484e-05 -3.907204195667371e-06 4.578952294547846e-07 -1.8819692828804805e-05 2.5869460286342484e-05 -1.8819692828804805e-05 -2.6353330226674666e-05" pbc="T T T"
Si       8.68454763       2.02886026      16.25330182
Si       2.58330675       0.98640736       5.16706473
Si       5.12381540       1.03324819       8.09794024
Si       5.45090686       3.38784532      15.17806316
Si       4.83485042       2.91551353      17.04328812
Si       4.54702126       6.17253872       9.58921602
Si       5.23857527       1.43869765       2.91499389
Si       4.85737234       3.36186278      11.72936446
Si       3.73202903       1.78222007       1.05234991
Si       5.83757670       4.63372455      16.73541210
Si       4.06484841       1.53640415      11.95868448
Si       4.43990422       2.66744662      13.58301472
Si       1.77718453       1.68247052       1.60285359
Si       1.07733669       1.12988785       8.68861640
Si       4.74154382       1.54371495      15.55208321
Si       5.71132971       4.76611921      10.48679465
Si       2.80349271       2.94437846       5.56416557
Si       3.30090533       6.86537619       8.10528688
Si       4.29043336       1.92453998       4.64770133
Si       4.70850700       1.46154567      10.03843727
Si       6.77429473       2.71068511      16.53113189
Si       3.87491904       1.58430565       6.59445897
22
Lattice="5.1953137140909895 -1.092889813139077 0.7156952017125736 1.417589994417805 5.1333867081671345 1.1793247189061904 2.493487727545331 1.7101990200421673 17.330217238179646" Properties=species:S:1:pos:R:3 unique_starting_index=40 config_type=initial n_minim_iter=12 stress="3.026428713851053e-06 4.39688800011997e-06 -5.723608891130855e-07 4.39688800011997e-06 2.476982321560335e-06 -1.908319209943231e-06 -5.723608891130855e-07 -1.908319209943231e-06 -5.95541343231428e-07" pbc="T T T"
Si       8.68474863       2.02898129      16.25342215
Si       2.58326148       0.98635024       5.16713328
Si       5.12381012       1.03332138       8.09798991
Si       5.45105634       3.38778373      15.17813776
Si       4.83498668       2.91557927      17.04346519
Si       4.54714651       6.17276226       9.58936486
Si       5.23867958       1.43884760       2.91500402
Si       4.85718707       3.36208411      11.72943154
Si       3.73213772       1.78222705       1.05238845
Si       5.83770501       4.63379310      16.73535548
Si       4.06486471       1.53659033      11.95873415
Si       4.44007950       2.66756054      13.58310554
Si       1.77726382       1.68264876       1.60281802
Si       1.07726953       1.12991040       8.68867549
Si       4.74157654       1.54378679      15.55228832
Si       5.71139487       4.76621442      10.48677380
Si       2.80343690       2.94436175       5.56423849
Si       3.30092370       6.86542522       8.10538438
Si       4.29042270       1.92450301       4.64778827
Si       4.70850786       1.46152945      10.03856714
Si       6.77445329       2.71075476      16.53122874
Si       3.87487463       1.58429143       6.59455171
22
Lattice="5.195304046640941 -1.0929084494031962 0.7156965458270171 1.4175605702264793 5.133364591018833 1.179353923890895 2.493480879383236 1.7102566737393023 17.330309391560743" Properties=species:S:1:pos:R:3 unique_starting_index=40 config_type=initial n_minim_iter=13 stress="1.629742718470485e-06 -2.46683028211969e-06 -3.6111139768005636e-07 -2.46683028211969e-06 -5.739082566118163e-06 1.4857177086659454e-06 -3.6111139768005636e-07 1.4857177086659454e-06 -1.3565330664766995e-07" pbc="T T T"
Si       8.68480344       2.02901575      16.25354121
Si       2.58320151       0.98633127       5.16719940
Si       5.12376172       1.03334991       8.09803929
Si       5.45113484       3.38777420      15.17820207
Si       4.83503284       2.91562512      17.04352533
Si       4.54711444       6.17280953       9.58950336
Si       5.23869380       1.43889250       2.91505455
Si       4.85702080       3.36226516      11.72945079
Si       3.73215172       1.78220072       1.05246337
Si       5.83772663       4.63377301      16.73535017
Si       4.06482364       1.53667363      11.95879517
Si       4.44013307       2.66760993      13.58315506
Si       1.77730314       1.68275302       1.60282283
Si       1.07721166       1.12994684       8.68874783
Si       4.74156355       1.54379192      15.55242095
Si       5.71127834       4.76620045      10.48677707
Si       2.80331726       2.94428619       5.56427268
Si       3.30086830       6.86537552       8.10547404
Si       4.29035319       1.92440974       4.64785497
Si       4.70847074       1.46149253      10.03862423
Si       6.77452326       2.71075096      16.53131274
Si       3.87482573       1.58421703       6.59461464
22
Lattice="5.195275620506441 -1.092908356068918 0.7157053226351276 1.4175619600292055 5.133404275042991 1.17936331421101 2.4934950953417565 1.7102857254095385 17.33036431987126" Properties=species:S:1:pos:R:3 unique_starting_index=40 config_type=initial n_minim_iter=14 stress="-2.560784938681292e-06 2.6706935405377312e-06 3.0739992697561817e-07 2.6706935405377312e-06 4.09334397843986e-06 -1.143676917492615e-06 3.0739992697561817e-07 -1.143676917492615e-06 1.5637549619193202e-06" pbc="T T T"
Si       8.68485000       2.02907467      16.25362337
Si       2.58313472       0.98631544       5.16724380
Si       5.12377464       1.03338638       8.09808892
Si       5.45121180       3.38779301      15.17822709
Si       4.83510331       2.91565055      17.04358200
Si       4.54705657       6.17290202       9.58958683
Si       5.23870300       1.43896353       2.91511562
Si       4.85688762       3.36237872      11.72945702
Si       3.73214165       1.78223648       1.05249801
Si       5.83780941       4.63381281      16.73536808
Si       4.06482136       1.53678882      11.95883759
Si       4.44017537       2.66766051      13.58316453
Si       1.77734973       1.68285655       1.60281438
Si       1.07716628       1.12997552       8.68880657
Si       4.74157918       1.54378045      15.55248951
Si       5.71119012       4.76623647      10.48676318
Si       2.80324729       2.94425317       5.56427484
Si       3.30086131       6.86540103       8.10553806
Si       4.29030836       1.92437281       4.64788906
Si       4.70844844       1.46147882      10.03863976
Si       6.77456698       2.71076950      16.53138381
Si       3.87479617       1.58418304       6.59462394
22
Lattice="5.19528361788291 -1.0929224231739805 0.7157062995754326 1.4175473880876759 5.133402215788421 1.1793824932018055 2.4935064194143797 1.710336523418685 17.330377629195603" Properties=species:S:1:pos:R:3 unique_starting_index=40 config_type=initial n_minim_iter=15 stress="2.558471250412933e-06 6.455374120283579e-07 2.865182670757458e-07 6.455374120283579e-07 5.854003828617726e-07 2.5845741070171676e-06 2.865182670757458e-07 2.5845741070171676e-06 8.031520059648446e-07" pbc="T T T"
Si       8.68495378       2.02911843      16.25366037
Si       2.58305535       0.98627313       5.16726713
Si       5.12377533       1.03342967       8.09809506
Si       5.45127416       3.38775218      15.17822910
Si       4.83518913       2.91567399      17.04361285
Si       4.54697826       6.17295258       9.58964246
Si       5.23874557       1.43900806       2.91518708
Si       4.85677526       3.36251232      11.72942848
Si       3.73214595       1.78226825       1.05251103
Si       5.83792635       4.63382467      16.73539082
Si       4.06481017       1.53684819      11.95883831
Si       4.44022213       2.66772139      13.58316544
Si       1.77739798       1.68294598       1.60279571
Si       1.07710906       1.13000019       8.68887807
Si       4.74163368       1.54382977      15.55249815
Si       5.71110898       4.76624934      10.48672618
Si       2.80319265       2.94419352       5.56426331
Si       3.30083915       6.86538049       8.10560890
Si       4.29027658       1.92431709       4.64789947
Si       4.70843771       1.46145523      10.03862410
Si       6.77461939       2.71078733      16.53142619
Si       3.87478778       1.58413614       6.59462000
22
Lattice="5.195263708506651 -1.0929490068826817 0.7157112979662521 1.417519476116003 5.133403236534389 1.1793647993322816 2.493488659374712 1.710266248682809 17.33038734865644" Properties=species:S:1:pos:R:3 unique_starting_index=40 config_type=initial n_minim_iter=16 stress="-3.840955910652964e-07 4.979667103521368e-06 1.6522278542359618e-06 4.979667103521368e-06 6.974664748088233e-07 2.8089211213333343e-06 1.6522278542359618e-06 2.8089211213333343e-06 7.541142449154694e-07" pbc="T T T"
Si       8.68495336       2.02905532      16.25368883
Si       2.58295484       0.98617187       5.16728313
Si       5.12368512       1.03340554       8.09808521
Si       5.45135253       3.38765043      15.17823621
Si       4.83520520       2.91557857      17.04363667
Si       4.54689650       6.17294676       9.58962376
Si       5.23878548       1.43902497       2.91525960
Si       4.85659952       3.36252730      11.72939297
Si       3.73217019       1.78233070       1.05251318
Si       5.83802528       4.63369821      16.73541238
Si       4.06477362       1.53682083      11.95880661
Si       4.44022080       2.66770153      13.58315206
Si       1.77741402       1.68303720       1.60275694
Si       1.07698673       1.12996870       8.68895149
Si       4.74166551       1.54373573      15.55248820
Si       5.71100569       4.76622166      10.48663589
Si       2.80314601       2.94408750       5.56423488
Si       3.30077033       6.86531777       8.10564369
Si       4.29018820       1.92422577       4.64788109
Si       4.70838018       1.46136269      10.03861539
Si       6.77465188       2.71068973      16.53145637
Si       3.87472997       1.58404107       6.59460324
22
Lattice="5.195267942283093 -1.0930309359188248 0.7157040873669426 1.417443797273314 5.1333968188099535 1.179313179940794 2.4933985070427824 1.710076088001097 17.33039563488348" Properties=species:S:1:pos:R:3 unique_starting_index=40 config_type=initial n_minim_iter=17 stress="1.0302965954836039e-06 -3.9706921948944043e-07 6.031624434472953e-07 -3.9706921948944043e-07 2.6053443657485554e-06 3.393921708491478e-07 6.031624434472953e-07 3.393921708491478e-07 8.134382212008825e-07" pbc="T T T"
Si       8.68494868       2.02879401      16.25367807
Si       2.58285744       0.98602281       5.16729344
Si       5.12361926       1.03325198       8.09807342
Si       5.45130857       3.38744158      15.17823270
Si       4.83513637       2.91535565      17.04361344
Si       4.54673665       6.17285507       9.58954877
Si       5.23882049       1.43896711       2.91529851
Si       4.85639114       3.36242597      11.72934218
Si       3.73221237       1.78235930       1.05250318
Si       5.83802168       4.63343099      16.73540941
Si       4.06468605       1.53665965      11.95878040
Si       4.44014913       2.66756600      13.58312708
Si       1.77740170       1.68309140       1.60270816
Si       1.07683570       1.12991667       8.68896161
Si       4.74162096       1.54353215      15.55247020
Si       5.71082376       4.76606066      10.48652049
Si       2.80307224       2.94394705       5.56420239
Si       3.30058654       6.86520446       8.10562931
Si       4.29006593       1.92407209       4.64783312
Si       4.70828671       1.46120045      10.03861323
Si       6.77462110       2.71044127      16.53147345
Si       3.87462627       1.58388766       6.59455104
22
Lattice="5.195260097526099 -1.0931068507881943 0.7156921015488029 1.4173685815319244 5.133378039100699 1.1792506656531891 2.4932811153142707 1.7098521363761565 17.33040670048253" Properties=species:S:1:pos:R:3 unique_starting_index=40 config_type=initial n_minim_iter=18 stress="1.9061169626586363e-06 2.4826700080850574e-06 1.5023024811730627e-07 2.4826700080850574e-06 1.1644558885929024e-06 -1.3580791976215233e-06 1.5023024811730627e-07 -1.3580791976215233e-06 5.83954847604676e-07" pbc="T T T"
Si       8.68490234       2.02848621      16.25364299
Si       2.58272788       0.98584787       5.16730363
Si       5.12348980       1.03309335       8.09801296
Si       5.45126838       3.38721387      15.17824634
Si       4.83509508       2.91511464      17.04361223
Si       4.54655984       6.17273334       9.58945054
Si       5.23885488       1.43890115       2.91532941
Si       4.85615507       3.36227866      11.72929532
Si       3.73225840       1.78238598       1.05248824
Si       5.83800040       4.63315245      16.73540689
Si       4.06457209       1.53647706      11.95878457
Si       4.44004916       2.66740370      13.58309218
Si       1.77740186       1.68313740       1.60263869
Si       1.07672775       1.12985977       8.68895940
Si       4.74153652       1.54329303      15.55244667
Si       5.71056791       4.76585078      10.48639570
Si       2.80297833       2.94379816       5.56418763
Si       3.30038444       6.86507079       8.10556978