8
Lattice="6.166930602106179 0.9742129551217175 0.7695862527057185 2.7866916114630396 5.586991479832622 0.7695862527056505 2.786691611462962 2.0420845244366004 5.257055030255325" Properties=species:S:1:pos:R:3 unique_starting_index=42 config_type=initial n_minim_iter=1 energy=-1306.4327656408675 free_energy=-1306.4327656408675 pbc="T T T"
Si       7.02384807       6.15483159       2.99208275
Si       7.98479896       4.03208203       4.01923536
Si       6.25013321       5.39149699       5.29495495
Si       9.13620289       7.49566588       4.04567477
Si       9.89967686       5.42984553       5.34189761
Si       8.15980769       7.00345822       6.35545482
Si       8.07798187       5.91953616       4.67617848
Si       2.19295355       1.60699393       1.26945596
8
Lattice="6.167110848004619 0.9743339064695193 0.7696817990583171 2.786861241848213 5.587126917437689 0.7696817990582464 2.786861241848132 2.0422088293948564 5.25716466933464" Properties=species:S:1:pos:R:3 unique_starting_index=42 config_type=initial n_minim_iter=2 stress="0.001156211003886134 -1.2964125891778056e-05 -1.0241100740456418e-05 -1.2964125891778056e-05 0.0011644021533192303 -7.50466728690846e-06 -1.0241100740456418e-05 -7.50466728690846e-06 0.0011679738866234026" pbc="T T T"
Si       7.02416656       6.15507951       2.99227427
Si       7.98513131       4.03232136       4.01941381
Si       6.25046154       5.39172726       5.29515180
Si       9.13664021       7.49600599       4.04587641
Si       9.90013291       5.43011451       5.34215693
Si       8.16020155       7.00379241       6.35573902
Si       8.07820171       5.91969726       4.67630574
Si       2.19306591       1.60707627       1.26952100
8
Lattice="6.1668994031599 0.9743164221441626 0.7696679871947397 2.7867808738329076 5.58693056162263 0.7696679871946679 2.786780873832826 2.042149935802311 5.2569768451656955" Properties=species:S:1:pos:R:3 unique_starting_index=42 config_type=initial n_minim_iter=3 stress="-0.0004457219689949942 -0.0003149100772574251 -0.0002487653905597432 -0.0003149100772574251 -0.00024675170728788903 -0.00018229500251357552 -0.0002487653905597432 -0.00018229500251357552 -0.00015999114807039783" pbc="T T T"
Si       7.02393942       6.15489234       2.99218385
Si       7.98488440       4.03219631       4.01927889
Si       6.25026792       5.39155023       5.29499064
Si       9.13635814       7.49576574       4.04574748
Si       9.89981885       5.42994358       5.34199553
Si       8.15994395       7.00357799       6.35553514
Si       8.07791820       5.91948950       4.67614162
Si       2.19300914       1.60703467       1.26948814
8
Lattice="6.164994174606564 0.9788589906372275 0.7732564205510445 2.790538497911791 5.583745426517639 0.7732564205508886 2.790538497911646 2.044903518562823 5.253047504054191" Properties=species:S:1:pos:R:3 unique_starting_index=42 config_type=initial n_minim_iter=4 stress="0.00022908370791885794 0.0006745366219593274 0.0005328548634902083 0.0006745366219593274 -0.00019711011039664575 0.0003904754534024041 0.0005328548634902083 0.0003904754534024041 -0.0003829510180230407" pbc="T T T"
Si       7.02622904       6.15740836       2.99451838
Si       7.98797328       4.03479739       4.02012505
Si       6.25367867       5.39287388       5.29689787
Si       9.14133093       7.49778357       4.04937161
Si       9.90324096       5.43442627       5.34517817
Si       8.16524930       7.00711698       6.35665915
Si       8.08115906       5.92186441       4.67801769
Si       2.19534028       1.60874293       1.27083759
8
Lattice="6.161486252531019 0.9736362040157097 0.7691306441860508 2.784501589891665 5.581973772223397 0.7691306441858656 2.7845015898914967 2.040479679056285 5.252279107299508" Properties=species:S:1:pos:R:3 unique_starting_index=42 config_type=initial n_minim_iter=5 stress="-0.0001731438660693429 -0.00011791796953634853 -9.31501144922752e-05 -0.00011791796953634853 -9.863952038117857e-05 -6.826030066924144e-05 -9.31501144922752e-05 -6.826030066924144e-05 -6.615205896301543e-05" pbc="T T T"
Si       7.01631433       6.15248103       2.98768512
Si       7.98028812       4.02630472       4.01395364
Si       6.24326541       5.38576589       5.29368631
Si       9.12940872       7.48927108       4.04096589
Si       9.89153244       5.42421072       5.33855920
Si       8.15198120       6.99880559       6.35032387
Si       8.06994491       5.91364669       4.67152605
Si       2.19352608       1.60741348       1.26978738
8
Lattice="6.164270838917219 0.972883009423041 0.7685356529153969 2.7846222144694255 5.584855902190585 0.7685356529151173 2.784622214469186 2.0405680726132043 5.255220684145206" Properties=species:S:1:pos:R:3 unique_starting_index=42 config_type=initial n_minim_iter=6 stress="-6.86036658473365e-05 -0.0005845770056054773 -0.0004617906432027078 -0.0005845770056054773 0.0003007507887034141 -0.00033839967155812717 -0.0004617906432027078 -0.00033839967155812717 0.00046180701270828544" pbc="T T T"
Si       7.01706892       6.15940174       2.98817189
Si       7.98711466       4.02646221       4.01251277
Si       6.24547202       5.38586013       5.30030633
Si       9.13061937       7.48787683       4.04004185
Si       9.89056765       5.42367627       5.34030477
Si       8.15118093       7.00032803       6.34918141
Si       8.06985153       5.91357826       4.67147199
Si       2.19952144       1.61180688       1.27325798
8
Lattice="6.165951565830901 0.9761203709979384 0.7710930290516956 2.78821549814923 5.585483329733475 0.7710930290513871 2.7882154981489697 2.043201226911399 5.255239027154843" Properties=species:S:1:pos:R:3 unique_starting_index=42 config_type=initial n_minim_iter=7 stress="-0.00016183651923278426 -0.00016933467240658906 -0.0001337670940471207 -0.00016933467240658906 -5.484545570603102e-05 -9.80243782502416e-05 -0.0001337670940471207 -9.80243782502416e-05 -8.192230070487723e-06" pbc="T T T"
Si       7.02187189       6.16365595       2.99211483
Si       7.99261811       4.03106161       4.01480869
Si       6.25151563       5.38898780       5.30353217
Si       9.13739310       7.49176778       4.04426454
Si       9.89631838       5.42900819       5.34447054
Si       8.15799753       7.00527826       6.35198909
Si       8.07560480       5.91779425       4.67480244
Si       2.20243155       1.61393940       1.27494258
8
Lattice="6.1670618252131435 0.9778982592462525 0.7724974841531912 2.7902452556851545 5.586006442402751 0.7724974841528651 2.790245255684882 2.044688630984183 5.255422793640215" Properties=species:S:1:pos:R:3 unique_starting_index=42 config_type=initial n_minim_iter=8 stress="2.7209499125859777e-05 0.000111219105212901 8.785830035463901e-05 0.000111219105212901 -4.306228982478971e-05 6.43824651476492e-05 8.785830035463901e-05 6.43824651476492e-05 -7.37041538309095e-05" pbc="T T T"
Si       7.02427714       6.16619969       2.99474713
Si       7.99576824       4.03397596       4.01568506
Si       6.25524356       5.39033251       5.30539741
Si       9.14142112       7.49397927       4.04646657
Si       9.89964054       5.43188536       5.34704924
Si       8.16174183       7.00831963       6.35363073
Si       8.07904674       5.92031650       4.67679491
Si       2.20447119       1.61543405       1.27612329
8
Lattice="6.168457393481591 0.9796163405798378 0.7738546943693264 2.7923039312108315 5.5868196270932 0.7738546943689684 2.7923039312105353 2.0461972261278127 5.2558996894403505" Properties=species:S:1:pos:R:3 unique_starting_index=42 config_type=initial n_minim_iter=9 stress="0.0003007873519337346 0.00044319226491081943 0.00035010279077626096 0.00044319226491081943 2.0764299843593127e-05 0.00025655493709239526 0.00035010279077626096 0.00025655493709239526 -0.00010133915620152098" pbc="T T T"
Si       7.02521311       6.16935706       2.99881841
Si       7.99906090       4.03792306       4.01468551
Si       6.25999919       5.38981171       5.30752650
Si       9.14606941       7.49593762       4.04794084
Si       9.90290818       5.43420912       5.35044599
Si       8.16494198       7.01218338       6.35519458
Si       8.08288686       5.92313054       4.67901788
Si       2.20810649       1.61809799       1.27822768
8
Lattice="6.166830394432826 0.9760315134505051 0.7710228354184031 2.788395507480924 5.586348102545144 0.7710228354180532 2.788395507480634 2.043333137550174 5.256096557763831" Properties=species:S:1:pos:R:3 unique_starting_index=42 config_type=initial n_minim_iter=10 stress="-5.4589061629739833e-05 -4.4533460959653425e-05 -3.5179515064267194e-05 -4.4533460959653425e-05 -2.6451396224103574e-05 -2.5779509603077623e-05 -3.5179515064267194e-05 -2.5779509603077623e-05 -1.4182027076512972e-05" pbc="T T T"
Si       7.01800775       6.16561875       2.99615438
Si       7.99332569       4.03400153       4.00971377
Si       6.25453214       5.38398246       5.30450648
Si       9.13935590       7.49118413       4.04259816
Si       9.89635312       5.42786107       5.34684814
Si       8.15691417       7.00767894       6.35180707
Si       8.07682000       5.91868475       4.67550589
Si       2.20663896       1.61702259       1.27737816
8
Lattice="6.166907018860039 0.9754943299527945 0.770598483604115 2.7879063596475557 5.586582989348005 0.7705984836037537 2.7879063596472577 2.042974690559999 5.256423302354735" Properties=species:S:1:pos:R:3 unique_starting_index=42 config_type=initial n_minim_iter=11 stress="0.0004408444772530024 6.687315802411164e-05 5.2826913072186434e-05 6.687315802411164e-05 0.00039859187655714746 3.8711503404694404e-05 5.2826913072186434e-05 3.8711503404694404e-05 0.0003801677199781146" pbc="T T T"
Si       7.01536973       6.16699373       2.99694555
Si       7.99384212       4.03409297       4.00668052
Si       6.25477491       5.38113924       5.30566095
Si       9.13946549       7.49015326       4.04294516
Si       9.89540315       5.42829473       5.34717156
Si       8.15704150       7.00775363       6.35072388
Si       8.07590491       5.91801417       4.67497617
Si       2.20563574       1.61628743       1.27679742
8
Lattice="6.1670439741524685 0.9755879210787529 0.7706724165604877 2.7880368598389564 5.586685389304182 0.770672416560132 2.788036859838663 2.043070320955624 5.256505804842549" Properties=species:S:1:pos:R:3 unique_starting_index=42 config_type=initial n_minim_iter=12 stress="3.949679318127413e-05 4.554132160161513e-06 3.5975681825116978e-06 4.554132160161513e-06 3.661934676863366e-05 2.6362940154644045e-06 3.5975681825116978e-06 2.6362940154644045e-06 3.536464243587492e-05" pbc="T T T"
Si       7.01556234       6.16718965       2.99725271
Si       7.99408696       4.03442065       4.00673067
Si       6.25516112       5.38121922       5.30578043
Si       9.13977559       7.49044421       4.04324272
Si       9.89577399       5.42863237       5.34730508
Si       8.15747518       7.00794184       6.35093803
Si       8.07621406       5.91824072       4.67515513
Si       2.20537889       1.61609921       1.27664873
