22
Lattice="5.226774565800731 -0.9784889155690187 0.7179598168981627 1.530899801006779 5.096648331438524 1.1881679995792562 2.542173599402062 1.7385576751923897 17.46184539558076" Properties=species:S:1:pos:R:3 unique_starting_index=40 config_type=initial n_minim_iter=1 energy=-3601.3725492188883 free_energy=-3601.3725492188883 pbc="T T T"
Si       8.55258429       1.98788474      16.02772623
Si       2.77987811       1.01897595       5.19813001
Si       5.26075911       1.10689373       8.13439400
Si       5.28410493       3.41891165      15.37470450
Si       4.86097492       2.86885113      17.26714703
Si       4.80073996       6.17334677       9.64096509
Si       5.20449711       1.45140165       2.97986418
Si       5.12874282       3.42701728      11.84794342
Si       3.75425178       1.68270154       1.12502221
Si       5.84418925       4.60653295      17.02184835
Si       4.31105681       1.60142231      12.00506542
Si       4.46448744       2.76112733      13.64110411
Si       1.82486198       2.08180995       1.52615360
Si       1.22298379       1.18661072       8.75207429
Si       4.67235672       1.54218606      15.75183049
Si       6.01000211       4.83956275      10.61321056
Si       2.84343364       2.98562907       5.62241942
Si       3.52856058       6.80939030       8.13909723
Si       4.41857939       2.08511237       4.71915820
Si       4.93365061       1.58226007      10.08352862
Si       6.76920326       2.84613120      16.60800407
Si       4.00209497       1.68789668       6.65021992
22
Lattice="5.224041458374624 -0.9768414888457579 0.7182723128745362 1.5318441202060669 5.0969125516400995 1.1880375350776513 2.5442029213871775 1.7404571175721517 17.45157273714997" Properties=species:S:1:pos:R:3 unique_starting_index=40 config_type=initial n_minim_iter=2 stress="-0.008346049479978399 0.0006805442255585473 5.840483619338647e-05 0.0006805442255585473 -0.004011352008492785 0.0008325245207174995 5.840483619338647e-05 0.0008325245207174995 -0.006616031771255528" pbc="T T T"
Si       8.55137659       1.99142049      16.01952466
Si       2.77952588       1.02013537       5.19533617
Si       5.25971638       1.10899358       8.13035248
Si       5.28515341       3.42153551      15.36616156
Si       4.86232207       2.87155645      17.25743875
Si       4.80191784       6.17502422       9.63616148
Si       5.20333938       1.45301991       2.97849770
Si       5.12891352       3.42902102      11.84164074
Si       3.75308430       1.68378991       1.12494199
Si       5.84534956       4.60922280      17.01253279
Si       4.31138051       1.60378231      11.99861562
Si       4.46546837       2.76329202      13.63374918
Si       1.82438046       2.08227888       1.52571338
Si       1.22448605       1.18740998       8.74698987
Si       4.67278789       1.54457602      15.74287513
Si       6.00971100       4.84176165      10.60760211
Si       2.84404332       2.98682962       5.61935628
Si       3.52995180       6.81049163       8.13562768
Si       4.41767241       2.08679273       4.71720218
Si       4.93342213       1.58450125      10.07793773
Si       6.76948899       2.84890545      16.59903423
Si       4.00155894       1.68935160       6.64718798
22
Lattice="5.227259690449742 -0.9737205128266948 0.7207112937963708 1.537408448423991 5.102779109018593 1.1885780936149704 2.5559259904746727 1.74406640853534 17.44941972121114" Properties=species:S:1:pos:R:3 unique_starting_index=40 config_type=initial n_minim_iter=3 stress="0.0031848604258694875 0.005982625836304304 0.0036501976901203723 0.005982625836304304 0.011886641302726307 0.0006199259295325422 0.0036501976901203723 0.0006199259295325422 0.00011940411822531459" pbc="T T T"
Si       8.56591376       1.99986996      16.02161257
Si       2.78422995       1.02329030       5.19522584
Si       5.26791881       1.11425865       8.13162141
Si       5.29996510       3.42954963      15.36515294
Si       4.87699012       2.87883904      17.25648841
Si       4.81549491       6.18395888       9.63657554
Si       5.21169209       1.45812850       2.97840200
Si       5.14002038       3.43543165      11.84166805
Si       3.75764742       1.68810174       1.12625597
Si       5.86116318       4.61814857      17.01182802
Si       4.32176839       1.61000371      11.99926772
Si       4.47833125       2.76941175      13.63416812
Si       1.82595486       2.08530267       1.52665680
Si       1.23229286       1.18882208       8.74631641
Si       4.68405489       1.54937486      15.74183157
Si       6.02069190       4.85049212      10.60696824
Si       2.85210257       2.99242603       5.61849139
Si       3.54080321       6.81879080       8.13814280
Si       4.42423205       2.09285859       4.71893849
Si       4.94362003       1.59048642      10.07724774
Si       6.78531482       2.85553903      16.59929716
Si       4.00836228       1.69349124       6.64938562
22
Lattice="5.229472032786699 -0.9758375175326925 0.7192064955521198 1.5342910072541995 5.094728384930996 1.1874999145499525 2.5496046077020647 1.7372942573945704 17.452318263763072" Properties=species:S:1:pos:R:3 unique_starting_index=40 config_type=initial n_minim_iter=4 stress="0.003560184852058588 -0.0016999528880074439 0.0026053738226818517 -0.0016999528880074439 -0.006727092555091954 -0.0005867149185448527 0.0026053738226818517 -0.0005867149185448527 0.0010231794742777663" pbc="T T T"
Si       8.56156504       1.98926004      16.02294475
Si       2.78239335       1.01956074       5.19499616
Si       5.26609793       1.10817089       8.13180342
Si       5.29483181       3.41943961      15.36582992
Si       4.87143306       2.86993131      17.25828195
Si       4.81046822       6.17058231       9.63615412
Si       5.21319083       1.45224807       2.97529862
Si       5.13464398       3.42497746      11.84185027
Si       3.75752302       1.68313517       1.12464426
Si       5.85410667       4.60552990      17.01273465
Si       4.31830255       1.60446650      12.00107202
Si       4.47422791       2.76075057      13.63619467
Si       1.82324852       2.08074670       1.52623901
Si       1.23014605       1.18443126       8.74818381
Si       4.67849057       1.54177851      15.74338874
Si       6.01427142       4.83826186      10.60523507
Si       2.85009140       2.98614503       5.61736500
Si       3.53426178       6.80551146       8.13957426
Si       4.42241359       2.08704244       4.71850195
Si       4.94132610       1.58405137      10.07654862
Si       6.78066690       2.84364045      16.60046807
Si       4.00571184       1.68713684       6.65041845
22
Lattice="5.2266555017656176 -0.9775496186641189 0.7146590438697663 1.5313156746629628 5.096819278558787 1.1863248741756776 2.532434531917939 1.7375186143000876 17.452903325139815" Properties=species:S:1:pos:R:3 unique_starting_index=40 config_type=initial n_minim_iter=5 stress="-0.00037729000393166626 -0.00032769096383491813 -0.002535592331063947 -0.00032769096383491813 -0.003403766130384519 -6.0112229355342804e-06 -0.002535592331063947 -6.0112229355342804e-06 0.0031009375152054285" pbc="T T T"
Si       8.54293854       1.98838013      16.01849928
Si       2.77612232       1.01969221       5.19334953
Si       5.25637601       1.10729675       8.12878754
Si       5.27794443       3.41975842      15.36349237
Si       4.85341208       2.87046814      17.25662225
Si       4.79839630       6.17215931       9.63354043
Si       5.20824337       1.45179158       2.97040344
Si       5.12069424       3.42577905      11.83896862
Si       3.75419881       1.68301116       1.12137586
Si       5.83507807       4.60654675      17.01006520
Si       4.30504791       1.60419402      11.99953822
Si       4.45987203       2.76113133      13.63508136
Si       1.82032492       2.08095185       1.52476140
Si       1.22170617       1.18437659       8.74878380
Si       4.66158113       1.54155752      15.74167757
Si       6.00009496       4.83913089      10.60085279
Si       2.84350254       2.98704180       5.61534315
Si       3.52363157       6.80778649       8.13851136
Si       4.41550382       2.08721071       4.71539438
Si       4.92996721       1.58382174      10.07326747
Si       6.76218093       2.84278166      16.59715833
Si       3.99689238       1.68674483       6.64830352
22
Lattice="5.228640642015149 -0.9826977987844854 0.7149408618225811 1.527433268695022 5.098333338250113 1.1848058276834736 2.533770768319459 1.7336571366526832 17.43932959205603" Properties=species:S:1:pos:R:3 unique_starting_index=40 config_type=initial n_minim_iter=6 stress="0.0012789373369128268 -0.0037038092322628025 -0.0006351203565037837 -0.0037038092322628025 -0.0008334104100065056 -0.002143802572632409 -0.0006351203565037837 -0.002143802572632409 -0.0023319121099227495" pbc="T T T"
Si       8.54531746       1.98030143      16.00780596
Si       2.77616513       1.01779672       5.18952973
Si       5.25820722       1.10181821       8.12370634
Si       5.27813926       3.41457216      15.35171315
Si       4.85458714       2.86570092      17.24277745
Si       4.79557387       6.16982089       9.62594441
Si       5.20871600       1.44811641       2.96767692
Si       5.12012931       3.42265130      11.82947436
Si       3.75330255       1.68066027       1.12073208
Si       5.83461395       4.60206883      16.99633272
Si       4.30575817       1.59919928      11.99088461
Si       4.46115603       2.75703231      13.62552469
Si       1.81936447       2.07951425       1.52300705
Si       1.22216596       1.18198793       8.74251224
Si       4.66288032       1.53646309      15.72961135
Si       5.99746116       4.83520160      10.59136870
Si       2.84298759       2.98544229       5.61036102
Si       3.51960314       6.80744449       8.13245311
Si       4.41502985       2.08415399       4.71193180
Si       4.93138026       1.57912720      10.06506893
Si       6.76345471       2.83501358      16.58476744
Si       3.99591286       1.68299326       6.64372121
22
Lattice="5.229336426866576 -0.9816955480011298 0.7170779277323502 1.5282567803044362 5.097230744494818 1.1894430018249338 2.542204148962357 1.7446190167390183 17.44974116345989" Properties=species:S:1:pos:R:3 unique_starting_index=40 config_type=initial n_minim_iter=7 stress="-0.00025954781400337084 -0.0017976423683670668 0.0012661019908849526 -0.0017976423683670668 -0.0028819468566689947 0.0017499069584165524 0.0012661019908849526 0.0017499069584165524 0.001542668678013059" pbc="T T T"
Si       8.55412501       1.99095081      16.02223994
Si       2.77795573       1.02187348       5.19382013
Si       5.26356581       1.10628873       8.13154480
Si       5.28624156       3.42324004      15.36398060
Si       4.86335132       2.87642120      17.25403263
Si       4.80082304       6.17343183       9.63730223
Si       5.21066463       1.45041279       2.97140528
Si       5.12569053       3.43076496      11.83910084
Si       3.75364064       1.68114493       1.12418377
Si       5.84346978       4.61241921      17.00927594
Si       4.31129498       1.60623052      11.99993377
Si       4.46926429       2.76536525      13.63682395
Si       1.82097350       2.07839251       1.52517646
Si       1.22606883       1.18629587       8.74890171
Si       4.66976625       1.54738101      15.73972933
Si       6.00159272       4.84064133      10.60053040
Si       2.84699597       2.98773377       5.61570009
Si       3.52399807       6.81044368       8.14330139
Si       4.41752754       2.08693034       4.71730124
Si       4.93710051       1.58543745      10.07232643
Si       6.77185327       2.84360842      16.59765433
Si       3.99781235       1.68662435       6.65036354
22
Lattice="5.230683338396564 -0.9801686520760314 0.7163162459319217 1.5301324493169328 5.095969356170562 1.1865195494094976 2.5402827347662775 1.7371441762643285 17.443483236662857" Properties=species:S:1:pos:R:3 unique_starting_index=40 config_type=initial n_minim_iter=8 stress="0.0024207009190811966 0.0010403859236893774 -0.0007007025656061127 0.0010403859236893774 -0.004329555246321141 -0.001250042333018804 -0.0007007025656061127 -0.001250042333018804 -0.0009474329410571297" pbc="T T T"
Si       8.55487074       1.98651340      16.01634447
Si       2.77739142       1.02076414       5.19134872
Si       5.26475937       1.10368479       8.12784137
Si       5.28695874       3.41731148      15.35740735
Si       4.86249430       2.86931168      17.24641579
Si       4.80248761       6.16882657       9.63135502
Si       5.21225077       1.45099375       2.96840311
Si       5.12564120       3.42677043      11.83298564
Si       3.75489545       1.68169376       1.12226359
Si       5.84411961       4.60591654      17.00070190
Si       4.31089826       1.60205144      11.99524203
Si       4.46990939       2.75992948      13.63116553
Si       1.82247672       2.07671782       1.52288964
Si       1.22463799       1.18162060       8.74645626
Si       4.66826881       1.54166299      15.73350588
Si       6.00242722       4.83666842      10.59313289
Si       2.84849888       2.98511385       5.61193747
Si       3.52588539       6.80645772       8.13757830
Si       4.41897299       2.08582716       4.71378829
Si       4.93765502       1.58192632      10.06758915
Si       6.77166898       2.83668356      16.59039613
Si       3.99776531       1.68426427       6.64733172
22
Lattice="5.227016571219211 -0.9847558429930103 0.7177362834501705 1.525414757013752 5.098831260125772 1.1867328573073381 2.54075037005153 1.7353014969051215 17.448013511603424" Properties=species:S:1:pos:R:3 unique_starting_index=40 config_type=initial n_minim_iter=9 stress="-0.0034612359843054228 4.954280681606774e-05 0.0017236893194646737 4.954280681606774e-05 -0.0009853325969402817 -0.002747138242335515 0.0017236893194646737 -0.002747138242335515 0.00241723786057873" pbc="T T T"
Si       8.55018537       1.98277804      16.02472195
Si       2.77332622       1.02052094       5.19295400
Si       5.26213390       1.09950895       8.13033362
Si       5.28543426       3.41575987      15.36282382
Si       4.85981593       2.86631424      17.25038926
Si       4.79577053       6.16904214       9.63536605
Si       5.20731439       1.44982906       2.96900280
Si       5.11952447       3.42554339      11.83637275
Si       3.75005109       1.68112477       1.12267207
Si       5.84080522       4.60462592      17.00448907
Si       4.30889322       1.60062237      11.99930483
Si       4.46912319       2.75764179      13.63548853
Si       1.82056747       2.07447139       1.52251236
Si       1.22308970       1.17883616       8.75068136
Si       4.66569094       1.53806012      15.73774336
Si       5.99498372       4.83537747      10.59435442
Si       2.84654781       2.98452243       5.61327222
Si       3.52008864       6.80933953       8.14033890
Si       4.41521426       2.08396093       4.71480769
Si       4.93507461       1.57837042      10.07110839
Si       6.76673899       2.83072964      16.59579015
Si       3.99368606       1.68161927       6.65065160
22
Lattice="5.228831751882254 -0.9869472773412709 0.7152667242891977 1.523304508413486 5.100889793471176 1.189128094568327 2.5361376962724207 1.7468017971590646 17.438324712267654" Properties=species:S:1:pos:R:3 unique_starting_index=40 config_type=initial n_minim_iter=10 stress="0.0002863042004974921 -0.00020939574194325764 -0.00015087646595752667 -0.00020939574194325764 -0.0003374855511499224 0.0011728757030750828 -0.00015087646595752667 0.0011728757030750828 -0.0008556736311103153" pbc="T T T"
Si       8.54811733       1.99194639      16.01614470
Si       2.77108796       1.02397642       5.18976289
Si       5.26151658       1.10280169       8.12460423
Si       5.28266323       3.42567660      15.35520520
Si       4.85516592       2.87688699      17.24047754
Si       4.79165512       6.17567445       9.63335511
Si       5.20747546       1.45111969       2.96622978
Si       5.11536915       3.43326628      11.83030630
Si       3.75002283       1.68148163       1.12161762
Si       5.83677552       4.61545048      16.99562631
Si       4.30636448       1.60818580      11.99240486
Si       4.46679975       2.76594462      13.62838829
Si       1.81989472       2.07412435       1.52220133
Si       1.21958747       1.18359748       8.74693915
Si       4.66170376       1.54737854      15.72803450
Si       5.99125422       4.84174673      10.58872349
Si       2.84537603       2.98800743       5.61117825
Si       3.51610171       6.81632663       8.13971439
Si       4.41469877       2.08592398       4.71188847
Si       4.93347169       1.58330919      10.06523333
Si       6.76280249       2.83904127      16.58640723
Si       3.99219156       1.68471553       6.64729860
22
Lattice="5.227464973376069 -0.9973575957081334 0.7147978258897296 1.51327301599132 5.103728787173979 1.1884358699890365 2.531690005220164 1.7445587918894903 17.42619445704892" Properties=species:S:1:pos:R:3 unique_starting_index=40 config_type=initial n_minim_iter=11 stress="-0.0022332470499608153 0.0013345975834571167 0.0005925516745212093 0.0013345975834571167 0.0025032705319539 -1.2152528961540573e-05 0.0005925516745212093 -1.2152528961540573e-05 -0.0018398999543896993" pbc="T T T"
Si       8.54485548       1.98546629      16.01497118
Si       2.76075848       1.02433473       5.18546395
Si       5.25790852       1.09317674       8.11668975
Si       5.27856944       3.42262792      15.34425959
Si       4.84464002       2.87084351      17.22678599
Si       4.77524264       6.17420879       9.63053263
Si       5.20361184       1.44923771       2.96034958
Si       5.10167690       3.43451150      11.82084428
Si       3.74659176       1.67965235       1.11773209
Si       5.82881190       4.60844964      16.98025382
Si       4.30004834       1.60314978      11.98482253
Si       4.46514347       2.76025258      13.62044692
Si       1.81165973       2.06617619       1.52121314
Si       1.21093695       1.17711265       8.74387553
Si       4.65290042       1.54375992      15.71442707
Si       5.97688100       4.83541472      10.57691756
Si       2.84283787       2.98540852       5.60719698
Si       3.50146807       6.81982218       8.13709498
Si       4.40980519       2.07887174       4.70724616
Si       4.92875717       1.57263248      10.06006674
Si       6.75393061       2.82388547      16.57722981
Si       3.98827605       1.67794535       6.64301589
22
Lattice="5.224328925597463 -1.0071377604254579 0.7133373706488784 1.502573674730117 5.105769713471296 1.1905777269673674 2.523176202014826 1.7500199252735438 17.425310544918087" Properties=species:S:1:pos:R:3 unique_starting_index=40 config_type=initial n_minim_iter=12 stress="-0.0012956652160691245 0.0018751883227641037 0.000719826182510359 0.0018751883227641037 0.004573049416179664 0.0002677302843612961 0.000719826182510359 0.0002677302843612961 -0.0016908935653123806" pbc="T T T"
Si       8.53333107       1.98903186      16.02542890
Si       2.74797338       1.02719397       5.18512293
Si       5.24950869       1.08670597       8.11702649
Si       5.27568814       3.42619435      15.34284170
Si       4.82844150       2.87297895      17.22558176
Si       4.75588362       6.17735945       9.63509139
Si       5.19574192       1.45103527       2.95654885
Si       5.08214014       3.44013785      11.81946429
Si       3.74173486       1.67697824       1.11643186
Si       5.81559501       4.60947038      16.97247406
Si       4.28973050       1.60457399      11.98476051
Si       4.45919618       2.75923798      13.62191856
Si       1.80494160       2.05561854       1.52221375
Si       1.20090106       1.17593836       8.74142082
Si       4.64127078       1.54660305      15.70842247
Si       5.95610294       4.83124569      10.57329116
Si       2.84066270       2.98524764       5.60897537
Si       3.48524000       6.82510860       8.14452109
Si       4.40198126       2.07184241       4.70690633
Si       4.92046005       1.56336820      10.05992373
Si       6.74055876       2.81423433      16.57958192
Si       3.98137824       1.67398302       6.63887347
22
Lattice="5.222279134919538 -1.022316353666298 0.7103385025061207 1.4875559340156705 5.11188289177798 1.1911555966282117 2.5079090682479177 1.751927428033238 17.422105325673982" Properties=species:S:1:pos:R:3 unique_starting_index=40 config_type=initial n_minim_iter=13 stress="0.003073087847237863 0.0015852570471076434 -6.007032343779348e-05 0.0015852570471076434 0.007857482510881308 4.558996593541941e-05 -6.007032343779348e-05 4.558996593541941e-05 -0.001596648281525794" pbc="T T T"
Si       8.52258026       1.98975970      16.03927443
Si       2.72735745       1.02821666       5.18369758
Si       5.23282971       1.07836911       8.11298436
Si       5.26955630       3.42363986      15.33795114
Si       4.80529585       2.87112617      17.21654918
Si       4.72996979       6.18405636       9.63581542
Si       5.18515183       1.45561621       2.94966898
Si       5.05134727       3.44446658      11.81578656
Si       3.73394321       1.67500066       1.11056677
Si       5.79551685       4.60704782      16.95715500
Si       4.27329322       1.60351284      11.98255913
Si       4.44894974       2.75334574      13.62223813
Si       1.79786135       2.03902878       1.52422251
Si       1.18921861       1.17080876       8.73693438
Si       4.62370579       1.54983741      15.69635096
Si       5.92182153       4.82190194      10.56449159
Si       2.83843492       2.98731924       5.61082113
Si       3.46400641       6.83471740       8.15010053
Si       4.39280471       2.06044333       4.70263348
Si       4.90805314       1.54512488      10.05770017
Si       6.71921078       2.79461118      16.58226636
Si       3.97260211       1.66489493       6.63389606
22
Lattice="5.220744621349121 -1.0354949341560176 0.7098466014829901 1.475161307157485 5.115496782035559 1.1886761182191197 2.4969838376239175 1.7388672973827535 17.434532626620847" Properties=species:S:1:pos:R:3 unique_starting_index=40 config_type=initial n_minim_iter=14 stress="0.00896858031685275 0.0010750552316322502 0.00021199846414205216 0.0010750552316322502 0.009948699478012529 -0.0014059987930177314 0.00021199846414205216 -0.0014059987930177314 0.0012676921920223632" pbc="T T T"
Si       8.52102042       1.98876772      16.07748159
Si       2.70421708       1.02854608       5.18877475
Si       5.22499221       1.06349788       8.11978788
Si       5.27539370       3.40705107      15.34423046
Si       4.78777715       2.85821639      17.21643424
Si       4.70953829       6.18432759       9.64134283
Si       5.18110926       1.46466360       2.94082953
Si       5.01834454       3.43951035      11.82486613
Si       3.72524946       1.67733028       1.09665438
Si       5.78323627       4.59193488      16.95490393
Si       4.25708461       1.59229569      11.99124910
Si       4.44415784       2.73382309      13.63526726
Si       1.78827515       2.01370114       1.53189560
Si       1.17474388       1.15779493       8.73702396
Si       4.61399115       1.53742043      15.69601213
Si       5.88679130       4.80375726      10.55867981
Si       2.84443044       2.98504976       5.61861396
Si       3.44818088       6.83984219       8.15472706
Si       4.38454703       2.04336519       4.70102944
Si       4.89826111       1.51246764      10.06582202
Si       6.70398514       2.75606494      16.60554884
Si       3.96429189       1.64820518       6.63443219
22
Lattice="5.219438995368385 -1.0671833625737217 0.7059786426723302 1.4446165292016429 5.121733225732515 1.1854079914573907 2.4699614194933774 1.7228151766833717 17.433948023607133" Properties=species:S:1:pos:R:3 unique_starting_index=40 config_type=initial n_minim_iter=15 stress="0.02838842108321289 -0.004595505507348033 -0.0002456892698626918 -0.004595505507348033 0.01286355846239122 -0.0034106954987766017 -0.0002456892698626918 -0.0034106954987766017 0.009417363474944561" pbc="T T T"
Si       8.52043508       1.98109964      16.13130362
Si       2.66177641       1.03134585       5.19073804
Si       5.20656965       1.03569772       8.11500975
Si       5.28459378       3.37698876      15.33467611
Si       4.73872123       2.84603943      17.19604442
Si       4.65969931       6.18655758       9.63881941
Si       5.17225094       1.47717587       2.91845731
Si       4.94688994       3.43042134      11.83004635
Si       3.70794085       1.67620443       1.07156597
Si       5.74674999       4.57935044      16.92590929
Si       4.21946864       1.57104281      11.98986467
Si       4.42749782       2.69904092      13.64038291
Si       1.76869936       1.95865103       1.54281864
Si       1.14459631       1.13580153       8.72735399
Si       4.58784313       1.51809840      15.67130536
Si       5.81442566       4.77130182      10.53095589
Si       2.85164051       2.98228983       5.62684070
Si       3.40145737       6.85321007       8.15523857
Si       4.36018474       2.00616135       4.69459525
Si       4.87469521       1.45120813      10.07080027
Si       6.67067989       2.68441871      16.62343578
Si       3.94802712       1.61272485       6.62874833
22
Lattice="5.212228753637949 -1.111266585127948 0.7019052055862133 1.400824856393974 5.1286626873252965 1.1786037597961765 2.4308694025545794 1.6898332230283533 17.442238242554808" Properties=species:S:1:pos:R:3 unique_starting_index=40 config_type=initial n_minim_iter=16 stress="0.06527687848524065 -0.013411786486894069 -0.0031240758220619767 -0.013411786486894069 0.023255436968047494 -0.00976242854746141 -0.0031240758220619767 -0.00976242854746141 0.026008260123136884" pbc="T T T"
Si       8.51390846       1.96033824      16.22411304
Si       2.59849808       1.03109815       5.19406653
Si       5.17400463       0.99334475       8.11498357
Si       5.30402540       3.32496661      15.32904601
Si       4.66876665       2.82776485      17.16616731
Si       4.58220598       6.18303664       9.63734208
Si       5.15506571       1.49253305       2.89002508
Si       4.84224335       3.41260187      11.84013715
Si       3.68283138       1.67612707       1.03367730
Si       5.68424148       4.54903301      16.89306292
Si       4.16054039       1.53192415      11.99529836
Si       4.40064468       2.63878453      13.65481150
Si       1.73799866       1.87482842       1.55932023
Si       1.10297801       1.09756082       8.72034047
Si       4.55085361       1.48224893      15.64908722
Si       5.71099041       4.71800315      10.49231720
Si       2.86069398       2.97546329       5.64165351
Si       3.33149328       6.86663116       8.15872673
Si       4.32405989       1.95017493       4.68372300
Si       4.83865182       1.36097997      10.08300651
Si       6.61236840       2.57449306      16.65584533
Si       3.92053504       1.56025455       6.62149925
22
Lattice="5.208781738816802 -1.1225025511362547 0.7006440017493589 1.3895220903166825 5.1330954796654655 1.1777306255174942 2.420367115956353 1.6856993114175138 17.442973473613698" Properties=species:S:1:pos:R:3 unique_starting_index=40 config_type=initial n_minim_iter=17 stress="0.0736373796876014 -0.015223945708299779 -0.004149174971726631 -0.015223945708299779 0.025922989996593496 -0.010432349952315477 -0.004149174971726631 -0.010432349952315477 0.030880175253641822" pbc="T T T"
Si       8.51512285       1.96242500      16.25379983
Si       2.57965231       1.03387413       5.19469491
Si       5.16405506       0.98492602       8.11569795
Si       5.30988317       3.31537223      15.32294525
Si       4.64677567       2.83049799      17.15476317
Si       4.56062032       6.18780800       9.63728240
Si       5.14990266       1.49987919       2.88229203
Si       4.81089321       3.41103088      11.84309707
Si       3.67539963       1.67897398       1.02241096
Si       5.66668162       4.55013223      16.88293036
Si       4.14320789       1.52676517      11.99610901
Si       4.39384100       2.62628694      13.65850955
Si       1.72925722       1.84956650       1.56442205
Si       1.09100938       1.08952884       8.71716043
Si       4.54234089       1.47759862      15.64200300
Si       5.68132436       4.70803119      10.48011496
Si       2.86476479       2.97678461       5.64680971
Si       3.31304942       6.87639802       8.16028220
Si       4.31373518       1.93672130       4.67993905
Si       4.82818826       1.33893902      10.08613829
Si       6.59702632       2.54808519      16.66483275
Si       3.91200676       1.54823397       6.61817229
22
Lattice="5.2030123113504825 -1.116461229377773 0.7036957804776028 1.3937696520021152 5.130441297407159 1.1788253492107095 2.4286358470964053 1.6861258969489528 17.45178260736694" Properties=species:S:1:pos:R:3 unique_starting_index=40 config_type=initial n_minim_iter=18 stress="0.06049604096192421 -0.011516388843453811 -0.009661970157335284 -0.011516388843453811 0.014891329204030369 -0.0033857600039982664 -0.009661970157335284 -0.0033857600039982664 0.0248206942701069" pbc="T T T"
Si       8.53802766       1.98081970      16.29658298
Si       2.57555568       1.04110794       5.19802601
Si       5.16106663       0.99224262       8.12264639
Si       5.33590289       3.31044589      15.32449218
Si       4.64736213       2.85087742      17.15465226
Si       4.56468703       6.18990013       9.64179797
Si       5.15346156       1.50880386       2.88310125
Si       4.80220944       3.41164188      11.85511909
Si       3.67166208       1.68861312       1.01457449
Si       5.66964191       4.56312369      16.88823360
Si       4.13793494       1.52636380      12.00434247
Si       4.40049712       2.62170711      13.66915864
Si       1.72611370       1.82694952       1.56920888
Si       1.09301066       1.08687744       8.71980774
Si       4.56063608       1.47913781      15.65004737
Si       5.67719617       4.70782253      10.47886073
Si       2.87839637       2.98011055       5.65633872
Si       3.31825380       6.88129726       8.16348631
Si       4.30998283       1.93339869       4.68145162