22
Lattice="5.064558004874942 -0.7489662046184667 -1.990586159720229 -1.6850756054960858 10.340165794569884 -0.008806934929918664 -5.195909672557866 -2.7921517652557917 11.485485435085335" Properties=species:S:1:pos:R:3 unique_starting_index=18 config_type=initial n_minim_iter=1 energy=-3597.154763921323 free_energy=-3597.154763921323 pbc="T T T"
Si       1.49386228       8.28014840       0.69573128
Si      -2.20972731      -0.76327473       5.81420067
Si      -4.24124139      -0.97145889      10.77167920
Si      -0.75329706      -0.53381640       9.26927906
Si      -5.12179740       2.20445588      11.09451851
Si       3.92568859       1.92758786      -0.01406357
Si       2.58288512       0.11908321      -0.05117253
Si      -1.80039031       3.60829917       8.86600290
Si      -2.46601544      -1.36634488       9.91665006
Si      -3.84259286       2.91857991       6.77504915
Si      -0.56173265       2.34087610       3.88173430
Si      -2.88407573       4.68008946       6.80407051
Si      -3.95645201      -1.03916764       6.77397681
Si       0.10191525       6.87833903       0.29937271
Si       0.16725524       3.88742669       4.98188767
Si       1.63940008       6.70364736      -0.98197205
Si      -0.81805561      -1.33044207       4.44339019
Si       0.99474618      -2.31517634       6.72326380
Si       0.99528298       3.41840099       3.21989118
Si      -3.73295266       3.97365160       8.48213212
Si      -0.84507424       4.22719454       3.26413096
Si      -2.30702338      -0.94282781       7.92240839
22
Lattice="5.068126762394027 -0.7431869498537407 -1.984922858684133 -1.6786289355832047 10.337359118318899 -0.018323383344571308 -5.194362313775024 -2.804957218181337 11.478985478472225" Properties=species:S:1:pos:R:3 unique_starting_index=18 config_type=initial n_minim_iter=2 stress="0.009932601296302393 0.0004280904886855707 0.004608161483671142 0.0004280904886855707 0.0016567678493980568 -0.002238660307044723 0.004608161483671142 -0.002238660307044723 0.001381105867776383" pbc="T T T"
Si       1.50292718       8.27975666       0.69032412
Si      -2.20829490      -0.76955259       5.81097923
Si      -4.23716690      -0.98310856      10.76468979
Si      -0.74650201      -0.54139591       9.26573881
Si      -5.11656615       2.19113996      11.08446684
Si       3.93204003       1.93048617      -0.01183136
Si       2.58587853       0.12100559      -0.04887922
Si      -1.79172947       3.59928903       8.85837429
Si      -2.46196269      -1.37559639       9.91194872
Si      -3.83879910       2.90963520       6.76713059
Si      -0.55746351       2.33698779       3.87765250
Si      -2.87774564       4.67168510       6.79535026
Si      -3.95549359      -1.04765892       6.76835319
Si       0.10800022       6.87727718       0.29377196
Si       0.17426489       3.88284548       4.97654600
Si       1.64576749       6.70480184      -0.98512043
Si      -0.81682738      -1.33422949       4.44193371
Si       0.99984742      -2.31916824       6.72371511
Si       1.00181443       3.41652289       3.21730403
Si      -3.72689115       3.96360428       8.47238068
Si      -0.83912802       4.22323686       3.25925507
Si      -2.30338829      -0.95080446       7.91823855
22
Lattice="5.064596965048653 -0.7399222056036576 -1.9842375405519403 -1.6722718111055652 10.332960019962451 -0.02043790372744325 -5.193294954891 -2.80914222466504 11.474687282822961" Properties=species:S:1:pos:R:3 unique_starting_index=18 config_type=initial n_minim_iter=3 stress="-0.008094163855898598 0.003647110769288469 0.005695932811359317 0.003647110769288469 -0.003164186304539662 -0.0033176585729238297 0.005695932811359317 -0.0033176585729238297 -0.008791223087374745" pbc="T T T"
Si       1.50603829       8.27758551       0.68811641
Si      -2.20817168      -0.77173225       5.80892140
Si      -4.23513802      -0.98716827      10.76010883
Si      -0.74700463      -0.54342935       9.26180622
Si      -5.11315678       2.18498637      11.07938842
Si       3.93071162       1.93173838      -0.01214949
Si       2.58418476       0.12210257      -0.04897972
Si      -1.78936652       3.59509637       8.85360258
Si      -2.46221489      -1.37815362       9.90778895
Si      -3.83540151       2.90508967       6.76361701
Si      -0.55629552       2.33503222       3.87496658
Si      -2.87407614       4.66692839       6.79128062
Si      -3.95323553      -1.05092246       6.76514445
Si       0.11142326       6.87521502       0.29196281
Si       0.17488220       3.88019807       4.97288643
Si       1.64808657       6.70352397      -0.98592718
Si      -0.81788962      -1.33498216       4.44001558
Si       0.99768695      -2.31913995       6.72138777
Si       1.00244124       3.41534646       3.21536692
Si      -3.72295428       3.95874852       8.46758379
Si      -0.83580047       4.22050381       3.25736334
Si      -2.30277230      -0.95345976       7.91488728
22
Lattice="5.06863504268467 -0.7377154257363443 -1.9910046506750234 -1.6684156245761264 10.331193809779018 -0.01803704758308314 -5.209045278368904 -2.8104918010434714 11.487803548012932" Properties=species:S:1:pos:R:3 unique_starting_index=18 config_type=initial n_minim_iter=4 stress="-0.0009902486660853815 0.005829139094295231 -0.0024961515260206036 0.005829139094295231 0.002849897973584761 -0.0028170633413988097 -0.0024961515260206036 -0.0028170633413988097 -0.0014957106208809494" pbc="T T T"
Si       1.50943664       8.27761387       0.68758252
Si      -2.21678689      -0.77239397       5.81585970
Si      -4.24763427      -0.98798023      10.77163680
Si      -0.75752046      -0.54267850       9.26936651
Si      -5.12672793       2.18200796      11.09275966
Si       3.93394088       1.93305420      -0.01530737
Si       2.58526804       0.12280098      -0.05154183
Si      -1.79778990       3.59416766       8.86165935
Si      -2.47496410      -1.37759607       9.91678028
Si      -3.84315453       2.90310136       6.77218055
Si      -0.55973129       2.33464154       3.87732038
Si      -2.88066850       4.66502676       6.79884200
Si      -3.96091497      -1.05255191       6.77234136
Si       0.11410775       6.87561090       0.29226292
Si       0.16907200       3.87946234       4.97535921
Si       1.65277610       6.70344381      -0.98720923
Si      -0.82498821      -1.33450980       4.44323311
Si       0.99045409      -2.31755301       6.72562072
Si       1.00075461       3.41593087       3.21746047
Si      -3.73153736       3.95795825       8.47687888
Si      -0.83573971       4.21977018       3.26189144
Si      -2.31207102      -0.95413367       7.92244635
22
Lattice="5.069776009365023 -0.7418604913724398 -1.9904640863754786 -1.6768864022367624 10.323071551610285 -0.014032903493717126 -5.20475757776124 -2.7988950997911353 11.488394245981292" Properties=species:S:1:pos:R:3 unique_starting_index=18 config_type=initial n_minim_iter=5 stress="-0.0008499806367214494 -0.00013137719175568654 0.0018229455572865167 -0.00013137719175568654 -0.0029547197230609585 0.0002796980666796938 0.0018229455572865167 0.0002796980666796938 -0.0027690794848006977" pbc="T T T"
Si       1.50325118       8.26929328       0.69181081
Si      -2.21584870      -0.76751618       5.81706281
Si      -4.24384796      -0.97874098      10.77301622
Si      -0.75498356      -0.53732100       9.27212369
Si      -5.12688125       2.18808400      11.09579414
Si       3.93373165       1.92802016      -0.01287457
Si       2.58560106       0.12047674      -0.05083199
Si      -1.79839624       3.59586424       8.86513806
Si      -2.47148752      -1.36937441       9.91826634
Si      -3.84442562       2.90607810       6.77406856
Si      -0.56042265       2.33438283       3.87855222
Si      -2.88340076       4.66532335       6.80177916
Si      -3.95796061      -1.04594815       6.77157086
Si       0.10899001       6.86999379       0.29501373
Si       0.16561973       3.87732796       4.97805252
Si       1.64741340       6.69555628      -0.98344776
Si      -0.82392962      -1.33037384       4.44328238
Si       0.99475622      -2.31278335       6.72723495
Si       0.99925792       3.41332838       3.22080486
Si      -3.73278040       3.96166958       8.47934124
Si      -0.83710193       4.21828101       3.26516806
Si      -2.30909706      -0.94824418       7.92358801
22
Lattice="5.067388560400126 -0.7413967724901656 -1.9907679326400474 -1.6762782943817707 10.327465585557526 -0.018570171809752446 -5.20088904474674 -2.8047895837743018 11.49662639671498" Properties=species:S:1:pos:R:3 unique_starting_index=18 config_type=initial n_minim_iter=6 stress="-0.0054770029973916735 -0.0002780613053302517 0.004664749399655838 -0.0002780613053302517 0.004482208835362685 -0.001312951729713762 0.004664749399655838 -0.001312951729713762 0.004324743215880819" pbc="T T T"
Si       1.50239750       8.27295718       0.68904944
Si      -2.21439925      -0.77022249       5.82125288
Si      -4.23945042      -0.98250476      10.78036314
Si      -0.75371316      -0.54109553       9.27956006
Si      -5.12401363       2.18360398      11.10263430
Si       3.93258781       1.92849116      -0.01310562
Si       2.58429309       0.12045786      -0.05094667
Si      -1.79685652       3.59333782       8.86909024
Si      -2.46780416      -1.37282984       9.92559093
Si      -3.84248770       2.90345810       6.77681926
Si      -0.55904648       2.33195746       3.87976268
Si      -2.88194272       4.66383282       6.80347490
Si      -3.95541316      -1.05002021       6.77504671
Si       0.10915330       6.87311336       0.29134783
Si       0.16370950       3.87562464       4.98018840
Si       1.64601291       6.69870524      -0.98569891
Si      -0.82392963      -1.33229992       4.44630420
Si       0.99602626      -2.31532573       6.73282915
Si       1.00045994       3.41315514       3.22260782
Si      -3.72907919       3.96105226       8.48206543
Si      -0.83538095       4.22062454       3.26595181
Si      -2.30616911      -0.95234138       7.92902413
22
Lattice="5.071237974201301 -0.7392780164144471 -1.9923922579733682 -1.6752973075220146 10.318524204966682 -0.02046458084100641 -5.211408892762343 -2.806689803929976 11.49296821799899" Properties=species:S:1:pos:R:3 unique_starting_index=18 config_type=initial n_minim_iter=7 stress="-0.0009956872082469005 -0.0014348507387745065 -0.0007410679025597656 -0.0014348507387745065 -4.026055400778455e-06 -0.001908031324727307 -0.0007410679025597656 -0.001908031324727307 -0.003341404083908133" pbc="T T T"
Si       1.50397636       8.26675056       0.68523002
Si      -2.21948308      -0.77159855       5.81907077
Si      -4.24759918      -0.98408492      10.77646301
Si      -0.76031993      -0.54302162       9.27514114
Si      -5.13445739       2.17680168      11.09904981
Si       3.93571264       1.92724024      -0.01607441
Si       2.58548264       0.12099225      -0.05334919
Si      -1.80316023       3.58692316       8.86283790
Si      -2.47405817      -1.37378328       9.92151598
Si      -3.84906583       2.89711506       6.77384015
Si      -0.56064069       2.32670492       3.87617913
Si      -2.88785147       4.65662938       6.79859552
Si      -3.96252847      -1.05295735       6.77243681
Si       0.11027345       6.86745735       0.28788168
Si       0.15847246       3.86924115       4.97615501
Si       1.64829792       6.69355915      -0.98715243
Si      -0.82847741      -1.33205272       4.44370769
Si       0.99284657      -2.31349872       6.72800928
Si       1.00106012       3.40912795       3.22013067
Si      -3.73477578       3.95609384       8.47646010
Si      -0.83606750       4.21823188       3.26351107
Si      -2.31167175      -0.95480978       7.92537023
22
Lattice="5.070731509036981 -0.7342440189208597 -1.9934653481591402 -1.6639587934728457 10.304139141357524 -0.012786823669343464 -5.213079798093891 -2.8002426325007095 11.498221941331582" Properties=species:S:1:pos:R:3 unique_starting_index=18 config_type=initial n_minim_iter=8 stress="-0.0003607275132800253 0.0024694804432666127 0.0006499782509573833 0.0024694804432666127 -0.0009071251283027114 0.0034606887058585296 0.0006499782509573833 0.0034606887058585296 0.0001775443019565408" pbc="T T T"
Si       1.51322831       8.25987687       0.69226497
Si      -2.21944211      -0.76857186       5.82235232
Si      -4.24587944      -0.97733528      10.78331279
Si      -0.75892750      -0.53536904       9.28261077
Si      -5.13206829       2.17537885      11.10936025
Si       3.93933955       1.92908621      -0.01392400
Si       2.58568609       0.12419794      -0.05413996
Si      -1.79775657       3.58663846       8.87134798
Si      -2.47300594      -1.36631979       9.92834217
Si      -3.84570625       2.89261339       6.78061607
Si      -0.55633761       2.32457247       3.87944898
Si      -2.88285911       4.65226688       6.80537570
Si      -3.96413418      -1.05230154       6.77534662
Si       0.11730830       6.86016783       0.29261648
Si       0.16115229       3.86625324       4.98401581
Si       1.65595215       6.68632282      -0.98230705
Si      -0.82992026      -1.32737101       4.44537360
Si       0.99302703      -2.30217682       6.73058369
Si       1.00622801       3.40797019       3.22730844
Si      -3.72890086       3.95552937       8.48435217
Si      -0.82942459       4.21665048       3.26908853
Si      -2.31089526      -0.95085651       7.92973575
22
Lattice="5.06985618456501 -0.7307533157247739 -1.9952671686115095 -1.665112873318582 10.287056672585102 -0.028177274661239513 -5.213320976852329 -2.8121700221868555 11.515103901738579" Properties=species:S:1:pos:R:3 unique_starting_index=18 config_type=initial n_minim_iter=9 stress="-0.00183059108030837 -0.0005672065816937164 -0.0015938462528409009 -0.0005672065816937164 -0.005265587055042123 -0.0014276384180479766 -0.0015938462528409009 -0.0014276384180479766 0.00474165564752005" pbc="T T T"
Si       1.51026997       8.24642544       0.67957740
Si      -2.21982373      -0.77565876       5.83014344
Si      -4.24393218      -0.98695871      10.79782538
Si      -0.75919011      -0.54669072       9.29543007
Si      -5.13635204       2.15177946      11.12136377
Si       3.94002217       1.92524413      -0.01798356
Si       2.58433556       0.12416432      -0.05712065
Si      -1.79886541       3.56560935       8.87439644
Si      -2.47229572      -1.37661874       9.94191805
Si      -3.84689398       2.87371264       6.78620600
Si      -0.55491467       2.31233613       3.87675321
Si      -2.88652125       4.63312416       6.80240031
Si      -3.96594693      -1.06313990       6.78432815
Si       0.11432289       6.85025464       0.28156193
Si       0.15516750       3.84702418       4.98567484
Si       1.65557305       6.67584111      -0.99507418
Si      -0.83109590      -1.33067644       4.45136762
Si       0.99559774      -2.30360633       6.73927716
Si       1.00505189       3.39586814       3.22993167
Si      -3.73067025       3.93993544       8.48681058
Si      -0.82804102       4.20801857       3.26553795
Si      -2.31127146      -0.96257441       7.93870688
22
Lattice="5.070341534285376 -0.7316397932127255 -1.9935105914357112 -1.6660893021867602 10.293007499233862 -0.02787711355520073 -5.21258791744685 -2.812840207401372 11.507109311848435" Properties=species:S:1:pos:R:3 unique_starting_index=18 config_type=initial n_minim_iter=10 stress="-0.0015216482757793312 -0.0012981824617537192 -0.0010960459888646492 -0.0012981824617537192 0.0007944395936262989 0.0013696494477897607 -0.0010960459888646492 0.0013696494477897607 -0.0017924534093515347" pbc="T T T"
Si       1.50956664       8.25167238       0.67946802
Si      -2.21970484      -0.77567104       5.82643252
Si      -4.24255266      -0.98516041      10.79099121
Si      -0.75787755      -0.54582481       9.29013484
Si      -5.13718949       2.15240928      11.11484389
Si       3.94112423       1.92611168      -0.01762799
Si       2.58444335       0.12421568      -0.05761471
Si      -1.79861219       3.56761294       8.86829947
Si      -2.47100216      -1.37621327       9.93529364
Si      -3.84696620       2.87434511       6.78258588
Si      -0.55430102       2.31307788       3.87312304
Si      -2.88737971       4.63585891       6.79704827
Si      -3.96589151      -1.06407682       6.77959114
Si       0.11351058       6.85491932       0.28140237
Si       0.15406739       3.84787814       4.98355530
Si       1.65533963       6.67933263      -0.99452938
Si      -0.83079909      -1.33083422       4.44815544
Si       0.99789991      -2.30292196       6.73451815
Si       1.00552266       3.39740984       3.22957389
Si      -3.73058614       3.94391094       8.48105184
Si      -0.82747556       4.21146453       3.26340396
Si      -2.31077384      -0.96311290       7.93300669
22
Lattice="5.071352204065601 -0.7286534559372244 -1.9937941317763794 -1.6631604472625912 10.282183593873537 -0.03101115006904879 -5.214061392321086 -2.8151057322791764 11.51267579123992" Properties=species:S:1:pos:R:3 unique_starting_index=18 config_type=initial n_minim_iter=11 stress="-0.0003931701478688384 -0.0010932855308745102 -0.0022085246310461905 -0.0010932855308745102 -0.0009979557225968268 0.0009994330149209888 -0.0022085246310461905 0.0009994330149209888 0.0012537825100338938" pbc="T T T"
Si       1.51179624       8.24576010       0.67687212
Si      -2.22178363      -0.77754763       5.83052404
Si      -4.24183124      -0.98413644      10.79767818
Si      -0.75605518      -0.54580936       9.29597490
Si      -5.14047769       2.14293256      11.12232727
Si       3.94512300       1.92633677      -0.01903731
Si       2.58471470       0.12534401      -0.05962167
Si      -1.79982862       3.55962837       8.86922112
Si      -2.47031260      -1.37764864       9.93864629
Si      -3.84639232       2.86396008       6.78781614
Si      -0.55331601       2.30766110       3.87130593
Si      -2.88845866       4.62707781       6.79665251
Si      -3.96605980      -1.06854904       6.78257404
Si       0.11620485       6.84803093       0.27787994
Si       0.15243119       3.83906489       4.98781042
Si       1.65765349       6.67330114      -0.99855660
Si      -0.83074286      -1.33035280       4.44990117
Si       1.00150468      -2.29739253       6.73779114
Si       1.00887173       3.39217811       3.23252283
Si      -3.72850908       3.93863323       8.48406014
Si      -0.82456294       4.20653250       3.26341471
Si      -2.31186028      -0.96647895       7.93524361
22
Lattice="5.07278630951111 -0.7268191477166954 -1.9945329125372133 -1.6597471257914571 10.282296528428748 -0.030686924463115328 -5.218089747751204 -2.817146818235049 11.513773593317389" Properties=species:S:1:pos:R:3 unique_starting_index=18 config_type=initial n_minim_iter=12 stress="0.0006734508340816785 -0.0010286141206265523 -0.0023746119003712645 -0.0010286141206265523 0.0002782999890568393 0.0008279277738791677 -0.0023746119003712645 0.0008279277738791677 0.0009189972114892308" pbc="T T T"
Si       1.51377518       8.24988904       0.67588579
Si      -2.22518927      -0.77884255       5.83281883
Si      -4.24094075      -0.97985603      10.80059450
Si      -0.75736382      -0.54190821       9.29814058
Si      -5.14768185       2.13845011      11.12858251
Si       3.94963097       1.93000573      -0.02462481
Si       2.58507836       0.12669942      -0.06280045
Si      -1.79982079       3.55678704       8.86809048
Si      -2.47146454      -1.37722090       9.93747195
Si      -3.84976570       2.85950524       6.79223971
Si      -0.55118963       2.30512927       3.87145279
Si      -2.89118902       4.62440271       6.79757377
Si      -3.96842584      -1.07247308       6.78264352
Si       0.11979221       6.84800707       0.27429972
Si       0.15044686       3.83521085       4.98984239
Si       1.65930610       6.67440136      -1.00127534
Si      -0.82961769      -1.33014464       4.44965367
Si       1.00227928      -2.29111880       6.73926103
Si       1.01162368       3.39043419       3.23554200
Si      -3.73114571       3.94055005       8.48518088
Si      -0.82140142       4.20420232       3.26502700
Si      -2.31344061      -0.96793349       7.93366866
22
Lattice="5.074192154348991 -0.7255547423756529 -1.9946073880836268 -1.6593362442883604 10.283287911011701 -0.03539279500133203 -5.219608577422389 -2.82309199897704 11.51801906676515" Properties=species:S:1:pos:R:3 unique_starting_index=18 config_type=initial n_minim_iter=13 stress="0.001060778155809177 -0.0006006844932087129 -0.001252599964766127 -0.0006006844932087129 0.00076184728292114 -2.8535207952860625e-06 -0.001252599964766127 -2.8535207952860625e-06 0.000768021039792721" pbc="T T T"
Si       1.51242166       8.25318917       0.67117890
Si      -2.22532897      -0.78233062       5.83524294
Si      -4.23601762      -0.97858871      10.80550808
Si      -0.75815253      -0.54185610       9.30224967
Si      -5.15474020       2.12967486      11.13598013
Si       3.95534444       1.93291954      -0.02862332
Si       2.58547593       0.12732969      -0.06600485
Si      -1.80218210       3.55069992       8.86632577
Si      -2.46996391      -1.38019451       9.93985299
Si      -3.85304638       2.85545651       6.79731985
Si      -0.55059113       2.30072466       3.86867081
Si      -2.89327345       4.61890004       6.79933899
Si      -3.97112786      -1.07882352       6.78443798
Si       0.12097803       6.84962501       0.26863303
Si       0.14881263       3.82978183       4.98905832
Si       1.66000396       6.67571852      -1.00824821
Si      -0.82721234      -1.33163259       4.45110486
Si       1.00113027      -2.28828802       6.74388258
Si       1.01344796       3.38572808       3.23773808
Si      -3.73112112       3.93775667       8.48738744
Si      -0.82001041       4.19913172       3.26539032
Si      -2.31156736      -0.97141268       7.93385357
22
Lattice="5.070184780662779 -0.7263597549202772 -1.9960104692166656 -1.65923399635981 10.292397448887954 -0.037777025760578495 -5.21545898991241 -2.8275678575634235 11.526766988775844" Properties=species:S:1:pos:R:3 unique_starting_index=18 config_type=initial n_minim_iter=14 stress="0.0037847849682253842 0.00025895407026088315 0.0007008520787214882 0.00025895407026088315 0.0013957498684631997 0.00014780521925159852 0.0007008520787214882 0.00014780521925159852 0.0016623863790753272" pbc="T T T"
Si       1.50666548       8.26267485       0.66839163
Si      -2.22275918      -0.78542130       5.83998017
Si      -4.22667521      -0.97186715      10.81606349
Si      -0.75732979      -0.54039450       9.30878510
Si      -5.15845146       2.12829661      11.15047467
Si       3.95867873       1.93618037      -0.03062506
Si       2.58303873       0.12805539      -0.07059100
Si      -1.80069504       3.54850157       8.86967219
Si      -2.46626103      -1.38217221       9.94609405
Si      -3.85425681       2.85628242       6.80609673
Si      -0.55212011       2.29623086       3.86515435
Si      -2.89082321       4.61930961       6.80693014
Si      -3.96612341      -1.08452583       6.78999328
Si       0.11912282       6.85523396       0.26277937
Si       0.14693138       3.82925891       4.99242467
Si       1.65778760       6.68148185      -1.01322536
Si      -0.82553023      -1.33227936       4.45382874
Si       0.99680904      -2.28455020       6.75069570
Si       1.01356686       3.38250853       3.23978462
Si      -3.73198762       3.94002444       8.49467657
Si      -0.82022499       4.19765684       3.26719460
Si      -2.30739147      -0.97271864       7.93726747
22
Lattice="5.066456211346557 -0.7292804240292822 -1.9975564605969105 -1.6634226272125843 10.301513023021286 -0.039855385786234314 -5.210074077815945 -2.829347518059515 11.536228174786823" Properties=species:S:1:pos:R:3 unique_starting_index=18 config_type=initial n_minim_iter=15 stress="0.0014928276728385307 0.0007146496127849552 0.002604306388815139 0.0007146496127849552 -0.00016051157447443797 0.0001965458879114543 0.002604306388815139 0.0001965458879114543 0.0006559399214978311" pbc="T T T"
Si       1.49790267       8.27034084       0.66632198
Si      -2.21884820      -0.78755562       5.84432931
Si      -4.22054367      -0.96279340      10.82846644
Si      -0.75373446      -0.53974583       9.31416342
Si      -5.16173012       2.13026922      11.16415912
Si       3.95967663       1.93623764      -0.03507200
Si       2.58087059       0.12805035      -0.07476439
Si      -1.80330422       3.54810815       8.87307119
Si      -2.46281314      -1.38443355       9.95227977
Si      -3.85629592       2.85935155       6.81284864
Si      -0.55414395       2.29254032       3.86511219
Si      -2.88908541       4.62074896       6.81523279
Si      -3.96004809      -1.08819302       6.79661965
Si       0.11506580       6.86103540       0.25931744
Si       0.14469279       3.82879949       4.99283621
Si       1.65374698       6.68588000      -1.01548669
Si      -0.82496750      -1.33219226       4.45655306
Si       0.99415586      -2.28142387       6.75728496
Si       1.01008653       3.37997326       3.24453724
Si      -3.73363800       3.94320305       8.50202494
Si      -0.82159697       4.19691550       3.26955462
Si      -2.30324068      -0.97273559       7.94381376
22
Lattice="5.063017212355388 -0.734609700375554 -1.999974106922955 -1.6722469686381363 10.309383633977331 -0.04050688986194118 -5.2058916168412 -2.827074478081079 11.543511884260175" Properties=species:S:1:pos:R:3 unique_starting_index=18 config_type=initial n_minim_iter=16 stress="0.0014613903265837396 0.00048204002830731085 0.00200523042089213 0.00048204002830731085 -0.0005083150235024975 -3.879678482933971e-05 0.00200523042089213 -3.879678482933971e-05 7.60736416976004e-05" pbc="T T T"
Si       1.48584919       8.27595668       0.66482305
Si      -2.21532589      -0.78809925       5.84705349
Si      -4.21385539      -0.95203131      10.83739740
Si      -0.75318340      -0.53871240       9.31667960
Si      -5.16740988       2.13580626      11.17475648
Si       3.95854221       1.93267577      -0.04139336
Si       2.57855140       0.12666361      -0.07872127
Si      -1.81035364       3.54920508       8.87444194
Si      -2.46446264      -1.38352717       9.95645023
Si      -3.85918170       2.86395139       6.81841340
Si      -0.56081573       2.29012122       3.86518120
Si      -2.89097795       4.62251983       6.82249264
Si      -3.95661274      -1.08869822       6.80185677
Si       0.10724834       6.86591473       0.25813132
Si       0.13891107       3.82874689       4.99414788
Si       1.64765931       6.68781383      -1.01571718
Si      -0.82432303      -1.33137084       4.45796529
Si       0.99144356      -2.27788385       6.76126074
Si       1.00661040       3.37797434       3.24676606
Si      -3.74032844       3.94805988       8.50650981
Si      -0.82623195       4.19581827       3.27109876
Si      -2.30036870      -0.97076630       7.95118475
22
Lattice="5.058814922505388 -0.7380552255246653 -2.001486388476338 -1.6769897961611766 10.31950258705663 -0.042047276522756374 -5.202072396677712 -2.828509537297417 11.546692662456714" Properties=species:S:1:pos:R:3 unique_starting_index=18 config_type=initial n_minim_iter=17 stress="-0.0004874718399005702 0.0008190020318016957 0.0013910269263736656 0.0008190020318016957 0.00026421622971072836 -0.00037783541439404716 0.0013910269263736656 -0.00037783541439404716 -0.00012576506029919268" pbc="T T T"
Si       1.47819369       8.28560629       0.66284250
Si      -2.21215070      -0.79060027       5.84788807
Si      -4.20771342      -0.94376952      10.84330831
Si      -0.75473741      -0.54003841       9.31626716
Si      -5.17105740       2.13999767      11.18019504
Si       3.95805609       1.92983019      -0.04764916
Si       2.57615174       0.12571997      -0.08140751
Si      -1.81607141       3.55011941       8.87185062
Si      -2.46221709      -1.38353324       9.95596483
Si      -3.86058019       2.86586867       6.82021742
Si      -0.56663654       2.29020068       3.86266579
Si      -2.88943999       4.62436303       6.82587407
Si      -3.95348647      -1.09108442       6.80369497
Si       0.10127203       6.87209031       0.25638380
Si       0.13425798       3.82924141       4.99364283
Si       1.64407027       6.69212159      -1.01488611
Si      -0.82300152      -1.33192736       4.45759856
Si       0.98632334      -2.27496761       6.76201667
Si       1.00352634       3.37752472       3.24789344
Si      -3.74644110       3.95152935       8.50870835
Si      -0.82826471       4.19396658       3.27042219
Si      -2.29734855      -0.97037016       7.95685376
22
Lattice="5.0580971927057075 -0.7404605816901392 -2.0029727690781702 -1.6838148636783508 10.328404903907835 -0.050880967340159074 -5.2034633737576765 -2.837519964126707 11.549872753471504" Properties=species:S:1:pos:R:3 unique_starting_index=18 config_type=initial n_minim_iter=18 stress="-6.681805922358338e-05 7.225715930500255e-05 0.0005734668934857625 7.225715930500255e-05 0.0005635517416719602 -0.0009811095321876986 0.0005734668934857625 -0.0009811095321876986 -2.8703235985658694e-05" pbc="T T T"
Si       1.47141546       8.29422835       0.65437517
Si      -2.21283281      -0.79759862       5.84899688
Si      -4.20537522      -0.94383686      10.84795216
Si      -0.75772292      -0.54674632       9.31388842
Si      -5.17956423       2.13560972      11.18048994
Si       3.96027079       1.92492850      -0.05552020
Si       2.57559837       0.12550792      -0.08493976
Si      -1.82587590       3.54469974       8.86423327
Si      -2.46491833      -1.39265991       9.95761991
Si      -3.86753797       2.86297662       6.81787170
Si      -0.57103909       2.28895566       3.85799076
Si      -2.89200284       4.61990918       6.82457309
Si      -3.95224972      -1.09687726       6.80391203
Si       0.09461520       6.87831940       0.24928508
Si       0.12754308       3.82459919       4.99001070
Si       1.64016039       6.69590671      -1.01786078
Si      -0.82178433      -1.33601673       4.45693081