8
Lattice="5.4735742134812355 1.2131141081944422e-79 3.306949810674768e-63 -2.449663425277992e-78 7.353277628181561 3.7848708899921494e-15 -3.3069498106747685e-63 -2.8173520370588788e-15 5.4735742134812355" Properties=species:S:1:pos:R:3 unique_starting_index=2 config_type=initial n_minim_iter=1 energy=-1301.1019262213515 free_energy=-1301.1019262213515 pbc="T T T"
Si       2.73625731       2.60891646       3.74263584
Si       2.73625731       2.60891646       1.73350661
Si       3.74082193       4.74436117       2.73807123
Si       1.73169270       4.74436117       2.73807123
Si       5.47304442       4.74436117       1.00584874
Si      -0.00052979       4.74436117       4.47029372
Si       4.46847980       2.60891646       5.47485833
Si       1.00403482       2.60891646       0.00128412
8
Lattice="5.476844322429574 1.259771651843223e-79 3.308925500735014e-63 -2.448610015493734e-78 7.352805995616925 3.79315822239276e-15 -3.3089255007350147e-63 -2.8125563374248412e-15 5.476844322429574" Properties=species:S:1:pos:R:3 unique_starting_index=2 config_type=initial n_minim_iter=2 stress="0.002292370479048775 -3.0202825962318442e-18 3.493092393752652e-17 -3.0202825962318442e-18 0.0008887047561362114 -6.563165159063367e-17 3.493092393752652e-17 -6.563165159063367e-17 0.002292370479044555" pbc="T T T"
Si       2.73789205       2.60874779       3.74500651
Si       2.73789205       2.60874779       1.73440759
Si       3.74319151       4.74405821       2.73970705
Si       1.73259259       4.74405821       2.73970705
Si       5.47631421       4.74405821       1.00658435
Si      -0.00053011       4.74405821       4.47282975
Si       4.47101475       2.60874779       5.47812921
Si       1.00476935       2.60874779       0.00128489
8
Lattice="5.476285411096334 1.2686584178894438e-79 3.3085878252682073e-63 -2.446060348180421e-78 7.348888979260568 3.791087693313257e-15 -3.3085878252682073e-63 -2.8123108149388226e-15 5.4762854110963355" Properties=species:S:1:pos:R:3 unique_starting_index=2 config_type=initial n_minim_iter=3 stress="0.0017354108573823834 5.339766417430644e-17 -7.120292913997862e-17 5.339766417430644e-17 -0.00028567399724729387 -1.2498720842865228e-16 -7.120292913997862e-17 -1.2498720842865228e-16 0.0017354108573844145" pbc="T T T"
Si       2.73761265       2.60736439       3.74471791
Si       2.73761265       2.60736439       1.73413701
Si       3.74290310       4.74152459       2.73942746
Si       1.73232220       4.74152459       2.73942746
Si       5.47575535       4.74152459       1.00657521
Si      -0.00053006       4.74152459       4.47227972
Si       4.47046490       2.60736439       5.47757017
Si       1.00476039       2.60736439       0.00128476
8
Lattice="5.474857954292292 1.2620890380288827e-79 3.307725403782034e-63 -2.4471291772928e-78 7.350688915197045 3.791395550040651e-15 -3.307725403782034e-63 -2.8120335828320467e-15 5.474857954292294" Properties=species:S:1:pos:R:3 unique_starting_index=2 config_type=initial n_minim_iter=4 stress="0.00027911309688587616 -2.4186760929659668e-17 1.3812218140804964e-18 -2.4186760929659668e-17 2.7642395391946747e-05 -4.172414556881028e-17 1.3812218140804964e-18 -4.172414556881028e-17 0.00027911309688655335" pbc="T T T"
Si       2.73689906       2.60803374       3.74391711
Si       2.73689906       2.60803374       1.73350968
Si       3.74210277       4.74265517       2.73871340
Si       1.73169534       4.74265517       2.73871340
Si       5.47432804       4.74265517       1.00648813
Si      -0.00052992       4.74265517       4.47093866
Si       4.46912432       2.60803374       5.47614237
Si       1.00467380       2.60803374       0.00128442
8
Lattice="5.4750864320136605 1.2165747098263638e-79 3.3139352495138884e-63 -2.445075297475305e-78 7.3504182747456825 3.791117898675633e-15 -3.3148026505370055e-63 -2.8122546321472295e-15 5.475086432013661" Properties=species:S:1:pos:R:3 unique_starting_index=2 config_type=initial n_minim_iter=5 stress="-0.00010918786724283771 1.713148989972984e-17 6.324052278430322e-17 1.713148989972984e-17 -1.2198052424862382e-05 -5.810202173658633e-17 6.324052278430322e-17 -5.810202173658633e-17 -0.00010918786724109634" pbc="T T T"
Si       2.73701328       2.60790252       3.74397161
Si       2.73701328       2.60790252       1.73368377
Si       3.74215719       4.74251575       2.73882769
Si       1.73186936       4.74251575       2.73882769
Si       5.47455649       4.74251575       1.00642839
Si      -0.00052994       4.74251575       4.47122699
Si       4.46941257       2.60790252       5.47637091
Si       1.00461398       2.60790252       0.00128447
