22
Lattice="5.499469439702412 -0.4825841881915422 -2.291042051560376 -2.087066584483503 10.549134176618994 -1.8945253062615048 -6.365809601154193 -5.012146796640839 12.548437410889976" Properties=species:S:1:pos:R:3 unique_starting_index=18 config_type=initial n_minim_iter=1 energy=-3603.4366413521775 free_energy=-3603.4366413521775 pbc="T T T"
Si       1.05441668       7.62193312      -0.17103692
Si      -2.72514516      -2.46497129       5.99478372
Si      -5.11409760      -2.36940432      10.89100681
Si      -1.37580920      -2.41880754       9.48639264
Si      -6.30443205      -0.10371878      11.16033799
Si       4.69510188       2.01086687      -1.10107431
Si       2.79687123       1.97099594      -0.40522194
Si      -3.01883501       2.38011649       8.52339585
Si      -3.26104755      -2.78997792      10.16381957
Si      -5.19765197       1.46897104       6.43191480
Si      -1.26779077       1.52976707       2.97071658
Si      -3.90127013       2.96749931       6.76875127
Si      -4.50472408      -2.47443995       6.92601900
Si      -0.44550359       6.84931014      -1.27806417
Si      -0.48455941       2.78298713       4.54001711
Si       1.30608716       7.02117941      -2.24468245
Si      -0.90054617      -3.04818272       5.30075108
Si       0.69322552      -3.39932476       6.57699007
Si       0.47910837       2.49693459       2.78981518
Si      -5.01643902       2.31301498       8.31321563
Si      -1.27554986       3.53029381       2.85168573
Si      -2.93326464      -2.46362115       8.18033667
22
Lattice="5.499042466417371 -0.48278463154471035 -2.290390965888866 -2.0871245159555953 10.549309870891841 -1.8936289888878615 -6.365425944935824 -5.011831992336888 12.544101041825794" Properties=species:S:1:pos:R:3 unique_starting_index=18 config_type=initial n_minim_iter=2 stress="-0.002137616047498892 0.00033224461660849466 0.00011614000076163611 0.00033224461660849466 -0.0008414393453684209 0.0003629743406442799 0.00011614000076163611 0.0003629743406442799 -0.00028284258711995747" pbc="T T T"
Si       1.05407770       7.62198930      -0.17087518
Si      -2.72499212      -2.46483087       5.99268076
Si      -5.11378820      -2.36913863      10.88724066
Si      -1.37590062      -2.41859947       9.48302587
Si      -6.30417780      -0.10339846      11.15657520
Si       4.69466011       2.01075567      -1.10075048
Si       2.79657123       1.97094397      -0.40513196
Si      -3.01884662       2.38037234       8.52049085
Si      -3.26098558      -2.78976619      10.16027495
Si      -5.19741595       1.46919338       6.42980296
Si      -1.26778735       1.52986477       2.96972883
Si      -3.90113636       2.96775830       6.76656926
Si      -4.50442459      -2.47424515       6.92363139
Si      -0.44558815       6.84941239      -1.27748941
Si      -0.48476268       2.78319247       4.53843807
Si       1.30580341       7.02122028      -2.24379785
Si      -0.90054614      -3.04810885       5.29885095
Si       0.69310686      -3.39928444       6.57460074
Si       0.47887779       2.49698877       2.78883191
Si      -5.01627411       2.31330882       8.31045002
Si      -1.27560004       3.53042302       2.85078826
Si      -2.93310043      -2.46343265       8.17755119
22
Lattice="5.501566855217072 -0.48334808394010553 -2.2899524838159717 -2.08909005833891 10.552020527404597 -1.8936614380641346 -6.368296363750377 -5.0131219161998075 12.54086239494342" Properties=species:S:1:pos:R:3 unique_starting_index=18 config_type=initial n_minim_iter=3 stress="0.002665804681398051 -0.00022458273858021717 -0.00038114805465345824 -0.00022458273858021717 0.0016305368590815647 0.0005237951838265647 -0.00038114805465345824 0.0005237951838265647 -0.0007955358417930177" pbc="T T T"
Si       1.05356699       7.62351328      -0.17144959
Si      -2.72622612      -2.46549630       5.99106896
Si      -5.11604039      -2.36996192      10.88416832
Si      -1.37686109      -2.41945472       9.48020816
Si      -6.30758705      -0.10363795      11.15344303
Si       4.69657458       2.01078482      -1.10071836
Si       2.79753052       1.97111781      -0.40530744
Si      -3.02082358       2.38062436       8.51773395
Si      -3.26279715      -2.79077568      10.15744408
Si      -5.20025709       1.46942425       6.42795105
Si      -1.26863912       1.53008554       2.96877314
Si      -3.90330150       2.96837403       6.76465817
Si      -4.50647859      -2.47481750       6.92170096
Si      -0.44637187       6.85110505      -1.27753941
Si      -0.48573920       2.78386572       4.53672764
Si       1.30562460       7.02285912      -2.24357987
Si      -0.90100588      -3.04904627       5.29743044
Si       0.69347786      -3.40060148       6.57277958
Si       0.47850477       2.49724496       2.78760122
Si      -5.01917587       2.31371593       8.30791608
Si      -1.27668781       3.53118107       2.84977228
Si      -2.93431048      -2.46419631       8.17555127
22
Lattice="5.500574977383192 -0.48294403712784584 -2.289551859255166 -2.089897603470786 10.55038376060133 -1.8976878406955848 -6.365947726377349 -5.015798329419155 12.542997527481122" Properties=species:S:1:pos:R:3 unique_starting_index=18 config_type=initial n_minim_iter=4 stress="0.0007043329615370984 -0.0009425117064660781 0.0008512814150014556 -0.0009425117064660781 -0.00032811701481051344 -0.00037045176560031307 0.0008512814150014556 -0.00037045176560031307 0.0002738838211205724" pbc="T T T"
Si       1.05238715       7.62149834      -0.17426323
Si      -2.72524394      -2.46679058       5.99213013
Si      -5.11356232      -2.37303993      10.88513482
Si      -1.37591003      -2.42159483       9.48131227
Si      -6.30612658      -0.10716641      11.15381568
Si       4.69573776       2.01031893      -1.10096060
Si       2.79682143       1.97056742      -0.40576053
Si      -3.01988190       2.37725072       8.51701471
Si      -3.26169129      -2.79350962      10.15881838
Si      -5.19941038       1.46682509       6.42745360
Si      -1.26827585       1.52873018       2.96836585
Si      -3.90192611       2.96558374       6.76431408
Si      -4.50504838      -2.47636678       6.92218139
Si      -0.44671124       6.84987563      -1.28012649
Si      -0.48606550       2.78237768       4.53577183
Si       1.30433663       7.02203577      -2.24578913
Si      -0.90044268      -3.05007614       5.29871227
Si       0.69431588      -3.40226485       6.57463106
Si       0.47797101       2.49546491       2.78652712
Si      -5.01800038       2.31047908       8.30710285
Si      -1.27662476       3.52954039       2.84873645
Si      -2.93246498      -2.46614210       8.17730462
22
Lattice="5.500420410934999 -0.48177330884526265 -2.2908209429225312 -2.0869932600230188 10.550653015694152 -1.8973537837748367 -6.369020741273179 -5.01751799988037 12.545065962961507" Properties=species:S:1:pos:R:3 unique_starting_index=18 config_type=initial n_minim_iter=5 stress="0.0002897810043796504 -0.00013352763584247075 -0.0008260673607583936 -0.00013352763584247075 6.865897999512256e-05 -0.00015419881349615973 -0.0008260673607583936 -0.00015419881349615973 0.0005994517414293863" pbc="T T T"
Si       1.05393225       7.62220680      -0.17451983
Si      -2.72676911      -2.46754971       5.99305001
Si      -5.11562574      -2.37438936      10.88681145
Si      -1.37825567      -2.42191746       9.48210929
Si      -6.30796069      -0.10853655      11.15579536
Si       4.69603084       2.01150164      -1.10198447
Si       2.79708062       1.97130988      -0.40628752
Si      -3.02077086       2.37673212       8.51807340
Si      -3.26413766      -2.79444774      10.16013427
Si      -5.20006493       1.46571534       6.42891230
Si      -1.26844940       1.52852804       2.96882694
Si      -3.90208023       2.96489778       6.76574520
Si      -4.50656285      -2.47757713       6.92345464
Si      -0.44491109       6.85020312      -1.28010368
Si      -0.48643905       2.78269724       4.53614584
Si       1.30619241       7.02290873      -2.24608734
Si      -0.90218115      -3.05044608       5.29916500
Si       0.69221126      -3.40235271       6.57486453
Si       0.47780828       2.49568105       2.78650442
Si      -5.01872965       2.30949682       8.30853719
Si      -1.27633870       3.52962634       2.84927912
Si      -2.93426760      -2.46688320       8.17853782
22
Lattice="5.499850478450963 -0.4805971387398034 -2.289862896332162 -2.084703394467018 10.551044814888234 -1.8970823135239767 -6.368065489037389 -5.0188755620350145 12.543387070329395" Properties=species:S:1:pos:R:3 unique_starting_index=18 config_type=initial n_minim_iter=6 stress="0.00027167818731670964 0.0006206281219271749 0.0004930206962104097 0.0006206281219271749 0.0006764871215393578 0.0001724447173667801 0.0004930206962104097 0.0001724447173667801 0.00033394901585816504" pbc="T T T"
Si       1.05568062       7.62312516      -0.17395471
Si      -2.72635682      -2.46812765       5.99227002
Si      -5.11413339      -2.37537815      10.88553411
Si      -1.37712757      -2.42183175       9.48143900
Si      -6.30621706      -0.10952065      11.15440965
Si       4.69636257       2.01280843      -1.10113135
Si       2.79747661       1.97214699      -0.40561627
Si      -3.01862550       2.37661417       8.51732268
Si      -3.26301189      -2.79505363      10.15924807
Si      -5.19875592       1.46495373       6.42796940
Si      -1.26762019       1.52848468       2.96863098
Si      -3.89994000       2.96443214       6.76535741
Si      -4.50592899      -2.47867004       6.92240540
Si      -0.44354673       6.85062478      -1.27980200
Si      -0.48503944       2.78333012       4.53614432
Si       1.30749863       7.02396471      -2.24534224
Si      -0.90206626      -3.05062746       5.29860030
Si       0.69252391      -3.40217278       6.57442530
Si       0.47878501       2.49604319       2.78659618
Si      -5.01674206       2.30885257       8.30741555
Si      -1.27508297       3.53003934       2.84927616
Si      -2.93335327      -2.46729906       8.17781573
22
Lattice="5.500355472495825 -0.48044479047683714 -2.290045109785492 -2.0849069456151943 10.548507564896363 -1.8974286103805738 -6.3691089436587625 -5.018151713622856 12.543464335306478" Properties=species:S:1:pos:R:3 unique_starting_index=18 config_type=initial n_minim_iter=7 stress="0.0009721098413019995 0.000261260512226452 -2.8631784532823855e-05 0.000261260512226452 -0.001591055370339407 0.0007425482624007389 -2.8631784532823855e-05 0.0007425482624007389 2.6445386528390036e-05" pbc="T T T"
Si       1.05538363       7.62101182      -0.17454481
Si      -2.72681739      -2.46775079       5.99220148
Si      -5.11466238      -2.37550365      10.88553201
Si      -1.37737113      -2.42130668       9.48117021
Si      -6.30775241      -0.11016440      11.15421466
Si       4.69691334       2.01238031      -1.10167939
Si       2.79775402       1.97162616      -0.40556534
Si      -3.01912002       2.37544292       8.51661333
Si      -3.26340046      -2.79511069      10.15932039
Si      -5.19987671       1.46468252       6.42803227
Si      -1.26800556       1.52799386       2.96852236
Si      -3.90022632       2.96276053       6.76575001
Si      -4.50646184      -2.47870123       6.92275495
Si      -0.44397424       6.84890406      -1.28006625
Si      -0.48540047       2.78299414       4.53608937
Si       1.30763244       7.02285016      -2.24556550
Si      -0.90243710      -3.05000623       5.29826866
Si       0.69244142      -3.40172581       6.57371966
Si       0.47839729       2.49476241       2.78635757
Si      -5.01766293       2.30765221       8.30678968
Si      -1.27579554       3.52959551       2.84919875
Si      -2.93385668      -2.46677570       8.17794579
22
Lattice="5.499491559338743 -0.4804572312538813 -2.290084601454853 -2.0853479669227264 10.552176809021201 -1.900022506559321 -6.367895583852963 -5.022195469075821 12.54501733372565" Properties=species:S:1:pos:R:3 unique_starting_index=18 config_type=initial n_minim_iter=8 stress="-0.0004021269617827811 -0.00044996330735130657 6.569911787899567e-06 -0.00044996330735130657 0.0006045941930859996 0.00039667535130446634 6.569911787899567e-06 0.00039667535130446634 0.00039855463722765424" pbc="T T T"
Si       1.05437930       7.62301379      -0.17659628
Si      -2.72628926      -2.46971005       5.99289235
Si      -5.11357969      -2.37866958      10.88643928
Si      -1.37691885      -2.42409688       9.48192471
Si      -6.30725082      -0.11257058      11.15441072
Si       4.69610321       2.01295718      -1.10245059
Si       2.79720604       1.97208226      -0.40590315
Si      -3.01887259       2.37410906       8.51589045
Si      -3.26255607      -2.79841767      10.16032250
Si      -5.19952684       1.46421274       6.42798586
Si      -1.26808029       1.52784238       2.96822746
Si      -3.89967216       2.96171919       6.76558609
Si      -4.50551294      -2.48105983       6.92373163
Si      -0.44467112       6.85126448      -1.28178288
Si      -0.48566035       2.78320375       4.53566188
Si       1.30686945       7.02579151      -2.24728931
Si      -0.90219324      -3.05203524       5.29884830
Si       0.69261146      -3.40445972       6.57426897
Si       0.47788894       2.49435342       2.78585533
Si      -5.01720545       2.30641519       8.30618055
Si      -1.27625493       3.53041744       2.84846744
Si      -2.93328663      -2.46905111       8.17885649
22
Lattice="5.499872049043188 -0.4785972128705968 -2.2895839160211837 -2.083807278998455 10.55259848624466 -1.9042168614914228 -6.369361070439144 -5.028567319653906 12.545225774252268" Properties=species:S:1:pos:R:3 unique_starting_index=18 config_type=initial n_minim_iter=9 stress="2.8947661695133554e-05 0.0001879363952328808 -2.1034284151905245e-05 0.0001879363952328808 -4.184135829481915e-05 -0.0006307478125305272 -2.1034284151905245e-05 -0.0006307478125305272 -0.00028307043278892336" pbc="T T T"
Si       1.05548444       7.62308039      -0.17997188
Si      -2.72695785      -2.47267624       5.99293480
Si      -5.11429255      -2.38433990      10.88584835
Si      -1.37730628      -2.42839308       9.48154431
Si      -6.30826600      -0.11823593      11.15254517
Si       4.69693185       2.01433043      -1.10323846
Si       2.79782891       1.97270931      -0.40654327
Si      -3.01878308       2.36979962       8.51322219
Si      -3.26307999      -2.80356546      10.15996955
Si      -5.20007840       1.46096106       6.42652801
Si      -1.26818346       1.52654362       2.96709707
Si      -3.89936424       2.95763166       6.76347561
Si      -4.50620816      -2.48501842       6.92375350
Si      -0.44378599       6.85160953      -1.28459622
Si      -0.48528868       2.78167921       4.53387006
Si       1.30800809       7.02745882      -2.24995474
Si      -0.90286002      -3.05434144       5.29901565
Si       0.69225056      -3.40726966       6.57447829
Si       0.47820069       2.49285345       2.78456217
Si      -5.01740396       2.30174603       8.30382356
Si      -1.27608503       3.52914624       2.84659378
Si      -2.93395054      -2.47275508       8.17876487
22
Lattice="5.499910307503938 -0.4779905102787942 -2.289599476059166 -2.0824730017617807 10.554243468135367 -1.9041321154868103 -6.370167607715273 -5.030225028933731 12.545157744019743" Properties=species:S:1:pos:R:3 unique_starting_index=18 config_type=initial n_minim_iter=10 stress="-0.00046401777412805745 -1.938829156292623e-05 -7.946864476947055e-05 -1.938829156292623e-05 -0.00010096824869044831 0.00016574918766902095 -7.946864476947055e-05 0.00016574918766902095 -0.00042062942838233503" pbc="T T T"
Si       1.05601110       7.62423472      -0.18041705
Si      -2.72729407      -2.47329546       5.99274123
Si      -5.11401612      -2.38610002      10.88616123
Si      -1.37682904      -2.42893183       9.48206671
Si      -6.30980807      -0.11908550      11.15176657
Si       4.69777117       2.01590131      -1.10330165
Si       2.79835941       1.97348231      -0.40618542
Si      -3.01874617       2.36928167       8.51207887
Si      -3.26227181      -2.80556305      10.15985184
Si      -5.20106502       1.46167749       6.42696407
Si      -1.26891455       1.52800338       2.96697396
Si      -3.89836311       2.95571082       6.76360180
Si      -4.50621350      -2.48702392       6.92319759
Si      -0.44332422       6.85266145      -1.28530760
Si      -0.48484305       2.78438850       4.53437724
Si       1.30795637       7.03108841      -2.24994054
Si      -0.90324130      -3.05462290       5.29771215
Si       0.69281225      -3.40836050       6.57452005
Si       0.47839224       2.49204336       2.78580136
Si      -5.01737938       2.30053247       8.30391801
Si      -1.27623134       3.52964537       2.84755853
Si      -2.93403657      -2.47247102       8.17930726
22
Lattice="5.499739747896815 -0.4760184165506351 -2.289515249202969 -2.07966400306741 10.555426474725 -1.9068047763782257 -6.371487915447823 -5.035678592418846 12.546516326383273" Properties=species:S:1:pos:R:3 unique_starting_index=18 config_type=initial n_minim_iter=11 stress="-0.0005834281773487195 0.00023145112443671102 -0.00010913676831985635 0.00023145112443671102 -0.00021462937621536646 3.041507583675346e-06 -0.00010913676831985635 3.041507583675346e-06 -0.0005859318739748787" pbc="T T T"
Si       1.05758963       7.62512421      -0.18280644
Si      -2.72734000      -2.47562539       5.99291259
Si      -5.11378144      -2.39132797      10.88718731
Si      -1.37646686      -2.43160455       9.48305610
Si      -6.31141004      -0.12458165      11.15107151
Si       4.69880389       2.01849400      -1.10285399
Si       2.79848215       1.97499592      -0.40737217
Si      -3.01861687       2.36588698       8.51060138
Si      -3.26222615      -2.81063249      10.16061216
Si      -5.20237798       1.45953645       6.42729548
Si      -1.26927241       1.52791744       2.96693234
Si      -3.89672727       2.95160226       6.76244662
Si      -4.50664033      -2.49141959       6.92385714
Si      -0.44213963       6.85374241      -1.28787318
Si      -0.48318770       2.78515517       4.53540836
Si       1.30871754       7.03537331      -2.25178835
Si      -0.90360245      -3.05618825       5.29707055
Si       0.69317655      -3.41092422       6.57587827
Si       0.47900213       2.49091496       2.78608643
Si      -5.01722343       2.29671610       8.30299929
Si      -1.27551494       3.52890205       2.84718673
Si      -2.93456035      -2.47431755       8.18028389
22
Lattice="5.499462842004719 -0.47715107345948454 -2.2892255624493636 -2.0820084239344387 10.556893765305649 -1.9075388155398136 -6.3691863809608105 -5.035270238035143 12.54712097011981" Properties=species:S:1:pos:R:3 unique_starting_index=18 config_type=initial n_minim_iter=12 stress="-0.00048480840334090254 -1.893215100210757e-05 -3.999471189213901e-05 -1.893215100210757e-05 -0.00017758737299535172 0.00010573097066616361 -3.999471189213901e-05 0.00010573097066616361 -0.0005478215051128644" pbc="T T T"
Si       1.05549202       7.62527048      -0.18362745
Si      -2.72584301      -2.47525869       5.99292418
Si      -5.11143234      -2.39167527      10.88793781
Si      -1.37491683      -2.43220680       9.48427401
Si      -6.31197317      -0.12347156      11.15036160
Si       4.69865402       2.01839339      -1.10174210
Si       2.79730319       1.97528162      -0.40830716
Si      -3.01904357       2.36570774       8.51031260
Si      -3.25955790      -2.81184186      10.16098204
Si      -5.20392571       1.46052437       6.42806900
Si      -1.26985675       1.52833215       2.96757351
Si      -3.89592321       2.95096075       6.76185728
Si      -4.50432193      -2.49220035       6.92447041
Si      -0.44432897       6.85353811      -1.28881242
Si      -0.48238613       2.78717354       4.53703985
Si       1.30626402       7.03848093      -2.25244708
Si      -0.90205319      -3.05618631       5.29621896
Si       0.69551055      -3.41225874       6.57663478
Si       0.47839381       2.49055702       2.78679478
Si      -5.01724030       2.29725137       8.30261079
Si      -1.27586091       3.52954346       2.84833965
Si      -2.93307264      -2.47281358       8.18096448
22
Lattice="5.497769478782778 -0.47803073103626154 -2.288588197536866 -2.084942446142521 10.556145302094054 -1.9113892036127078 -6.36345538676547 -5.035913038888665 12.55089265928808" Properties=species:S:1:pos:R:3 unique_starting_index=18 config_type=initial n_minim_iter=13 stress="-0.00016566633359055958 9.317292881442696e-05 0.00010304627765474906 9.317292881442696e-05 -0.0001498435941402248 -0.000134922568893577 0.00010304627765474906 -0.000134922568893577 -0.00031356929134995786" pbc="T T T"
Si       1.05230634       7.62306539      -0.18631815
Si      -2.72199270      -2.47522367       5.99389751
Si      -5.10664822      -2.39368122      10.89128867
Si      -1.37129269      -2.43486511       9.48782642
Si      -6.31035683      -0.12575413      11.15050059
Si       4.69712670       2.01788572      -1.10002063
Si       2.79609722       1.97537759      -0.40898012
Si      -3.01776611       2.36268778       8.51147795
Si      -3.25393129      -2.81502001      10.16324099
Si      -5.20530695       1.45994172       6.43010471
Si      -1.27132473       1.52740557       2.96829529
Si      -3.89334171       2.94771667       6.76097955
Si      -4.49916362      -2.49437995       6.92684492
Si      -0.44828197       6.85252390      -1.29125118
Si      -0.48005162       2.78825437       4.53823681
Si       1.30294586       7.04190895      -2.25558948
Si      -0.89936427      -3.05637458       5.29673807
Si       0.69876950      -3.41452829       6.57961427
Si       0.47757690       2.48968643       2.78791920
Si      -5.01555662       2.29561294       8.30278812
Si      -1.27533742       3.52830502       2.85082438
Si      -2.92830290      -2.47108091       8.18413149
22
Lattice="5.496793094023465 -0.48176785007686446 -2.288665233403316 -2.0917692461815047 10.555871710390218 -1.9114643237373399 -6.357187700375936 -5.029917384255236 12.554208073194543" Properties=species:S:1:pos:R:3 unique_starting_index=18 config_type=initial n_minim_iter=14 stress="0.0002995535400212335 -6.778301866899959e-05 0.00014010313317156247 -6.778301866899959e-05 0.00010220311226269159 -0.00012050238261007755 0.00014010313317156247 -0.00012050238261007755 5.7145380802701705e-05" pbc="T T T"
Si       1.04650117       7.62058014      -0.18611869
Si      -2.71698225      -2.47209438       5.99391352
Si      -5.10167594      -2.39007426      10.89454025
Si      -1.36720861      -2.43472181       9.49168500
Si      -6.30987174      -0.12097479      11.15135259
Si       4.69505197       2.01532979      -1.09823006
Si       2.79526974       1.97441087      -0.40854244
Si      -3.01788831       2.36407661       8.51462770
Si      -3.24954993      -2.81359058      10.16592165
Si      -5.20858258       1.46384305       6.43319764
Si      -1.27423682       1.52775926       2.96939998
Si      -3.89284054       2.94828695       6.76212917
Si      -4.49405183      -2.49259709       6.92949711
Si      -0.45322815       6.85118772      -1.29165475
Si      -0.47847218       2.79084042       4.54121549
Si       1.29618555       7.04442454      -2.25586191
Si      -0.89613703      -3.05445854       5.29674626
Si       0.70248052      -3.41474108       6.58187120
Si       0.47575090       2.48966035       2.79004987
Si      -5.01598857       2.29923443       8.30450164
Si      -1.27695389       3.52902307       2.85442284
Si      -2.92276003      -2.46500248       8.18692805
22
Lattice="5.4963728228332 -0.48559551439313914 -2.288638931860472 -2.0984536922460597 10.554503494053833 -1.9099581915600379 -6.351749377985493 -5.022058436279354 12.555921293025673" Properties=species:S:1:pos:R:3 unique_starting_index=18 config_type=initial n_minim_iter=15 stress="0.0008410428821249284 -1.0355248612792081e-05 0.00018680420280001053 -1.0355248612792081e-05 0.0003867392561198387 -0.00012797676513536942 0.00018680420280001053 -0.00012797676513536942 0.0005556489252818457" pbc="T T T"
Si       1.04167361       7.61771024      -0.18492338
Si      -2.71332029      -2.46806498       5.99404769
Si      -5.09721862      -2.38487795      10.89645605
Si      -1.36247066      -2.43328506       9.49458636
Si      -6.30986905      -0.11524408      11.15133858
Si       4.69348329       2.01290195      -1.09622136
Si       2.79447790       1.97328828      -0.40771284
Si      -3.01825780       2.36658511       8.51756718
Si      -3.24687088      -2.81059623      10.16809403
Si      -5.21257913       1.46841512       6.43530879
Si      -1.27671532       1.52828412       2.97032176
Si      -3.89264861       2.94957121       6.76366889
Si      -4.48821976      -2.48955720       6.93082277
Si      -0.45866024       6.84915623      -1.29072753
Si      -0.47701710       2.79377687       4.54416361
Si       1.29042478       7.04599301      -2.25564741
Si      -0.89303737      -3.05170111       5.29619542
Si       0.70576159      -3.41363562       6.58349332
Si       0.47374959       2.48942775       2.79222079
Si      -5.01643053       2.30364591       8.30685475
Si      -1.27858599       3.52970842       2.85728699
Si      -2.91782009      -2.45768479       8.18843321
22
Lattice="5.495650432318918 -0.48878290796434865 -2.2891793029956133 -2.10381962897121 10.552746744703475 -1.9088971927078786 -6.3475735632416415 -5.015429335884357 12.558528052230182" Properties=species:S:1:pos:R:3 unique_starting_index=18 config_type=initial n_minim_iter=16 stress="0.0008423244529427662 2.8202084414642016e-05 0.00011572495615864304 2.8202084414642016e-05 0.0005274750096388125 -0.0001288365784065461 0.00011572495615864304 -0.0001288365784065461 0.0008082327241509161" pbc="T T T"
Si       1.03791073       7.61485410      -0.18416560
Si      -2.70994730      -2.46468351       5.99456424
Si      -5.09413849      -2.38046104      10.89892807
Si      -1.35917650      -2.43263420       9.49771462
Si      -6.31020987      -0.11068291      11.15212286
Si       4.69170837       2.01108232      -1.09551480
Si       2.79251145       1.97208349      -0.40720054
Si      -3.01914796       2.36849604       8.52060251
Si      -3.24499793      -2.80806098      10.17047763
Si      -5.21613132       1.47199199       6.43734821
Si      -1.27870265       1.52829800       2.97114740
Si      -3.89276628       2.95024781       6.76578998
Si      -4.48488247      -2.48688736       6.93317378
Si      -0.46333436       6.84683769      -1.29005271
Si      -0.47656784       2.79637872       4.54647878
Si       1.28574924       7.04678209      -2.25569091
Si      -0.88965232      -3.04928577       5.29594456
Si       0.70755242      -3.41250059       6.58493604
Si       0.47165702       2.48869618       2.79387443
Si      -5.01653472       2.30695698       8.30983931
Si      -1.27966206       3.52974084       2.85928149
Si      -2.91378213      -2.45150068       8.19112800
22
Lattice="5.495234179367128 -0.4934189308490837 -2.290732178995638 -2.1120702114884167 10.548223576367631 -1.9080659988601827 -6.343491587948659 -5.005618310801856 12.56346641894415" Properties=species:S:1:pos:R:3 unique_starting_index=18 config_type=initial n_minim_iter=17 stress="0.0006357868370263536 -0.00011709709535162077 -0.00014698007274538153 -0.00011709709535162077 9.465865764171013e-05 -0.00017930006090299176 -0.00014698007274538153 -0.00017930006090299176 0.0008865711333986507" pbc="T T T"
Si       1.03275226       7.60876316      -0.18397102
Si      -2.70606622      -2.45971360       5.99589870
Si      -5.09177973      -2.37426747      10.90309549
Si      -1.35574208      -2.43273068       9.50281019
Si      -6.31358033      -0.10602782      11.15314126
Si       4.68897712       2.00862359      -1.09611345
Si       2.78810786       1.96969931      -0.40709887
Si      -3.02126773       2.37019533       8.52540914
Si      -3.24287893      -2.80494581      10.17412612
Si      -5.22372604       1.47668884       6.44106666
Si      -1.28365026       1.52691154       2.97147513
Si      -3.89446007       2.94942871       6.76910657
Si      -4.47878660      -2.48292159       6.93722506
Si      -0.46973914       6.84217120      -1.28976620
Si      -0.47630157       2.79992429       4.54981469
Si       1.27804694       7.04727548      -2.25507699
Si      -0.88529396      -3.04528852       5.29574636
Si       0.70883172      -3.41074807       6.58724024
Si       0.46861042       2.48666239       2.79576267
Si      -5.01905939       2.31091888       8.31346933
Si      -1.28101692       3.52858747       2.86147453
Si      -2.90934639      -2.44170183       8.19668832
22
Lattice="5.4926556462578775 -0.49865548523242004 -2.2933483077118484 -2.1198311548608677 10.549669855146465 -1.9074007119459997 -6.3366334156347826 -4.997591839619916 12.573946522663325" Properties=species:S:1:pos:R:3 unique_starting_index=18 config_type=initial n_minim_iter=18 stress="-0.00024496122708980305 -0.00021807782293785906 -0.00031640233116118677 -0.00021807782293785906 -0.00017289599375715852 -8.992737092374655e-05 -0.00031640233116118677 -8.992737092374655e-05 0.00027620975242654617" pbc="T T T"
Si       1.02789151       7.60650769      -0.18226571
Si      -2.69912671      -2.45612859       5.99780758
Si      -5.08674295      -2.36837722      10.91107221
Si      -1.35114411      -2.43261073       9.51191194
Si      -6.31607283      -0.10101209      11.15881808
Si       4.68204873       2.00629650      -1.09730611
Si       2.78201440       1.96815209      -0.40885670
Si      -3.02176005       2.37465561       8.53527115
Si      -3.23949220      -2.80253844      10.18374627
Si      -5.22952276       1.48269405       6.44906744
Si      -1.28918669       1.52728203       2.96955872
Si      -3.89447710       2.95074134       6.77574085
Si      -4.46964334      -2.47901221       6.94514814
Si      -0.47561853       6.83943056      -1.28786703
Si      -0.47525840       2.80567815       4.55469518
Si       1.27084642       7.05194152      -2.25492067