22
Lattice="5.633463374878942 -1.0371016755858114e-45 -4.282723222059911e-31 8.584468637500407e-46 6.649026812463349 -4.809294869665905e-15 1.1364834304165419e-30 1.0812892774558207e-14 14.949221440298828" Properties=species:S:1:pos:R:3 unique_starting_index=32 config_type=initial n_minim_iter=1 energy=-3591.7102879030813 free_energy=-3591.7102879030813 pbc="T T T"
Si       1.84816024      -0.28951246       8.09425666
Si       3.78530313       6.93853927       8.09425666
Si       1.84816024       3.61402587       0.61964594
Si       3.78530313       3.03500095       0.61964594
Si       5.19285261       2.42089401      14.25161614
Si       0.44061077       4.22813280      14.25161614
Si       5.19285261       0.90361939       6.77700542
Si       0.44061077       5.74540742       6.77700542
Si       2.96357531       1.76190914      10.92828866
Si       2.66988807       4.88711768      10.92828866
Si       2.96357531       1.56260427       3.45367794
Si       2.66988807       5.08642254       3.45367794
Si       2.95663103       4.85374442       8.94813851
Si       2.67683234       1.79528240       8.94813851
Si       2.95663103       5.11979580       1.47352779
Si       2.67683234       1.52923101       1.47352779
Si       1.83872551       0.08078056       2.62339389
Si       3.79473786       6.56824625       2.62339389
Si       1.83872551       3.24373284      10.09800461
Si       3.79473786       3.40529397      10.09800461
Si       2.81673169       3.32451341       2.40911817
Si       2.81673169      -0.00000000       9.88372889
22
Lattice="5.6420195106443485 -1.0165842900706294e-45 -4.540603760595263e-31 9.08964333578147e-46 6.621545373287506 -4.634799393686643e-15 1.0720450250201511e-30 1.1214503054407605e-14 14.991771537927193" Properties=species:S:1:pos:R:3 unique_starting_index=32 config_type=initial n_minim_iter=2 stress="-0.006666746191054686 8.278960628132999e-16 -5.969454559554287e-16 8.278960628132999e-16 -0.009011262050111652 -5.486868023740575e-17 -5.969454559554287e-16 -5.486868023740575e-17 -0.0015119741009111366" pbc="T T T"
Si       1.85075133      -0.28825763       8.11725973
Si       3.79126818       6.90980300       8.11725973
Si       1.85075133       3.59903032       0.62137396
Si       3.79126818       3.02251506       0.62137396
Si       5.20090307       2.41164690      14.29229098
Si       0.44111644       4.20989848      14.29229098
Si       5.20090307       0.89912579       6.79640521
Si       0.44111644       5.72241958       6.79640521
Si       2.96800396       1.75445799      10.95964489
Si       2.67401555       4.86708738      10.95964489
Si       2.96800396       1.55631469       3.46375912
Si       2.67401555       5.06523068       3.46375912
Si       2.96106880       4.83385482       8.97326042
Si       2.68095071       1.78769056       8.97326042
Si       2.96106880       5.09846324       1.47737466
Si       2.68095071       1.52308213       1.47737466
Si       1.84155630       0.08048941       2.63071666
Si       3.80046321       6.54105597       2.63071666
Si       1.84155630       3.23028328      10.12660243
Si       3.80046321       3.39126209      10.12660243
Si       2.82100976       3.31077269       2.41630696
Si       2.82100976      -0.00000000       9.91219273
22
Lattice="5.650202413075771 -1.079405547616368e-45 -4.760504631354678e-31 8.467771083649571e-46 6.624703043373067 -4.772879873132348e-15 1.0171732974554188e-30 1.0915435127385856e-14 15.005668812214678" Properties=species:S:1:pos:R:3 unique_starting_index=32 config_type=initial n_minim_iter=3 stress="-0.0005098879986504249 3.8998826255198235e-16 -1.1076389205846104e-15 3.8998826255198235e-16 0.0008299489987315496 -3.2776778978389254e-16 -1.1076389205846104e-15 -3.2776778978389254e-16 0.007183262401665261" pbc="T T T"
Si       1.85322754      -0.28831525       8.12470257
Si       3.79697488       6.91301829       8.12470257
Si       1.85322754       3.60066677       0.62186817
Si       3.79697488       3.02403627       0.62186817
Si       5.20828148       2.41302186      14.30571391
Si       0.44192093       4.21168119      14.30571391
Si       5.20828148       0.89932966       6.80287951
Si       0.44192093       5.72537338       6.80287951
Si       2.97217051       1.75509165      10.96993482
Si       2.67803191       4.86961139      10.96993482
Si       2.97217051       1.55725987       3.46710042
Si       2.67803191       5.06744318       3.46710042
Si       2.96528293       4.83622878       8.98139196
Si       2.68491948       1.78847426       8.98139196
Si       2.96528293       5.10082578       1.47855756
Si       2.68491948       1.52387726       1.47855756
Si       1.84419550       0.08061905       2.63297932
Si       3.80600692       6.54408399       2.63297932
Si       1.84419550       3.23173247      10.13581372
Si       3.80600692       3.39297057      10.13581372
Si       2.82510121       3.31235152       2.41882674
Si       2.82510121      -0.00000000       9.92166114
22
Lattice="5.674029309840725 -1.1470901940124546e-45 -5.064425949978097e-31 7.893486993716376e-46 6.620266496609457 -4.8646505755235305e-15 9.4098628422863e-31 1.0678975442927218e-14 14.969286630842495" Properties=species:S:1:pos:R:3 unique_starting_index=32 config_type=initial n_minim_iter=4 stress="0.0035160159543393284 8.47031127824259e-17 -4.159861155352863e-16 8.47031127824259e-17 -0.0033232104226377725 -4.204012066731341e-16 -4.159861155352863e-16 -4.204012066731341e-16 -0.00042489041531173735" pbc="T T T"
Si       1.86010615      -0.28764633       8.10454803
Si       3.81392316       6.90791283       8.10454803
Si       1.86010615       3.59777958       0.61990472
Si       3.81392316       3.02248692       0.61990472
Si       5.22899335       2.41279823      14.27230662
Si       0.44503596       4.20746827      14.27230662
Si       5.22899335       0.89733502       6.78766330
Si       0.44503596       5.72293148       6.78766330
Si       2.98380464       1.75289367      10.94349142
Si       2.69022467       4.86737282      10.94349142
Si       2.98380464       1.55723958       3.45884811
Si       2.69022467       5.06302692       3.45884811
Si       2.97722901       4.83347483       8.95904206
Si       2.69680030       1.78679166       8.95904206
Si       2.97722901       5.09692491       1.47439874
Si       2.69680030       1.52334158       1.47439874
Si       1.85207400       0.08115597       2.62554935
Si       3.82195531       6.53911053       2.62554935
Si       1.85207400       3.22897728      10.11019266
Si       3.82195531       3.39128922      10.11019266
Si       2.83701465       3.31013325       2.41425034
Si       2.83701465      -0.00000000       9.89889366
22
Lattice="5.672883633632596 -1.152241505707061e-45 -5.086341261552941e-31 7.862239002412271e-46 6.623679687775227 -4.858698819662708e-15 9.337967355531576e-31 1.0688162292958035e-14 14.956069161546797" Properties=species:S:1:pos:R:3 unique_starting_index=32 config_type=initial n_minim_iter=5 stress="-0.0024103469551536973 -5.05248706006486e-16 -2.969995306998018e-16 -5.05248706006486e-16 -0.002603892720023294 -3.6924086610331043e-16 -2.969995306998018e-16 -3.6924086610331043e-16 -0.00045460790553964066" pbc="T T T"
Si       1.85911386      -0.28603617       8.09657048
Si       3.81376978       6.90971586       8.09657048
Si       1.85911386       3.59787602       0.61853590
Si       3.81376978       3.02580367       0.61853590
Si       5.22404343       2.41737890      14.26339721
Si       0.44884020       4.20630079      14.26339721
Si       5.22404343       0.89446095       6.78536262
Si       0.44884020       5.72921874       6.78536262
Si       2.98102911       1.75230885      10.93516075
Si       2.69185453       4.87137084      10.93516075
Si       2.98102911       1.55953100       3.45712617
Si       2.69185453       5.06414869       3.45712617
Si       2.97498616       4.83721655       8.94799233
Si       2.69789748       1.78646314       8.94799233
Si       2.97498616       5.09830298       1.46995774
Si       2.69789748       1.52537671       1.46995774
Si       1.85311832       0.08215321       2.62071711
Si       3.81976532       6.54152648       2.62071711
Si       1.85311832       3.22968663      10.09875170
Si       3.81976532       3.39399306      10.09875170
Si       2.83644182       3.31183984       2.41501817
Si       2.83644182      -0.00000000       9.89305275
22
Lattice="5.790732588374757 -1.1884702569295279e-45 -5.369319708253148e-31 7.846583558205332e-46 6.608156515501929 -4.822020151503644e-15 8.66732395550188e-31 1.065245123952971e-14 14.828925237443324" Properties=species:S:1:pos:R:3 unique_starting_index=32 config_type=initial n_minim_iter=6 stress="-0.00033867853846532606 -1.853128293921668e-15 8.18135647104664e-17 -1.853128293921668e-15 0.002039382327856452 1.791976001802775e-16 8.18135647104664e-17 1.791976001802775e-16 -0.01015558715622623" pbc="T T T"
Si       1.90889261      -0.26677959       8.03210034
Si       3.88183998       6.87493610       8.03210034
Si       1.90889261       3.57085784       0.61763773
Si       3.88183998       3.03729867       0.61763773
Si       5.30675218       2.42081259      14.16112411
Si       0.48398041       4.18734393      14.16112411
Si       5.30675218       0.88326567       6.74666149
Si       0.48398041       5.72489085       6.74666149
Si       3.02991006       1.74956057      10.84579716
Si       2.76082253       4.85859594      10.84579716
Si       3.02991006       1.55451768       3.43133454
Si       2.76082253       5.05363883       3.43133454
Si       3.02369941       4.83592293       8.85264501
Si       2.76703318       1.77223359       8.85264501
Si       3.02369941       5.07631185       1.43818239
Si       2.76703318       1.53184467       1.43818239
Si       1.90920361       0.08170118       2.58387502
Si       3.88152898       6.52645534       2.58387502
Si       1.90920361       3.22237708       9.99833763
Si       3.88152898       3.38577943       9.99833763
Si       2.89536629       3.30407826       2.40829095
Si       2.89536629      -0.00000000       9.82275357
22
Lattice="5.934945647191473 -1.2282131882369072e-45 -5.8139419066499165e-31 8.013441244079038e-46 6.628216987707615 -4.81208282404879e-15 7.596056800403788e-31 1.0606613497454736e-14 14.691862850108212" Properties=species:S:1:pos:R:3 unique_starting_index=32 config_type=initial n_minim_iter=7 stress="0.014391311165227358 -7.661776819302295e-16 4.558462158962028e-16 -7.661776819302295e-16 0.01679977433281856 3.618689091814467e-16 4.558462158962028e-16 3.618689091814467e-16 -0.009646299618579834" pbc="T T T"
Si       1.97259682      -0.24011675       7.96470698
Si       3.96234883       6.86833374       7.96470698
Si       1.97259682       3.55422524       0.61877555
Si       3.96234883       3.07399174       0.61877555
Si       5.41433896       2.45087194      14.05300720
Si       0.52060669       4.17734504      14.05300720
Si       5.41433896       0.86323655       6.70707577
Si       0.52060669       5.76498044       6.70707577
Si       3.08808854       1.76294255      10.74695150
Si       2.84685711       4.86527444      10.74695150
Si       3.08808854       1.55116594       3.40102007
Si       2.84685711       5.07705104       3.40102007
Si       3.08352657       4.85767174       8.75252810
Si       2.85141908       1.77054525       8.75252810
Si       3.08352657       5.08465374       1.40659668
Si       2.85141908       1.54356325       1.40659668
Si       1.98196285       0.08116528       2.53932979
Si       3.95298280       6.54705171       2.53932979
Si       1.98196285       3.23294321       9.88526122
Si       3.95298280       3.39527378       9.88526122
Si       2.96747282       3.31410849       2.40190083
Si       2.96747282      -0.00000000       9.74783226
22
Lattice="6.027034400849335 -1.177239747913648e-45 -6.045672998154778e-31 9.156335624092781e-46 6.650068255994026 -4.6435062181850104e-15 7.206493796420593e-31 1.1087853678556261e-14 14.784708897143902" Properties=species:S:1:pos:R:3 unique_starting_index=32 config_type=initial n_minim_iter=8 stress="0.007030917944909895 -9.92612254618001e-16 1.1616868932231568e-15 -9.92612254618001e-16 0.04190876789973271 1.1137672033298397e-15 1.1616868932231568e-15 1.1137672033298397e-15 0.009101007218938273" pbc="T T T"
Si       2.01777504      -0.18147127       8.03303047
Si       4.00925936       6.83153952       8.03303047
Si       2.01777504       3.50650539       0.64067603
Si       4.00925936       3.14356286       0.64067603
Si       5.45317763       2.49494769      14.18495135
Si       0.57385677       4.15512057      14.18495135
Si       5.45317763       0.83008644       6.79259691
Si       0.57385677       5.81998181       6.79259691
Si       3.10418709       1.80047510      10.80714625
Si       2.92284731       4.84959315      10.80714625
Si       3.10418709       1.52455902       3.41479180
Si       2.92284731       5.12550923       3.41479180
Si       3.09859617       4.88970517       8.79914315
Si       2.92843823       1.76036308       8.79914315
Si       3.09859617       5.08539721       1.40678870
Si       2.92843823       1.56467105       1.40678870
Si       2.05012379       0.06716803       2.49812982
Si       3.97691061       6.58290023       2.49812982
Si       2.05012379       3.25786610       9.89048427
Si       3.97691061       3.39220216       9.89048427
Si       3.01351720       3.32503413       2.44216013
Si       3.01351720      -0.00000000       9.83451457
22
Lattice="6.022417274614711 -1.2053682582518518e-45 -6.0471988173834845e-31 8.755485140540312e-46 6.648366787006153 -4.701966049060419e-15 7.275115213293707e-31 1.100833664534414e-14 14.862426610638147" Properties=species:S:1:pos:R:3 unique_starting_index=32 config_type=initial n_minim_iter=9 stress="-0.00641484446673045 -1.2216403339422535e-15 9.213079139141037e-16 -1.2216403339422535e-15 0.049134829539745635 4.547327624559199e-16 9.213079139141037e-16 4.547327624559199e-16 0.01925442405673603" pbc="T T T"
Si       2.02560770      -0.15101195       8.09350933
Si       3.99680957       6.79937874       8.09350933
Si       2.02560770       3.47519535       0.66229603
Si       3.99680957       3.17317144       0.66229603
Si       5.43841219       2.50850620      14.27524807
Si       0.58400509       4.13986059      14.27524807
Si       5.43841219       0.81567719       6.84403477
Si       0.58400509       5.83268959       6.84403477
Si       3.08910492       1.81035330      10.86056357
Si       2.93331235       4.83801349      10.86056357
Si       3.08910492       1.51383009       3.42935026
Si       2.93331235       5.13453670       3.42935026
Si       3.07916151       4.89540257       8.84784090
Si       2.94325576       1.75296422       8.84784090
Si       3.07916151       5.07714761       1.41662759
Si       2.94325576       1.57121918       1.41662759
Si       2.04897665       0.05379174       2.47377976
Si       3.97344062       6.59457504       2.47377976
Si       2.04897665       3.27039165       9.90499306
Si       3.97344062       3.37797514       9.90499306
Si       3.01120864       3.32418339       2.46388924
Si       3.01120864      -0.00000000       9.89510255
22
Lattice="6.09457961206044 -1.2481418994405777e-45 -5.698059545913487e-31 8.265208026246436e-46 6.539990212205827 -4.296190572370067e-15 8.602043451716153e-31 1.1947679107896927e-14 15.15850780375289" Properties=species:S:1:pos:R:3 unique_starting_index=32 config_type=initial n_minim_iter=10 stress="0.007374224833078204 -2.044290941627457e-15 4.0507956509089783e-16 -2.044290941627457e-15 0.06144183045990538 -1.0267163107654583e-17 4.0507956509089783e-16 -1.0267163107654583e-17 0.03607808332456087" pbc="T T T"
Si       2.04773904      -0.02071213       8.33749877
Si       4.04684057       6.56070234       8.33749877
Si       2.04773904       3.29070723       0.75824486
Si       4.04684057       3.24928298       0.75824486
Si       5.43814335       2.51480591      14.63717213
Si       0.65643626       4.02518430      14.63717213
Si       5.43814335       0.75518919       7.05791823
Si       0.65643626       5.78480102       7.05791823
Si       3.06888764       1.84278937      11.06072236
Si       3.02569198       4.69720084      11.06072236
Si       3.06888764       1.42720574       3.48146846
Si       3.02569198       5.11278448       3.48146846
Si       3.04100282       4.82984628       9.02754308
Si       3.05357679       1.71014394       9.02754308
Si       3.04100282       4.98013904       1.44828918
Si       3.05357679       1.55985117       1.44828918
Si       2.08595297      -0.01007729       2.35298220
Si       4.00862665       6.55006750       2.35298220
Si       2.08595297       3.28007239       9.93223610
Si       4.00862665       3.25991782       9.93223610
Si       3.04728981       3.26999511       2.55805903
Si       3.04728981      -0.00000000      10.13731294
22
Lattice="6.050542185973334 -1.2392527420698409e-45 -5.559798875447837e-31 8.208622898965006e-46 6.481592021516585 -4.160369427095216e-15 9.033457670448507e-31 1.223569891427164e-14 15.284088987419947" Properties=species:S:1:pos:R:3 unique_starting_index=32 config_type=initial n_minim_iter=11 stress="-0.015573931668473958 -1.9301847239941973e-15 2.732605794562906e-16 -1.9301847239941973e-15 0.015789013482591697 -3.67011829182053e-17 2.732605794562906e-16 -3.67011829182053e-17 0.02110450873631249" pbc="T T T"
Si       2.02098552       0.00705042       8.43314821
Si       4.02955667       6.47454160       8.43314821
Si       2.02098552       3.23374559       0.79110372
Si       4.02955667       3.24784643       0.79110372
Si       5.39118693       2.49319522      14.76884463
Si       0.65935525       3.98839680      14.76884463
Si       5.39118693       0.74760079       7.12680014
Si       0.65935525       5.73399123       7.12680014
Si       3.03417563       1.84551819      11.14063248
Si       3.01636656       4.63607384      11.14063248
Si       3.03417563       1.39527783       3.49858799
Si       3.01636656       5.08631420       3.49858799
Si       3.01217796       4.78951759       9.10535172
Si       3.03836423       1.69207443       9.10535172
Si       3.01217796       4.93287044       1.46330723
Si       3.03836423       1.54872158       1.46330723
Si       2.05629275      -0.01793893       2.33705110
Si       3.99424944       6.49953095       2.33705110
Si       2.05629275       3.25873494       9.97909559
Si       3.99424944       3.22285709       9.97909559
Si       3.02527109       3.24079601       2.59353163
Si       3.02527109      -0.00000000      10.23557612
22
Lattice="5.985847318880522 -1.2622017036254724e-45 -5.58004391183045e-31 7.903892875444656e-46 6.423441336100821 -3.992451222526589e-15 8.962072964969679e-31 1.2553758940073628e-14 15.354935432206933" Properties=species:S:1:pos:R:3 unique_starting_index=32 config_type=initial n_minim_iter=12 stress="-0.01994107464449474 -1.4865139714584997e-15 8.569375421464616e-16 -1.4865139714584997e-15 -0.004722601200367855 2.918685588532723e-16 8.569375421464616e-16 2.918685588532723e-16 0.008865436341729139" pbc="T T T"
Si       1.97723418       0.00147580       8.48926019
Si       4.00861314       6.42196554       8.48926019
Si       1.97723418       3.21024487       0.81179247
Si       4.00861314       3.21319647       0.81179247
Si       5.34406677       2.45647965      14.82762491
Si       0.64178055       3.96696169      14.82762491
Si       5.34406677       0.75524102       7.15015719
Si       0.64178055       5.66820031       7.15015719
Si       3.00462395       1.84374368      11.17403173
Si       2.98122337       4.57969766      11.17403173
Si       3.00462395       1.36797699       3.49656402
Si       2.98122337       5.05546435       3.49656402
Si       3.00296769       4.75611382       9.14620837
Si       2.98287963       1.66732752       9.14620837
Si       3.00296769       4.87904819       1.46874065
Si       2.98287963       1.54439315       1.46874065
Si       1.99678826      -0.00207255       2.35757280
Si       3.98905906       6.42551389       2.35757280
Si       1.99678826       3.21379322      10.03504051
Si       3.98905906       3.20964812      10.03504051
Si       2.99292366       3.21172067       2.61066908
Si       2.99292366      -0.00000000      10.28813679
22
Lattice="6.078335504450261 -1.3266879217798505e-45 -5.7449638744802475e-31 7.451444787763599e-46 6.392677703125854 -3.876106428634018e-15 8.640236101698494e-31 1.275626761275178e-14 15.349381920008348" Properties=species:S:1:pos:R:3 unique_starting_index=32 config_type=initial n_minim_iter=13 stress="0.001032433021364986 -3.0780738888661758e-15 9.336007465936602e-16 -3.0780738888661758e-15 -0.015625572927822698 -3.0673658893214996e-16 9.336007465936602e-16 -3.0673658893214996e-16 0.009609033472550554" pbc="T T T"
Si       2.01504242       0.02655454       8.50846756
Si       4.06329308       6.36612317       8.50846756
Si       2.01504242       3.16978431       0.83377660
Si       4.06329308       3.22289339       0.83377660
Si       5.39852842       2.45956015      14.84909270
Si       0.67980709       3.93311756      14.84909270
Si       5.39852842       0.73677871       7.17440174
Si       0.67980709       5.65589900       7.17440174
Si       3.03056444       1.85785696      11.15152965
Si       3.04777106       4.53482074      11.15152965
Si       3.03056444       1.33848189       3.47683869
Si       3.04777106       5.05419581       3.47683869
Si       3.03535995       4.74656904       9.12579549
Si       3.04297555       1.64610866       9.12579549
Si       3.03535995       4.84244751       1.45110453
Si       3.04297555       1.55023019       1.45110453
Si       2.03197016      -0.00218918       2.32381919
Si       4.04636534       6.39486689       2.32381919
Si       2.03197016       3.19852804       9.99851015
Si       4.04636534       3.19414967       9.99851015
Si       3.03916775       3.19633885       2.64844132
Si       3.03916775      -0.00000000      10.32313228
22
Lattice="6.0855418607126825 -1.3922264518471743e-45 -5.875971753497177e-31 6.420993872159909e-46 6.402554563041867 -4.246336906861613e-15 8.294330256619473e-31 1.1938174837751696e-14 15.342098229223247" Properties=species:S:1:pos:R:3 unique_starting_index=32 config_type=initial n_minim_iter=14 stress="-0.0032284607294140294 -3.6233013746775145e-15 1.312981199744847e-15 -3.6233013746775145e-15 -0.011780201624043456 4.596371381849524e-16 1.312981199744847e-15 4.596371381849524e-16 0.003869243613859102" pbc="T T T"
Si       2.01519210       0.00771233       8.50496665
Si       4.07034976       6.39484223       8.50496665
Si       2.01519210       3.19356495       0.83391754
Si       4.07034976       3.20898961       0.83391754
Si       5.40682075       2.46264485      14.84128160
Si       0.67872111       3.93990971      14.84128160
Si       5.40682075       0.73863243       7.17023249
Si       0.67872111       5.66392213       7.17023249
Si       3.03547704       1.86564727      11.13538421
Si       3.05006482       4.53690729      11.13538421
Si       3.03547704       1.33563001       3.46433510
Si       3.05006482       5.06692455       3.46433510
Si       3.03584739       4.75050272       9.11953734
Si       3.04969447       1.65205184       9.11953734
Si       3.03584739       4.85332912       1.44848823
Si       3.04969447       1.54922544       1.44848823
Si       2.04142012       0.00189632       2.32844877
Si       4.04412174       6.40065824       2.32844877
Si       2.04142012       3.19938096       9.99949789
Si       4.04412174       3.20317360       9.99949789
Si       3.04277093       3.20127728       2.66173931
Si       3.04277093      -0.00000000      10.33278842
22
Lattice="6.1206920071203745 -1.4196847421634947e-45 -5.9590998940766545e-31 6.044051708142503e-46 6.440468350908888 -4.481826827013332e-15 8.08232943527218e-31 1.1454095754264313e-14 15.309572525310166" Properties=species:S:1:pos:R:3 unique_starting_index=32 config_type=initial n_minim_iter=15 stress="0.006608849199410765 -2.3223649839305464e-15 8.699059754333552e-16 -2.3223649839305464e-15 0.012930150240375419 1.8623180851447447e-16 8.699059754333552e-16 1.8623180851447447e-16 0.0007804789744513824" pbc="T T T"
Si       2.01793548      -0.00480471       8.50341624
Si       4.10275653       6.44527306       8.50341624
Si       2.01793548       3.22503888       0.84862998
Si       4.10275653       3.21542947       0.84862998
Si       5.43431715       2.48939949      14.82303911
Si       0.68637486       3.95106886      14.82303911
Si       5.43431715       0.73083469       7.16825284
Si       0.68637486       5.70963366       7.16825284
Si       3.05412966       1.89476764      11.10930334
Si       3.06656235       4.54570071      11.10930334
Si       3.05412966       1.32546653       3.45451708
Si       3.06656235       5.11500182       3.45451708
Si       3.04769191       4.79102360       9.10164836
Si       3.07300010       1.64944475       9.10164836
Si       3.04769191       4.86967892       1.44686210
Si       3.07300010       1.57078943       1.44686210
Si       2.05804719      -0.00355916       2.29978056
Si       4.06264482       6.44402751       2.29978056
Si       2.05804719       3.22379333       9.95456682
Si       4.06264482       3.21667502       9.95456682
Si       3.06034600       3.22023418       2.64621399
Si       3.06034600      -0.00000000      10.30100025
22
Lattice="6.0954132835361134 -1.422889255465347e-45 -5.971784037833206e-31 5.9962234612250265e-46 6.439006929792459 -4.471636508452373e-15 8.140347156936174e-31 1.1555125009012654e-14 15.423972135188846" Properties=species:S:1:pos:R:3 unique_starting_index=32 config_type=initial n_minim_iter=16 stress="-0.010655867445113851 -2.2653641378166987e-15 3.9695037276342107e-16 -2.2653641378166987e-15 -0.0024522693091806017 4.021857860024578e-16 3.9695037276342107e-16 4.021857860024578e-16 0.0007177415534565734" pbc="T T T"
Si       2.00042281      -0.00552082       8.58551322
Si       4.09499047       6.44452775       8.58551322
Si       2.00042281       3.22502429       0.87352715
Si       4.09499047       3.21398264       0.87352715
Si       5.41167617       2.48899401      14.94207400
Si       0.68373711       3.95001292      14.94207400
Si       5.41167617       0.73050945       7.23008793
Si       0.68373711       5.70849748       7.23008793
Si       3.03952147       1.89964473      11.18145493
Si       3.05589181       4.53936220      11.18145493
Si       3.03952147       1.31985873       3.46946886
Si       3.05589181       5.11914820       3.46946886
Si       3.04665491       4.79571511       9.17740225
Si       3.04875837       1.64329182       9.17740225
Si       3.04665491       4.86279528       1.46541618
Si       3.04875837       1.57621165       1.46541618
Si       2.05653526       0.00207861       2.29125759
Si       4.03887802       6.43692832       2.29125759
Si       2.05653526       3.21742486      10.00324366
Si       4.03887802       3.22158207      10.00324366
Si       3.04770664       3.21950346       2.66998862
Si       3.04770664      -0.00000000      10.38197468
22
Lattice="6.097899997089301 -1.4426759227214042e-45 -6.1392019452919825e-31 5.988202704864035e-46 6.4307352388311685 -4.370333850449991e-15 7.74387496218498e-31 1.1795607151112587e-14 15.46492305621342" Properties=species:S:1:pos:R:3 unique_starting_index=32 config_type=initial n_minim_iter=17 stress="-0.006798056246311896 -2.353068086037821e-15 -4.4364170070534287e-17 -2.353068086037821e-15 -0.003051377895478737 1.1867493539143094e-15 -4.4364170070534287e-17 1.1867493539143094e-15 5.678344386345778e-05" pbc="T T T"
Si       1.99615765      -0.01208287       8.61568707
Si       4.10174235       6.44281811       8.61568707
Si       1.99615765       3.22745049       0.88322554
Si       4.10174235       3.20328475       0.88322554
Si       5.41369401       2.48430642      14.98695735
Si       0.68420599       3.94642882      14.98695735
Si       5.41369401       0.73106120       7.25449582
Si       0.68420599       5.69967404       7.25449582
Si       3.04517938       1.89813600      11.19940281
Si       3.05272061       4.53259924      11.19940281
Si       3.04517938       1.31723162       3.46694128
Si       3.05272061       5.11350362       3.46694128
Si       3.05628938       4.79074667       9.20258185
Si       3.04161061       1.63998857       9.20258185
Si       3.05628938       4.85535619       1.47012032
Si       3.04161061       1.57537905       1.47012032
Si       2.05154011      -0.00212302       2.29145574
Si       4.04635989       6.43285826       2.29145574
Si       2.05154011       3.21749064      10.02391727
Si       4.04635989       3.21324460      10.02391727
Si       3.04895000       3.21536762       2.68551705
Si       3.04895000      -0.00000000      10.41797858
22
Lattice="6.122627481239749 -1.4523299983091633e-45 -6.33547322571248e-31 6.279008169975855e-46 6.426228504204024 -4.165766982802432e-15 7.231485382769735e-31 1.2236740358276645e-14 15.448744891421086" Properties=species:S:1:pos:R:3 unique_starting_index=32 config_type=initial n_minim_iter=18 stress="0.004494546126990034 -2.3214994124824996e-16 3.7890392729986035e-16 -2.3214994124824996e-16 -0.0032899543117633876 8.435189655893994e-16 3.7890392729986035e-16 8.435189655893994e-16 -0.0016733455557965253" pbc="T T T"
Si       2.00235992      -0.01461171       8.61368517
Si       4.12026756       6.44084021       8.61368517
Si       2.00235992       3.22772596       0.88931272
Si       4.12026756       3.19850254       0.88931272
Si       5.43585118       2.48240560      14.97932747
Si       0.68677630       3.94382290      14.97932747
Si       5.43585118       0.73070865       7.25495503
Si       0.68677630       5.69551986       7.25495503
Si       3.05437917       1.89770004      11.18202470
Si       3.06824831       4.52852846      11.18202470
Si       3.05437917       1.31541421       3.45765226