1
Lattice="2.6152412973869255 1.9922077444271897e-16 -1.1411040549683908e-49 1.3076206486934625 2.264865400563251 -6.157822251490167e-50 5.502627947529066e-49 -2.4577503801260007e-49 2.4408531998718854" Properties=species:S:1:pos:R:3:forces:R:3 cutoff=-1.0 nneightol=1.2 n_minim_iter=1 energy=-162.8337261726745 stress="-0.014800196002404169 -5.190240111222614e-16 2.3615914009842747e-17 -5.190240111222614e-16 -0.014800196002406292 -5.2258978031681696e-17 2.3615914009842747e-17 -5.2258978031681696e-17 -0.014030372012531041" free_energy=-162.8337261726745 pbc="T T T"
Si       0.00000000       0.00000000       0.00000000      -0.00000000      -0.00000000      -0.00000000
