2
Lattice="4.43855954153137 -2.4978967553606165e-18 -8.513489200833526e-17 -2.4978967553608006e-18 4.43855954153137 2.529707791550501e-16 2.219279770765685 2.219279770765685 1.2070611956990243" Properties=species:S:1:pos:R:3 cutoff=-1.0 nneightol=1.2 n_minim_iter=1 energy=-324.89142035685364 free_energy=-324.89142035685364 pbc="T T T"
Si      -0.00000000      -1.10963988      -0.30176530
Si      -0.00000000       1.10963989       0.30176530
