2
Lattice="4.992592965413013 -4.585890582961644e-17 2.7559513061417802e-15 -4.5858905829605886e-17 4.992592965413013 -4.684062198257892e-15 2.4962964827065055 2.496296482706508 1.4464293712007883" Properties=species:S:1:pos:R:3 cutoff=-1.0 nneightol=1.2 n_minim_iter=1 energy=-325.54534045616884 free_energy=-325.54534045616884 pbc="T T T"
Si      -0.00000000      -1.24814824      -0.36160734
Si      -0.00000000       1.24814824       0.36160734
2
Lattice="4.9162708061628715 4.151894590679239e-17 2.7068880969283958e-15 4.151894590680284e-17 4.91627080616287 -4.670257618795306e-15 2.458135403081435 2.458135403081436 1.4916878698946676" Properties=species:S:1:pos:R:3 cutoff=-1.0 nneightol=1.2 n_minim_iter=2 stress="0.04315400905684638 -4.898296789649285e-17 -1.195654673923664e-16 -4.898296789649285e-17 0.04315400905684589 -1.9746538930876867e-17 -1.195654673923664e-16 -1.9746538930876867e-17 0.04420832614097847" pbc="T T T"
Si      -0.00000000      -1.22906770      -0.37292197
Si      -0.00000000       1.22906770       0.37292197
