2
Lattice="4.964970164698244 1.0740369039187647e-17 1.8342080235782666e-16 1.0740369039187553e-17 4.964970164698244 -2.0727669873837972e-16 2.482485082349122 2.482485082349122 1.369213225150026" Properties=species:S:1:pos:R:3 cutoff=-1.0 nneightol=1.2 n_minim_iter=1 stress="0.03953353210239248 1.3874875705196482e-17 2.1227917866491326e-16 1.3874875705196482e-17 0.039533532102392265 1.311872870918129e-16 2.1227917866491326e-16 1.311872870918129e-16 0.03132447598209484" pbc="T T T"
Si      -0.00000000      -1.24124254      -0.34230331
Si      -0.00000000       1.24124254       0.34230331
