2
Lattice="2.834776938455097 -2.951086062486816e-17 2.834776938455097 2.834776938455097 2.834776938455097 9.051623487750426e-17 5.006635154205557e-17 2.834776938455097 2.834776938455097" Properties=species:S:1:pos:R:3:forces:R:3 n_minim_iter=1 energy=-326.225011438251 stress="0.04790039031072176 1.2761980867800974e-16 1.5793793762811331e-16 1.2761980867800974e-16 0.04790039031072163 4.931122288808161e-19 1.5793793762811331e-16 4.931122288808161e-19 0.047900390310721554" free_energy=-326.225011438251 pbc="T T T"
Si       0.00000000      -0.00000000      -0.00000000       0.00000000       0.00000000       0.00000000
Si       1.41738847       1.41738847       1.41738847      -0.00000000      -0.00000000      -0.00000000
