2
Lattice="2.5492826581279546 -2.6538781304749634e-17 2.5492826581279546 2.5492826581279546 2.5492826581279546 8.140022049777712e-17 4.5024100489352074e-17 2.5492826581279546 2.5492826581279546" Properties=species:S:1:pos:R:3:forces:R:3 n_minim_iter=1 energy=-325.9602783995743 stress="-0.1405136830108605 -5.568746020309003e-17 9.616385896603593e-16 -5.568746020309003e-17 -0.14051368301086054 2.753015321529535e-16 9.616385896603593e-16 2.753015321529535e-16 -0.14051368301086048" free_energy=-325.9602783995743 pbc="T T T"
Si      -0.00000000      -0.00000000      -0.00000000       0.00000000       0.00000000      -0.00000000
Si       1.27464133       1.27464133       1.27464133      -0.00000000      -0.00000000       0.00000000
