2
Lattice="2.877093280711214 -2.9951386177878714e-17 2.877093280711214 2.877093280711214 2.877093280711214 9.186742266334078e-17 5.081372070490875e-17 2.877093280711214 2.877093280711214" Properties=species:S:1:pos:R:3:forces:R:3 n_minim_iter=1 energy=-326.1719454221937 stress="0.05441517536601725 -1.4718875509517793e-16 1.5813139961432606e-16 -1.4718875509517793e-16 0.05441517536601743 2.3081788414705305e-17 1.5813139961432606e-16 2.3081788414705305e-17 0.05441517536601742" free_energy=-326.1719454221937 pbc="T T T"
Si       0.00000000      -0.00000000      -0.00000000       0.00000000       0.00000000       0.00000000
Si       1.43854664       1.43854664       1.43854664      -0.00000000      -0.00000000      -0.00000000
