2
Lattice="2.627562132147634 5.043330647250904e-17 2.627562132147634 2.627562132147634 2.627562132147634 7.914788270976456e-17 6.423426051121547e-17 2.627562132147634 2.627562132147634" Properties=species:S:1:pos:R:3:forces:R:3 n_minim_iter=1 energy=-326.191860688196 stress="-0.08153030483572513 -3.6046634803174336e-16 2.0333900003800305e-16 -3.6046634803174336e-16 -0.08153030483572518 -5.094378166503149e-16 2.0333900003800305e-16 -5.094378166503149e-16 -0.08153030483572515" free_energy=-326.191860688196 pbc="T T T"
Si       0.00000000      -0.00000000      -0.00000000      -0.00000000       0.00000000      -0.00000000
Si       1.31378107       1.31378107       1.31378107       0.00000000      -0.00000000       0.00000000
