2
Lattice="2.959286282065155 5.680040451842614e-17 2.959286282065155 2.959286282065155 2.959286282065155 8.914013514347152e-17 7.234369975261887e-17 2.959286282065155 2.959286282065155" Properties=species:S:1:pos:R:3:forces:R:3 n_minim_iter=1 energy=-325.8212360316055 stress="0.07962815025130754 -1.0818779462327854e-16 9.106644130418318e-17 -1.0818779462327854e-16 0.0796281502513076 4.695399850360289e-17 9.106644130418318e-17 4.695399850360289e-17 0.0796281502513076" free_energy=-325.8212360316055 pbc="T T T"
Si       0.00000000      -0.00000000      -0.00000000       0.00000000       0.00000000      -0.00000000
Si       1.47964314       1.47964314       1.47964314      -0.00000000      -0.00000000       0.00000000
