2
Lattice="2.67668678131902 5.137620272478146e-17 2.67668678131902 2.67668678131902 2.67668678131902 8.062762392052604e-17 6.543517807422575e-17 2.67668678131902 2.67668678131902" Properties=species:S:1:pos:R:3:forces:R:3 n_minim_iter=1 energy=-326.3425716014809 stress="-0.019406789317976104 -2.487885927024801e-16 2.1577613517038938e-16 -2.487885927024801e-16 -0.019406789317975986 -2.103318301645807e-17 2.1577613517038938e-16 -2.103318301645807e-17 -0.019406789317976087" free_energy=-326.3425716014809 pbc="T T T"
Si      -0.00000000      -0.00000000      -0.00000000      -0.00000000       0.00000000      -0.00000000
Si       1.33834339       1.33834339       1.33834339       0.00000000      -0.00000000       0.00000000
