2
Lattice="2.81418815896181 5.40153978304679e-17 2.81418815896181 2.81418815896181 2.81418815896181 8.476946428919032e-17 6.879658262641382e-17 2.81418815896181 2.81418815896181" Properties=species:S:1:pos:R:3:forces:R:3 n_minim_iter=1 energy=-326.3075666945787 stress="0.03134027539180161 -1.3761960281604778e-16 1.2656086646638077e-16 -1.3761960281604778e-16 0.0313402753918017 -1.9884102686923328e-17 1.2656086646638077e-16 -1.9884102686923328e-17 0.03134027539180174" free_energy=-326.3075666945787 pbc="T T T"
Si       0.00000000      -0.00000000      -0.00000000      -0.00000000       0.00000000       0.00000000
Si       1.40709408       1.40709408       1.40709408       0.00000000      -0.00000000      -0.00000000
