2
Lattice="4.600117568924361 2.7326509436743205e-17 1.1870297843417423e-16 2.7326509436742958e-17 4.600117568924361 -2.41862926098106e-16 2.3000587844621805 2.3000587844621805 1.2686073181669184" Properties=species:S:1:pos:R:3:forces:R:3 cutoff=-1.0 nneightol=1.2 n_minim_iter=1 energy=-325.5835822716276 stress="-0.09430907628747101 9.693857191767648e-17 -1.0162897846915736e-18 9.693857191767648e-17 -0.09430907628747044 -6.577687379978627e-17 -1.0162897846915736e-18 -6.577687379978627e-17 -0.08414051695718865" free_energy=-325.5835822716276 pbc="T T T"
Si      -0.00000000      -1.15002939      -0.31715183       0.00000000       0.00000000       0.00000000
Si      -0.00000000       1.15002939       0.31715183      -0.00000000      -0.00000000      -0.00000000
