4
Lattice="2.0665161887374692 -3.5793110335568925 -8.440449977981977e-18 2.0665161887374697 3.5793110335568925 8.440449977981965e-18 1.7892953012625347e-32 -1.6169197936340826e-17 6.856813170895339" Properties=species:S:1:pos:R:3:forces:R:3 cutoff=-1.0 nneightol=1.2 n_minim_iter=1 energy=-651.7862493399164 stress="0.07121155666222581 2.2706477924232816e-17 -1.3725060790167427e-17 2.2706477924232816e-17 0.0712115566622258 1.3535338021096061e-18 -1.3725060790167427e-17 1.3535338021096061e-18 0.07062663877201415" free_energy=-651.7862493399164 pbc="T T T"
Si       2.06651619       1.19310368       0.44351794       0.00000000       0.00000000       0.02802296
Si       2.06651619      -1.19310368       3.87192453      -0.00000000      -0.00000000       0.02802296
Si       2.06651619       1.19310368       2.98488864       0.00000000       0.00000000      -0.02802296
Si       2.06651619      -1.19310368      -0.44351794      -0.00000000      -0.00000000      -0.02802296
4
Lattice="2.065178004864627 -3.5769932310992623 -8.568822203104791e-18 2.0651780048646273 3.5769932310992623 8.568822203104777e-18 2.0172852915332594e-32 -1.593366801490162e-17 6.86570213793614" Properties=species:S:1:pos:R:3:forces:R:3 cutoff=-1.0 nneightol=1.2 n_minim_iter=2 energy=-651.7863391551983 stress="0.07073066278657181 4.541295584846563e-18 -3.701224143519706e-17 4.541295584846563e-18 0.07073066278657193 -7.712860861339117e-18 -3.701224143519706e-17 -7.712860861339117e-18 0.07127322053006829" free_energy=-651.7863391551983 pbc="T T T"
Si       2.06517800       1.19233108       0.44501193      -0.00000000       0.00000000       0.01931690
Si       2.06517800      -1.19233108       3.87786300       0.00000000      -0.00000000       0.01931690
Si       2.06517800       1.19233108       2.98783913      -0.00000000       0.00000000      -0.01931690
Si       2.06517800      -1.19233108      -0.44501193       0.00000000      -0.00000000      -0.01931690
4
Lattice="2.065526306499313 -3.577596507226899 -8.139953603601357e-18 2.0655263064993132 3.577596507226899 8.13995360360134e-18 2.2346258347944735e-32 -1.6752486087292616e-17 6.863386860082137" Properties=species:S:1:pos:R:3:forces:R:3 cutoff=-1.0 nneightol=1.2 n_minim_iter=3 energy=-651.7863907110597 stress="0.07087693309286063 -7.266072935754501e-17 -3.903843130383098e-17 -7.266072935754501e-17 0.07087693309286101 -5.890895731663132e-18 -3.903843130383098e-17 -5.890895731663132e-18 0.07087546189275495" free_energy=-651.7863907110597 pbc="T T T"
Si       2.06552631       1.19253217       0.44595669      -0.00000000       0.00000000      -0.00003591
Si       2.06552631      -1.19253217       3.87765012       0.00000000       0.00000000      -0.00003591
Si       2.06552631       1.19253217       2.98573674      -0.00000000      -0.00000000       0.00003591
Si       2.06552631      -1.19253217      -0.44595669       0.00000000      -0.00000000       0.00003591
