4
Lattice="1.8214101217777197 -3.1547748723392255 -7.455413841105791e-18 1.8214101217777188 3.1547748723392255 7.45541384110579e-18 1.129397479291795e-33 -1.4047606328745308e-17 6.001963656368979" Properties=species:S:1:pos:R:3:forces:R:3 cutoff=-1.0 nneightol=1.2 n_minim_iter=3 energy=-652.2304262348026 stress="-0.09729039512870878 -7.992680229329951e-16 -7.925727968135759e-17 -7.992680229329951e-16 -0.09729039512871165 -8.57775310398337e-17 -7.925727968135759e-17 -8.57775310398337e-17 -0.09731451660136127" free_energy=-652.2304262348026 pbc="T T T"
Si       1.82141012       1.05159162       0.37949146      -0.00000000       0.00000000      -0.00039353
Si       1.82141012      -1.05159162       3.38047329       0.00000000      -0.00000000      -0.00039353
Si       1.82141012       1.05159162       2.62149036      -0.00000000       0.00000000       0.00039353
Si       1.82141012      -1.05159162      -0.37949146       0.00000000      -0.00000000       0.00039353
