4
Lattice="1.9704906275134686 -3.412989882691606 -7.798004042164898e-18 1.970490627513468 3.412989882691606 7.798004042164883e-18 2.097987718554939e-32 -1.4650405284890505e-17 6.485592296441779" Properties=species:S:1:pos:R:3:forces:R:3 cutoff=-1.0 nneightol=1.2 n_minim_iter=3 energy=-652.5495409698326 stress="0.03104486583652118 -1.0444979845147095e-16 2.0184995248197432e-17 -1.0444979845147095e-16 0.03104486583652102 -5.117767163592304e-17 2.0184995248197432e-17 -5.117767163592304e-17 0.0307967533633141" free_energy=-652.5495409698326 pbc="T T T"
Si       1.97049063       1.13766329       0.40915966      -0.00000000       0.00000000       0.00285878
Si       1.97049063      -1.13766329       3.65195580       0.00000000       0.00000000       0.00285878
Si       1.97049063       1.13766329       2.83363649      -0.00000000      -0.00000000      -0.00285878
Si       1.97049063      -1.13766329      -0.40915966       0.00000000      -0.00000000      -0.00285878
