4
Lattice="1.8574568816395662 -3.21720969186818 -7.539130883925659e-18 1.8574568816395662 3.21720969186818 7.539130883925659e-18 -2.7116729367941076e-34 -1.4309617767986736e-17 6.110756162384114" Properties=species:S:1:pos:R:3:forces:R:3 cutoff=-1.0 nneightol=1.2 n_minim_iter=2 energy=-652.5181908675493 stress="-0.0471997465783427 -1.589453454696297e-16 8.453778597172103e-17 -1.589453454696297e-16 -0.047199746578343284 -9.730122477392891e-17 8.453778597172103e-17 -9.730122477392891e-17 -0.0477574117070906" free_energy=-652.5181908675493 pbc="T T T"
Si       1.85745688       1.07240323       0.38260909      -0.00000000       0.00000000       0.00258096
Si       1.85745688      -1.07240323       3.43798717       0.00000000      -0.00000000       0.00258096
Si       1.85745688       1.07240323       2.67276899      -0.00000000       0.00000000      -0.00258096
Si       1.85745688      -1.07240323      -0.38260909       0.00000000      -0.00000000      -0.00258096
