4
Lattice="2.0536772533465855 -3.557073345144788 -8.324192009238376e-18 2.053677253346584 3.557073345144788 8.324192009238372e-18 7.205860824595084e-33 -1.5888066438283088e-17 6.803958091116797" Properties=species:S:1:pos:R:3:forces:R:3 cutoff=-1.0 nneightol=1.2 n_minim_iter=3 energy=-652.0576369895414 stress="0.062413926506714325 -2.7247773509079377e-17 -2.2521353714597322e-17 -2.7247773509079377e-17 0.062413926506714935 -1.6279921112763112e-17 -2.2521353714597322e-17 -1.6279921112763112e-17 0.06301572668538025" free_energy=-652.0576369895414 pbc="T T T"
Si       2.05367725       1.18569112       0.43791915      -0.00000000       0.00000000       0.00931856
Si       2.05367725      -1.18569112       3.83989820       0.00000000       0.00000000       0.00931856
Si       2.05367725       1.18569112       2.96405990      -0.00000000      -0.00000000      -0.00931856
Si       2.05367725      -1.18569112      -0.43791915       0.00000000      -0.00000000      -0.00931856
