4
Lattice="1.7655219023753288 -3.0579736367897277 -2.98742072775943e-18 1.7655219023753288 3.0579736367897277 2.9874207277593536e-18 -7.077172529169937e-32 -2.3737557092057316e-17 5.824322443800354" Properties=species:S:1:pos:R:3:forces:R:3 cutoff=-1.0 nneightol=1.2 n_minim_iter=3 energy=-650.8715264536318 stress="-0.24892704206894384 -3.2697328210895254e-16 -3.3192698923148407e-16 -3.2697328210895254e-16 -0.24892704206894467 -1.9378001062910613e-16 -3.3192698923148407e-16 -1.9378001062910613e-16 -0.2489692541606659" free_energy=-650.8715264536318 pbc="T T T"
Si       1.76552190       1.01932455       0.37805718       0.00000000       0.00000000       0.00113157
Si       1.76552190      -1.01932455       3.29021840       0.00000000       0.00000000       0.00113157
Si       1.76552190       1.01932455       2.53410404      -0.00000000      -0.00000000      -0.00113157
Si       1.76552190      -1.01932455      -0.37805718      -0.00000000      -0.00000000      -0.00113157
