4
Lattice="1.8742467266999423 -3.2462905565639595 -7.604574934507887e-18 1.8742467266999423 3.2462905565639595 7.604574934507887e-18 0.0 -1.4449928326235875e-17 6.16847966815665" Properties=species:S:1:pos:R:3:forces:R:3 cutoff=-1.0 nneightol=1.2 n_minim_iter=1 energy=-652.5948591435273 stress="-0.028840599051385623 5.2224899225735475e-17 -5.4383416512810166e-17 5.2224899225735475e-17 -0.028840599051385564 -2.601153507339216e-16 -5.4383416512810166e-17 -2.601153507339216e-16 -0.02845044182410713" free_energy=-652.5948591435273 pbc="T T T"
Si       1.87424673       1.08209685       0.38600779       0.00000000       0.00000000      -0.00288758
Si       1.87424673      -1.08209685       3.47024762      -0.00000000       0.00000000      -0.00288758
Si       1.87424673       1.08209685       2.69823204       0.00000000      -0.00000000       0.00288758
Si       1.87424673      -1.08209685      -0.38600779      -0.00000000      -0.00000000       0.00288758
