4
Lattice="1.890981957976837 -3.2752768274119557 -7.672476517836535e-18 1.890981957976837 3.2752768274119557 7.672476517836535e-18 -1.0678529878042334e-33 -1.4602869503921347e-17 6.223558293826804" Properties=species:S:1:pos:R:3:forces:R:3 cutoff=-1.0 nneightol=1.2 n_minim_iter=2 energy=-652.6367391613817 stress="-0.013232330614681176 -6.925475766891008e-17 -1.8826836074615265e-17 -6.925475766891008e-17 -0.01323233061468168 -5.624719877442574e-17 -1.8826836074615265e-17 -5.624719877442574e-17 -0.012671175165240346" free_energy=-652.6367391613817 pbc="T T T"
Si       1.89098196       1.09175894       0.38945447       0.00000000       0.00000000      -0.00294424
Si       1.89098196      -1.09175894       3.50123362       0.00000000       0.00000000      -0.00294424
Si       1.89098196       1.09175894       2.72232468      -0.00000000       0.00000000       0.00294424
Si       1.89098196      -1.09175894      -0.38945447      -0.00000000      -0.00000000       0.00294424
