4
Lattice="1.9999194021007949 -3.463962015481345 -7.987500671498255e-18 1.9999194021007949 3.463962015481345 7.987500671498241e-18 2.525434138982498e-32 -1.4915740090956335e-17 6.588968965407058" Properties=species:S:1:pos:R:3:forces:R:3 cutoff=-1.0 nneightol=1.2 n_minim_iter=2 energy=-652.4783999183304 stress="0.03903865707034545 1.5440404988478313e-16 -4.077362132480384e-17 1.5440404988478313e-16 0.03903865707034433 1.3860934372562598e-17 -4.077362132480384e-17 1.3860934372562598e-17 0.038984140812230346" free_energy=-652.4783999183304 pbc="T T T"
Si       1.99991940       1.15465401       0.41743670       0.00000000       0.00000000      -0.00057516
Si       1.99991940      -1.15465401       3.71192118      -0.00000000      -0.00000000      -0.00057516
Si       1.99991940       1.15465401       2.87704778      -0.00000000       0.00000000       0.00057516
Si       1.99991940      -1.15465401      -0.41743670      -0.00000000      -0.00000000       0.00057516
