2
Lattice="4.769500982058436 -2.1700990675791013e-17 1.532874934603293e-16 -2.170099067579111e-17 4.769500982058437 -2.4957905424715974e-16 2.384750491029218 2.3847504910292185 1.3152300459996817" Properties=species:S:1:pos:R:3:forces:R:3 cutoff=-1.0 nneightol=1.2 n_minim_iter=1 energy=-325.7130301557221 stress="-0.0016293051172819536 -1.588621763498082e-17 4.0019382745651583e-17 -1.588621763498082e-17 -0.0016293051172817337 5.822656837424452e-17 4.0019382745651583e-17 5.822656837424452e-17 -0.002071963621155768" free_energy=-325.7130301557221 pbc="T T T"
Si      -0.00000000      -1.19237524      -0.32880751      -0.00000000       0.00000000       0.00000000
Si      -0.00000000       1.19237525       0.32880751       0.00000000      -0.00000000      -0.00000000
