2
Lattice="4.600525281595533 -2.0932159698719267e-17 1.478567656594339e-16 -2.0932159698719267e-17 4.600525281595533 -2.4073687229333976e-16 2.3002626407977664 2.3002626407977664 1.2686335741405363" Properties=species:S:1:pos:R:3:forces:R:3 cutoff=-1.0 nneightol=1.2 n_minim_iter=1 energy=-325.58390826197876 stress="-0.09396295825053336 8.914598550592604e-18 -3.3542030375049326e-17 8.914598550592604e-18 -0.09396295825053361 -1.3756754333875878e-16 -3.3542030375049326e-17 -1.3756754333875878e-16 -0.08400044366503029" free_energy=-325.58390826197876 pbc="T T T"
Si      -0.00000000      -1.15013132      -0.31715839      -0.00000000      -0.00000000      -0.00000000
Si      -0.00000000       1.15013132       0.31715839      -0.00000000       0.00000000       0.00000000
