2
Lattice="4.686536260250394 -2.1323505345323832e-17 1.5062108154440168e-16 -2.1323505345323856e-17 4.686536260250394 -2.4523766572818847e-16 2.343268130125197 2.343268130125197 1.292351825554731" Properties=species:S:1:pos:R:3:forces:R:3 cutoff=-1.0 nneightol=1.2 n_minim_iter=1 energy=-325.6428276073635 stress="-0.06570045391886307 1.3284076904201191e-17 4.400768056668257e-18 1.3284076904201191e-17 -0.06570045391886334 -8.250672592548238e-17 4.400768056668257e-18 -8.250672592548238e-17 -0.05954191374765313" free_energy=-325.6428276073635 pbc="T T T"
Si      -0.00000000      -1.17163406      -0.32308796      -0.00000000      -0.00000000       0.00000000
Si      -0.00000000       1.17163407       0.32308796      -0.00000000       0.00000000      -0.00000000
