2
Lattice="5.181331847324193 -2.3574800493789683e-17 1.6652336893318472e-16 -2.357480049378954e-17 5.181331847324193 -2.7112939216499734e-16 2.5906659236620966 2.5906659236620966 1.4287958739353759" Properties=species:S:1:pos:R:3:forces:R:3 cutoff=-1.0 nneightol=1.2 n_minim_iter=1 energy=-325.3672561203206 stress="0.08891449490126485 -2.4608471782282945e-17 -6.6452858675281246e-18 -2.4608471782282945e-17 0.08891449490126502 5.353146948842101e-17 -6.6452858675281246e-18 5.353146948842101e-17 0.08229175390671978" free_energy=-325.3672561203206 pbc="T T T"
Si      -0.00000000      -1.29533296      -0.35719897       0.00000000       0.00000000      -0.00000000
Si      -0.00000000       1.29533296       0.35719897      -0.00000000      -0.00000000       0.00000000
