2
Lattice="4.926972783970129 2.2401280625216658e-17 1.1287130108754367e-16 2.24012806252163e-17 4.926972783970129 -3.0706230375553636e-16 2.4634863919850645 2.4634863919850645 1.3589514892176942" Properties=species:S:1:pos:R:3 cutoff=-1.0 nneightol=1.2 n_minim_iter=1 energy=-325.6684514389521 free_energy=-325.6684514389521 pbc="T T T"
Si      -0.00000000      -1.23174319      -0.33973787
Si      -0.00000000       1.23174320       0.33973787
