2
Lattice="4.769200129823246 2.1683941671766758e-17 1.0925691035911668e-16 2.168394167176627e-17 4.769200129823246 -2.972294841366446e-16 2.384600064911623 2.384600064911623 1.3154348324973042" Properties=species:S:1:pos:R:3 cutoff=-1.0 nneightol=1.2 n_minim_iter=1 energy=-325.7052552153939 free_energy=-325.7052552153939 pbc="T T T"
Si      -0.00000000      -1.19230003      -0.32885871
Si      -0.00000000       1.19230003       0.32885871
