2
Lattice="4.769200129823246 2.168394167176675e-17 1.0925691035911664e-16 2.168394167176627e-17 4.769200129823246 -2.972294841366446e-16 2.384600064911623 2.384600064911623 1.3154348324973035" Properties=species:S:1:pos:R:3 cutoff=-1.0 nneightol=1.2 n_minim_iter=1 stress="-0.0019584529633644614 -2.5575355315673535e-16 2.435787090114942e-16 -2.5575355315673535e-16 -0.0019584529633639896 -5.718349923648319e-16 2.435787090114942e-16 -5.718349923648319e-16 -0.002001143630805189" pbc="T T T"
Si      -0.00000000      -1.19230003      -0.32885871
Si      -0.00000000       1.19230003       0.32885871
