2
Lattice="4.577145924897763 1.2162574775607249e-17 -1.8180156616270656e-16 1.2162574775606385e-17 4.577145924897764 2.3430924829097643e-16 2.2885729624488813 2.288572962448882 1.2450455058631793" Properties=species:S:1:pos:R:3 cutoff=-1.0 nneightol=1.2 n_minim_iter=2 stress="-0.11998214204180196 -2.9112961055367177e-16 -2.8952912829863125e-17 -2.9112961055367177e-16 -0.1199821420417992 1.7208523022342217e-16 -2.8952912829863125e-17 1.7208523022342217e-16 -0.12001284283861681" pbc="T T T"
Si      -0.00000000      -1.14428648      -0.31126138
Si      -0.00000000       1.14428648       0.31126138
