2
Lattice="5.031696335238664 -6.166823987703215e-17 2.6435232814807608e-15 -6.166823987701393e-17 5.031696335238664 -4.495619550177184e-15 2.5158481676193305 2.5158481676193327 1.515084943979959" Properties=species:S:1:pos:R:3 cutoff=-1.0 nneightol=1.2 n_minim_iter=1 stress="0.056362622165954675 2.0326502216945314e-16 -1.3719010164693735e-17 2.0326502216945314e-16 0.05636262216595621 -1.9429125824772185e-16 -1.3719010164693735e-17 -1.9429125824772185e-16 0.04379986660795565" pbc="T T T"
Si      -0.00000000      -1.25792408      -0.37877124
Si      -0.00000000       1.25792409       0.37877124
