2
Lattice="5.031696335238664 -6.166823987703217e-17 2.643523281480761e-15 -6.166823987700926e-17 5.031696335238664 -4.495619550177184e-15 2.515848167619331 2.5158481676193327 1.5150849439799587" Properties=species:S:1:pos:R:3 cutoff=-1.0 nneightol=1.2 n_minim_iter=1 stress="0.0617022763036968 -1.2020809333553594e-16 -1.352955005547318e-16 -1.2020809333553594e-16 0.06170227630369685 1.6312300265405894e-16 -1.352955005547318e-16 1.6312300265405894e-16 0.04792334441920662" pbc="T T T"
Si      -0.00000000      -1.25792408      -0.37877124
Si      -0.00000000       1.25792409       0.37877124
