2
Lattice="5.002488648692625 2.0443252861958395e-19 7.433834923473302e-17 2.0443252861869735e-19 5.002488648692625 -3.180383944556169e-16 2.5012443243463127 2.5012443243463127 1.3791509271449756" Properties=species:S:1:pos:R:3 cutoff=-1.0 nneightol=1.2 n_minim_iter=1 energy=-325.5950112562482 free_energy=-325.5950112562482 pbc="T T T"
Si      -0.00000000      -1.25062216      -0.34478773
Si      -0.00000000       1.25062216       0.34478773
