2
Lattice="4.76947023616921 1.9490995962792968e-19 7.087563190646568e-17 1.9490995962709638e-19 4.76947023616921 -3.032240076569758e-16 2.384735118084605 2.384735118084605 1.3149093901336908" Properties=species:S:1:pos:R:3 cutoff=-1.0 nneightol=1.2 n_minim_iter=1 energy=-325.7047806623857 free_energy=-325.7047806623857 pbc="T T T"
Si      -0.00000000      -1.19236756      -0.32872735
Si      -0.00000000       1.19236756       0.32872735
