2
Lattice="4.92725182585957 2.013578881721374e-19 7.322030947415566e-17 2.013578881712836e-19 4.92725182585957 -3.1325513555826387e-16 2.463625912929785 2.463625912929785 1.3584086643928617" Properties=species:S:1:pos:R:3 cutoff=-1.0 nneightol=1.2 n_minim_iter=1 energy=-325.666748410919 free_energy=-325.666748410919 pbc="T T T"
Si      -0.00000000      -1.23181296      -0.33960217
Si      -0.00000000       1.23181296       0.33960217
