2
Lattice="5.0024886486926246 2.0443252861957074e-19 7.4338349234733e-17 2.044325286186973e-19 5.0024886486926246 -3.1803839445561683e-16 2.5012443243463123 2.5012443243463123 1.3791509271449751" Properties=species:S:1:pos:R:3 cutoff=-1.0 nneightol=1.2 n_minim_iter=1 stress="0.04995124341449726 2.789355717030973e-16 7.595844432399541e-17 2.789355717030973e-16 0.04995124341449721 -2.9007442001973256e-16 7.595844432399541e-17 -2.9007442001973256e-16 0.04186637901882777" pbc="T T T"
Si      -0.00000000      -1.25062216      -0.34478773
Si      -0.00000000       1.25062216       0.34478773
