2
Lattice="4.965155252508043 2.0290685587546614e-19 7.378356475872761e-17 2.0290685587460578e-19 4.965155252508043 -3.156648851453613e-16 2.4825776262540216 2.4825776262540216 1.3688583724632388" Properties=species:S:1:pos:R:3 cutoff=-1.0 nneightol=1.2 n_minim_iter=1 stress="0.0398442793782161 -4.431264752011963e-17 1.4092450108054164e-16 -4.431264752011963e-17 0.03984427937821516 1.7889128452896593e-16 1.4092450108054164e-16 1.7889128452896593e-16 0.03613820589028482" pbc="T T T"
Si      -0.00000000      -1.24128881      -0.34221459
Si      -0.00000000       1.24128881       0.34221459
