2
Lattice="5.042134095756842 -1.4821826910017804e-17 2.0996692099400152e-15 -1.4821826910008433e-17 5.0421340957568415 -4.276874677712247e-15 2.5210670478784207 2.521067047878422 1.5083868125054773" Properties=species:S:1:pos:R:3 cutoff=-1.0 nneightol=1.2 n_minim_iter=2 stress="0.03602951618316088 -8.600315632933748e-17 1.7506688406598526e-16 -8.600315632933748e-17 0.03602951618316055 3.939474112787321e-16 1.7506688406598526e-16 3.939474112787321e-16 0.037197509074274715" pbc="T T T"
Si      -0.00000000      -1.26053352      -0.37709670
Si      -0.00000000       1.26053353       0.37709670
