2
Lattice="4.4883470843627515 -1.0070262877266365e-17 -2.301349011957346e-16 -1.007026287726688e-17 4.4883470843627515 3.2115476806392686e-16 2.2441735421813758 2.2441735421813758 1.2182842137796261" Properties=species:S:1:pos:R:3 cutoff=-1.0 nneightol=1.2 n_minim_iter=1 stress="-0.19773652844774087 -6.671894574989245e-16 -4.725346856949521e-16 -6.671894574989245e-16 -0.19773652844774042 1.0836337325419111e-15 -4.725346856949521e-16 1.0836337325419111e-15 -0.18897824453887782" pbc="T T T"
Si      -0.00000000      -1.12208677      -0.30457105
Si      -0.00000000       1.12208677       0.30457105
