1
Lattice="2.514342042472159 7.024716266812369e-17 -1.8686219003064976e-51 1.2571710212360796 2.177484082584142 -1.8140732375268685e-50 7.930977102017098e-51 3.984002428888296e-49 2.3670478342316836" Properties=species:S:1:pos:R:3:forces:R:3 cutoff=-1.0 nneightol=1.2 n_minim_iter=1 energy=-162.70067018644218 stress="-0.1405370423022472 2.1417257476960902e-18 1.2080671795598259e-17 2.1417257476960902e-18 -0.1405370423022466 -1.9610176377342326e-17 1.2080671795598259e-17 -1.9610176377342326e-17 -0.1466066660693402" free_energy=-162.70067018644218 pbc="T T T"
Si       0.00000000       0.00000000       0.00000000      -0.00000000       0.00000000       0.00000000
