1
Lattice="2.7960968022238446 8.477316090347616e-17 3.02756187341936e-52 1.398048401111922 2.4214908621662823 -3.25689956527033e-50 -3.063393256421901e-51 4.5876051829491764e-49 2.58958552016263" Properties=species:S:1:pos:R:3:forces:R:3 cutoff=-1.0 nneightol=1.2 n_minim_iter=1 energy=-162.7404773748728 stress="0.07206361858901518 -4.6698933150851694e-17 1.1872610123097889e-18 -4.6698933150851694e-17 0.07206361858901551 -0.0 1.1872610123097889e-18 -0.0 0.07615134391145881" free_energy=-162.7404773748728 pbc="T T T"
Si       0.00000000       0.00000000       0.00000000       0.00000000      -0.00000000      -0.00000000
