1
Lattice="2.816213298204329 8.538306072855067e-17 3.0493436429950304e-52 1.4081066491021643 2.438912258720509 -3.280331303027583e-50 -3.085432814594723e-51 4.620610671582276e-49 2.6082162723833826" Properties=species:S:1:pos:R:3:forces:R:3 cutoff=-1.0 nneightol=1.2 n_minim_iter=1 energy=-162.7404773748728 stress="0.07206361858901518 -4.6698933150851694e-17 1.1872610123097889e-18 -4.6698933150851694e-17 0.07206361858901551 -0.0 1.1872610123097889e-18 -0.0 0.07615134391145881" free_energy=-162.7404773748728 pbc="T T T"
Si       0.00000000       0.00000000       0.00000000       0.00000000      -0.00000000      -0.00000000
