1
Lattice="2.796096802223844 8.477316090347615e-17 3.02756187341936e-52 1.398048401111922 2.4214908621662823 -3.25689956527033e-50 -2.5026022006496027e-51 3.8877701565876215e-49 2.5895855201626303" Properties=species:S:1:pos:R:3:forces:R:3 cutoff=-1.0 nneightol=1.2 n_minim_iter=1 energy=-162.7666805238029 stress="0.06298398888821696 -1.3350090493972294e-17 -4.045481967870392e-19 -1.3350090493972294e-17 0.06298398888821699 -8.090963935740784e-19 -4.045481967870392e-19 -8.090963935740784e-19 0.06577235762688839" free_energy=-162.7666805238029 pbc="T T T"
Si       0.00000000       0.00000000       0.00000000       0.00000000       0.00000000       0.00000000
