1
Lattice="2.8360464396655725 8.598436970003487e-17 3.0708186015409714e-52 1.4180232198327865 2.456088263062797 -3.303432988831772e-50 -3.6759653696950684e-51 5.362985275986814e-49 2.626584597795624" Properties=species:S:1:pos:R:3:forces:R:3 cutoff=-1.0 nneightol=1.2 n_minim_iter=1 energy=-162.71084158327898 stress="0.07986291490006377 -3.176133715200369e-17 2.324000279414904e-18 -3.176133715200369e-17 0.07986291490006366 -0.0 2.324000279414904e-18 -0.0 0.08589880233448224" free_energy=-162.71084158327898 pbc="T T T"
Si       0.00000000       0.00000000       0.00000000      -0.00000000       0.00000000       0.00000000
