16
Lattice="2.7444430260271147 -2.7444430260271147 0.0 2.7444430260271147 2.7444430260271147 0.0 0.0 0.0 31.65665069823853" Properties=species:S:1:pos:R:3:travel:I:3:map_shift:I:3:n_neighb:I:1:orig_index:I:1:forces:R:3 cutoff=2.0 nneightol=1.2 supercell_a1_in_bulk_lattice_coords="1 0 -1" bulk_struct_test=bulk_Si_diamond n_minim_iter=0 pbc="T T T"
Si       0.00000000       0.00000000       0.00489447        0        0        0        0        0        0       29        1      -0.00000000      -0.00000000       0.00544000
Si       1.37222151       1.37222151       1.36732704        0        0        0       -1        0        0       29        2       0.00000000      -0.00000000      -0.00544000
Si       0.00000000       2.74444303       2.72879856        0        0        0       -1        0        0       29        3      -0.00000000       0.00000000       0.00125111
Si      -1.37222151       1.37222151       4.09135973        1        0        0        0        0        0       29        4      -0.00000000       0.00000000      -0.00374288
Si      -0.00000000       0.00000000       5.45230566        1       -1        0        0        0        0       29        5       0.00000000      -0.00000000      -0.00571233
Si       1.37222151       1.37222151       6.83353076        1       -1        0        0        0        0       29        6       0.00000000      -0.00000000      -0.00508664
Si       0.00000000       2.74444303       8.20242675        1       -1        0        0        0        0       29        7      -0.00000000       0.00000000       0.00234657
Si      -1.37222151       1.37222151       9.61976292        2       -1        0        0        0        0       29        8       0.00000000       0.00000000      -0.00025437
Si       0.00000000       0.00000000      11.02454739        2       -2        0        0        0        0       29        9      -0.00000000      -0.00000000      -0.00840132
Si       1.37222151       1.37222151      -9.65232588        2       -2        1        0        0        0       29       10      -0.00000000       0.00000000       0.00840132
Si      -0.00000000       2.74444303      -8.24754141        2       -2        1        0        0        0       35       11       0.00000000      -0.00000000       0.00025437
Si      -1.37222151       1.37222151      -6.83020523        3       -2        1        0        0        0       35       12      -0.00000000       0.00000000      -0.00234657
Si      -0.00000000      -0.00000000      -5.46130925        3       -3        1        0        0        0       35       13       0.00000000      -0.00000000       0.00508664
Si       1.37222151       1.37222151      -4.08008414        3       -3        1        0        0        0       35       14      -0.00000000      -0.00000000       0.00571233
Si      -0.00000000       2.74444303      -2.71913822        3       -2        1        0        0        0       29       97       0.00000000       0.00000000       0.00374288
Si      -1.37222151       1.37222151      -1.35657705        4       -2        1        0        0        0       29       98       0.00000000      -0.00000000      -0.00125111
