12
Lattice="5.352032122353365 0.0005182040348395 0.0003697589407537441 0.0005182172391776521 5.351886921751214 0.00043433794598283826 0.0004153914082049203 0.0004749750337215137 5.948696684447595" Properties=species:S:1:pos:R:3:forces:R:3 cutoff=-1.0 nneightol=1.2 n_minim_iter=1 energy=-1952.093622952233 stress="-0.2075196059758552 6.130698790867465e-05 0.00015582011314954158 6.130698790867465e-05 -0.2076033301296215 0.00018000788125602712 0.00015582011314954158 0.00018000788125602712 -0.20326933142050024" free_energy=-1952.093622952233 pbc="T T T"
Si       0.49088879       0.49066428      -0.00000119      -0.00230754       0.00557525       0.00522535
Si      -0.49058349      -0.49055869       2.97428426      -0.00200826      -0.00018523      -0.00357710
Si       2.18598986       3.16718707       4.46192551      -0.00023266      -0.00028147       0.00084926
Si       3.16698921       2.18566453       1.48754393       0.00164170      -0.00099755       0.00072683
Si       0.68259217       3.62964534       0.10853392      -0.02093000       0.02641665       0.19281897
Si       0.95393507       1.99397745       1.59562891       0.02759071       0.01551881       0.19156979
Si       1.72302632       4.67005346       2.86669232      -0.02802699       0.02164468      -0.19454181
Si       1.99408392       0.95412663       4.35354138       0.02204327       0.02741133      -0.19762834
Si       3.35883580       4.39870317       1.37960934      -0.01732701      -0.02768724      -0.19274591
Si       3.62961724       0.68261918      -0.10783136       0.02946105      -0.01880000      -0.19695577
Si       4.39906151       3.35902862       4.57029014      -0.02720165      -0.02200016       0.19734869
Si       4.67018458       1.72305196       3.08293841       0.01729739      -0.02661506       0.19691005
12
Lattice="5.370156506968247 -0.0002811282241388638 -0.001659212826365966 -0.00028120193190068685 5.371105403117291 -0.0019097989727393497 -0.0018353376209280855 -0.0021253533566354017 5.9074075954171255" Properties=species:S:1:pos:R:3:forces:R:3 cutoff=-1.0 nneightol=1.2 n_minim_iter=2 energy=-1952.097718791366 stress="-0.20314486036252333 -5.331829344982242e-05 -0.000661228246649215 -5.331829344982242e-05 -0.20266256685925316 -0.0007629790164540655 -0.000661228246649215 -0.0007629790164540655 -0.208090657403567" free_energy=-1952.097718791366 pbc="T T T"
Si       0.49244463       0.49243271      -0.00032753      -0.07113973      -0.08029020      -0.01303219
Si      -0.49332620      -0.49355045       2.95398990       0.07798410       0.07268916       0.01673287
Si       2.19122612       3.17627764       4.42875531       0.06633464      -0.06954334      -0.00211557
Si       3.17684743       2.19237434       1.47507451      -0.07538424       0.08016516       0.00036140
Si       0.68401832       3.64290742       0.10866996      -0.02216587       0.12728346       0.21391482
Si       0.95665746       2.00051840       1.58603812       0.12610141       0.04284938       0.21254089
Si       1.72667636       4.68562355       2.84134032      -0.12545805       0.02088049      -0.20876965
Si       1.99936287       0.95574440       4.31934810       0.02416663       0.13477481      -0.19627049
Si       3.36878255       4.41299715       1.36410402      -0.04256640      -0.12840691      -0.21879636
Si       3.64227097       0.68430604      -0.11154977       0.13359986      -0.04241308      -0.19862212
Si       4.41133499       3.36811692       4.53823400      -0.13126603      -0.02262790       0.19264109
Si       4.68482201       1.72680917       3.06181218       0.03979367      -0.13536103       0.20141531
12
Lattice="5.3835285838250195 -0.0011982199429152272 0.010238691077063496 -0.0011972919735640756 5.374578171648832 0.011801575659832681 0.011389743296990457 0.013115482441329492 5.8889761177197" Properties=species:S:1:pos:R:3:forces:R:3 cutoff=-1.0 nneightol=1.2 n_minim_iter=3 energy=-1952.112010340823 stress="-0.1974457752988502 -0.00016139512199102847 0.004002360837828233 -0.00016139512199102847 -0.2020455956647488 0.004623829320819591 0.004002360837828233 0.004623829320819591 -0.20045490417801604" free_energy=-1952.112010340823 pbc="T T T"
Si       0.49135244       0.49049676       0.00185179       0.02224592       0.10266808       0.07921202
Si      -0.48559954      -0.48399252       2.94277241      -0.06915847      -0.04734405      -0.10445667
Si       2.20804677       3.18728959       4.42787575      -0.02252893       0.05201486       0.01774631
Si       3.18549607       2.19942318       1.48314679       0.07628117      -0.11367856       0.00407272
Si       0.68381140       3.65040134       0.13349801      -0.02695436       0.05968766       0.00841763
Si       0.96724045       2.00771486       1.60258426       0.07636447      -0.08965366       0.02883394
Si       1.73155682       4.69721687       2.83398443      -0.07980520       0.03397158      -0.05693686
Si       2.01549317       0.97234928       4.29872206       0.03266351       0.01711783      -0.11621547
Si       3.37743987       4.41374383       1.36407042       0.08067086      -0.05363168       0.01841205
Si       3.65622331       0.68173994      -0.11546063       0.03862479       0.09359932      -0.12284100
Si       4.42683576       3.37967162       4.55635282      -0.04662463      -0.04065493       0.15179728
Si       4.70501381       1.72986467       3.08119575      -0.08177914      -0.01409647       0.09195805
12
Lattice="5.378187395211469 -0.0009240280961009175 0.0005329950136942821 -0.0009243605685339511 5.382043713459927 0.0005888382252219145 0.000603000598631921 0.0006542902347520303 5.886597311817009" Properties=species:S:1:pos:R:3:forces:R:3 cutoff=-1.0 nneightol=1.2 n_minim_iter=4 energy=-1952.117173671525 stress="-0.19999079734108938 -0.0001290307075015071 0.00019945204060312682 -0.0001290307075015071 -0.19801680632627897 0.0002218311059640475 0.00019945204060312682 0.0002218311059640475 -0.19683175848926301" free_energy=-1952.117173671525 pbc="T T T"
Si       0.49012367       0.49077383       0.00018381       0.13137349       0.11137474       0.00675736
Si      -0.48993993      -0.49028430       2.94321972      -0.12965135      -0.11357587      -0.00010716
Si       2.19860709       3.18187062       4.41555325      -0.12910003       0.11647129      -0.00530959
Si       3.17921358       2.19997747       1.47226056       0.13271301      -0.12087607      -0.00621882
Si       0.68240334       3.65735817       0.12995570       0.04556022       0.01300730       0.02223087
Si       0.96564522       2.00754378       1.60142002      -0.00112389      -0.04935484       0.00700225
Si       1.72271780       4.69856459       2.81443044       0.00135697      -0.04596718      -0.00586301
Si       2.00643490       0.96675194       4.28570925      -0.04533147       0.00555313      -0.02565539
Si       3.37141275       4.41506917       1.34293020       0.05085151      -0.00876360      -0.02006069
Si       3.65500577       0.68273104      -0.12911853      -0.00846430       0.05453187      -0.00956887
Si       4.41218760       3.37420960       4.54526319       0.00378717       0.04419550       0.01115556
Si       4.69521689       1.72397681       3.07348945      -0.05197133      -0.00659628       0.02563749
12
Lattice="5.387108663836756 0.0001456061173974904 -0.001611587501544181 0.00014646138984405184 5.37832602153404 -0.0018288333951376836 -0.001779227730260304 -0.002032540137409031 5.88091208163494" Properties=species:S:1:pos:R:3:forces:R:3 cutoff=-1.0 nneightol=1.2 n_minim_iter=5 energy=-1952.118094219133 stress="-0.19584667125175154 3.415035461632499e-05 -0.0006275647130283791 3.415035461632499e-05 -0.2003344410416318 -0.0007047785906933856 -0.0006275647130283791 -0.0007047785906933856 -0.19687010649731418" free_energy=-1952.118094219133 pbc="T T T"
Si       0.49179308       0.49117931      -0.00015825       0.10386794       0.12001914      -0.02794502
Si      -0.49280800      -0.49202342       2.94077165      -0.09241386      -0.13355908       0.00265091
Si       2.20033147       3.17877077       4.40894964      -0.09799469       0.13157475       0.00967771
Si       3.18513571       2.19770044       1.46854171       0.09035500      -0.12342936       0.01110506
Si       0.68439431       3.65566981       0.12955471       0.05077352      -0.00176997      -0.00128004
Si       0.96766069       2.00538329       1.60011465       0.02195861      -0.03451868       0.04194442
Si       1.72471122       4.69419378       2.80738127      -0.02073124      -0.05389097      -0.03482525
Si       2.00805564       0.96523317       4.27864633      -0.05419979      -0.00010719       0.01971219
Si       3.37757743       4.41134543       1.33668358       0.03601038       0.00428522      -0.00224182
Si       3.66187027       0.68331545      -0.13233614       0.02224917       0.03662560      -0.02425662
Si       4.41769926       3.37083849       4.53918784      -0.02539932       0.05594757       0.02069955
Si       4.70184801       1.72160519       3.06956529      -0.03447572      -0.00117704      -0.01524111
12
Lattice="5.394107684791178 0.003787806325914229 -0.00044652531539831307 0.0037875197472513767 5.396149164062885 -0.0005323297994980448 -0.0004816862134609387 -0.0005875261382983493 5.853884097467852" Properties=species:S:1:pos:R:3:forces:R:3 cutoff=-1.0 nneightol=1.2 n_minim_iter=6 energy=-1952.121256817795 stress="-0.19443021703122682 0.0005484024292904874 -0.00016768131380500502 0.0005484024292904874 -0.1934183142924206 -0.0002003030295909099 -0.00016768131380500502 -0.0002003030295909099 -0.19803372588083326" free_energy=-1952.121256817795 pbc="T T T"
Si       0.49695989       0.49714254      -0.00006818       0.04801620       0.03943994      -0.00175412
Si      -0.49717729      -0.49743267       2.92701861      -0.04640706      -0.04192190       0.00666635
Si       2.20216210       3.19617168       4.38992722      -0.03067834       0.02368590      -0.00294796
Si       3.19525327       2.20318965       1.46300590       0.02838093      -0.02126033      -0.00249611
Si       0.68915036       3.67139673       0.13660006       0.01349160       0.06314868       0.00965953
Si       0.97370954       2.01179549       1.60025026       0.06000604      -0.02017818       0.00277899
Si       1.72769111       4.71019554       2.78925491      -0.05885907      -0.01298339       0.00077771
Si       2.01092658       0.97379066       4.25312544      -0.02696210       0.06701401      -0.00690373
Si       3.38655357       4.42560682       1.32571022       0.02140946      -0.06571121      -0.01213820
Si       3.66997779       0.68947194      -0.13749798       0.06130846       0.00799212       0.00414762
Si       4.42367105       3.38745161       4.52678330      -0.06142937       0.02697994      -0.00256049
Si       4.70843047       1.72826100       3.06347443      -0.00827674      -0.06620559       0.00477041
12
Lattice="5.387281000953519 -0.008445175534163869 -0.0002858970452772097 -0.008444838379266427 5.386241655881295 -0.000250614643061938 -0.000306054118317408 -0.00027771945441656113 5.872094862380747" Properties=species:S:1:pos:R:3:forces:R:3 cutoff=-1.0 nneightol=1.2 n_minim_iter=7 energy=-1952.124131233985 stress="-0.19453828460481434 -0.0012078128742643664 -9.952908323519572e-05 -0.0012078128742643664 -0.19505499849124694 -8.848034338782995e-05 -9.952908323519572e-05 -8.848034338782995e-05 -0.19532103103130277" free_energy=-1952.124131233985 pbc="T T T"
Si       0.50054924       0.50020980      -0.00010485      -0.00441508       0.00503113      -0.00171926
Si      -0.50057300      -0.50048688       2.93608829       0.00214124      -0.00237025       0.00089898
Si       2.18749170       3.19033737       4.40378805      -0.03700919       0.03920029       0.00207085
Si       3.19105960       2.18715524       1.46772690       0.03492492      -0.03724243       0.00191818
Si       0.68166640       3.66574661       0.14003347       0.00954963       0.00740219      -0.00391634
Si       0.97057416       2.00395853       1.60822349       0.01135351       0.02211040      -0.00623701
Si       1.71235993       4.69606818       2.79550422      -0.01398137      -0.00777342       0.00004135
Si       2.00419655       0.97022667       4.26367962       0.01933546       0.01069825       0.00964706
Si       3.37435917       4.40728331       1.32735057      -0.02239842      -0.00909458       0.00827379
Si       3.66621311       0.68166504      -0.14049487       0.01908763       0.00398569       0.00260648
Si       4.40795740       3.37354242       4.54397288      -0.01290945      -0.01946908      -0.00762704
Si       4.69694930       1.71202638       3.07597655      -0.00567888      -0.01247818      -0.00595704
12
Lattice="5.383512195976569 0.004105465839104124 0.00017027164551624462 0.004105437114171406 5.382950209571112 -1.6536899337036204e-05 0.00020123460877527247 -1.753024235386798e-05 5.879787703485859" Properties=species:S:1:pos:R:3:forces:R:3 cutoff=-1.0 nneightol=1.2 n_minim_iter=8 energy=-1952.124543078422 stress="-0.19511237938192505 0.0005794919835849868 7.286112111940057e-05 0.0005794919835849868 -0.195392602796424 5.779414728147641e-07 7.286112111940057e-05 5.779414728147641e-07 -0.19451208949190393" free_energy=-1952.124543078422 pbc="T T T"
Si       0.50306300       0.50279314      -0.00005554       0.01454095       0.02315047       0.00187723
Si      -0.50284125      -0.50293684       2.93987613      -0.01868514      -0.01965417      -0.00142407
Si       2.19165858       3.19580650       4.40988837      -0.00034222       0.00143823       0.00046464
Si       3.19617153       2.19120547       1.47001295       0.00067345      -0.00065667       0.00230232
Si       0.69045229       3.66587948       0.14090908      -0.02263404      -0.00949563      -0.00657991
Si       0.97547710       2.00470733       1.61091078      -0.00356819       0.00922405      -0.00571693
Si       1.72154777       4.69663984       2.79905568       0.00483796       0.02271179       0.00540844
Si       2.00502418       0.97526262       4.26906246       0.01081992      -0.00377493       0.00372101
Si       3.38276912       4.41175379       1.32915667      -0.00880443       0.00466608       0.00545959
Si       3.66605836       0.69046868      -0.14077592      -0.00184184      -0.02412557       0.00418292
Si       4.41236188       3.38235603       4.55084614       0.00358261      -0.00956727      -0.00240358
Si       4.69725116       1.72126345       3.08092655       0.02142097       0.00608364      -0.00729166
12
Lattice="5.384617174420195 0.0002439821867132037 -0.00026935852678345863 0.0002439523256011213 5.384607701568815 0.0002255732468599013 -0.00028748156984594633 0.0002517183126039271 5.876768176465769" Properties=species:S:1:pos:R:3:forces:R:3 cutoff=-1.0 nneightol=1.2 n_minim_iter=9 energy=-1952.124656371612 stress="-0.194992602687782 2.1135033243139676e-05 4.484656159840846e-06 2.1135033243139676e-05 -0.19493583776661322 -1.2375318373943487e-05 4.484656159840846e-06 -1.2375318373943487e-05 -0.19497810484950936" free_energy=-1952.124656371612 pbc="T T T"
Si       0.50267862       0.50254168      -0.00005121       0.00598685       0.00135603       0.00011401
Si      -0.50274662      -0.50251039       2.93838222      -0.00636147      -0.00464260       0.00008220
Si       2.18966130       3.19520359       4.40758883      -0.00313411       0.00320121      -0.00115255
Si       3.19492240       2.18988738       1.46911511       0.00348127      -0.00217452       0.00173108
Si       0.68764559       3.66638124       0.14082828      -0.01944832       0.01001119      -0.00367699
Si       0.97401464       2.00491542       1.60995965       0.00326890       0.01499975      -0.00180714
Si       1.71839983       4.69729072       2.79781172      -0.00409092       0.01623309       0.00147045
Si       2.00461031       0.97424559       4.26684843       0.01462984       0.00469087       0.00195689
Si       3.37997609       4.41083688       1.32850571      -0.01664077      -0.00377433       0.00218129
Si       3.66626924       0.68771024      -0.14085801       0.00844617      -0.01956504       0.00326253
Si       4.41055229       3.38022702       4.54819513      -0.00219165      -0.01602196      -0.00152545
Si       4.69702827       1.71866177       3.07891201       0.01605420      -0.00431368      -0.00263630
12
Lattice="5.385307795516208 -0.001591572976787116 -0.0007692678509926966 -0.0015916257725229468 5.385299264356492 0.0006898273505763902 -0.000843177774342274 0.0007678382584739518 5.875260645726667" Properties=species:S:1:pos:R:3:forces:R:3 cutoff=-1.0 nneightol=1.2 n_minim_iter=10 energy=-1952.12475978242 stress="-0.19490153172110164 -0.00023809760015512118 -0.00027602499512423306 -0.00023809760015512118 -0.1949215338724427 0.0002597311105810106 -0.00027602499512423306 0.0002597311105810106 -0.1950079684363341" free_energy=-1952.12475978242 pbc="T T T"
Si       0.50266967       0.50239758      -0.00003732       0.00424245       0.01009643       0.00101208
Si      -0.50306235      -0.50222482       2.93762631       0.00056699      -0.00041235       0.00056738
Si       2.18846640       3.19523689       4.40648804      -0.01238952       0.00845313       0.00738624
Si       3.19443152       2.18927845       1.46872048       0.00775600      -0.01234129      -0.00772969
Si       0.68542205       3.66697519       0.14081671       0.00079736       0.00146540      -0.00495457
Si       0.97338758       2.00580960       1.60948214       0.00655031       0.01023464      -0.00494563
Si       1.71663512       4.69846335       2.79745710      -0.00812159       0.01058409      -0.00051513
Si       2.00495463       0.97420696       4.26579467       0.01016235       0.00650222       0.00239765
Si       3.37787895       4.41027131       1.32839608      -0.01614924      -0.00938710       0.00608219
Si       3.66685776       0.68546722      -0.14091383       0.00693895      -0.00113871       0.00664144
Si       4.40949750       3.37867897       4.54679605      -0.01090054      -0.01642520      -0.00808407
Si       4.69764775       1.71743301       3.07764927       0.01054650      -0.00763125       0.00214211
12
Lattice="5.385699120683882 -0.0024776045860190887 0.0005929020480333282 -0.002477444463717798 5.385727364531936 -0.0004955437537042376 0.0006709929532543129 -0.0005498230798997462 5.874367406482428" Properties=species:S:1:pos:R:3:forces:R:3 cutoff=-1.0 nneightol=1.2 n_minim_iter=11 energy=-1952.124816232565 stress="-0.19485098688446342 -0.000375386443999489 0.00021354354132719922 -0.000375386443999489 -0.19486319125127355 -0.00016416508746249512 0.00021354354132719922 -0.00016416508746249512 -0.19505736198271698" free_energy=-1952.124816232565 pbc="T T T"
Si       0.50291987       0.50258967      -0.00000040      -0.00137252       0.00509235       0.00152494
Si      -0.50256125      -0.50309808       2.93716398       0.00084383      -0.00035729       0.00003556
Si       2.18901374       3.19434478       4.40568482      -0.00988439       0.01262729      -0.00291119
Si       3.19488223       2.18841028       1.46884299       0.01186273      -0.01135037       0.00156849
Si       0.68409879       3.66745598       0.13998156       0.00040765      -0.00057937       0.00402199
Si       0.97371274       2.00613589       1.60892466       0.01184037       0.01505035      -0.01057723
Si       1.71650169       4.69870406       2.79649166      -0.01346276      -0.00086583       0.00771749
Si       2.00672014       0.97321704       4.26553362       0.01581364       0.01068465       0.00701968
Si       3.37695516       4.40956753       1.32821392      -0.00678273      -0.00955704       0.00257342
Si       3.66735000       0.68411014      -0.13995030       0.00416448      -0.00020613      -0.00225348
Si       4.41026935       3.37643477       4.54636424      -0.01166635      -0.00840944      -0.00440637
Si       4.69926540       1.71590253       3.07788937      -0.00176394      -0.01212917      -0.00431331
12
Lattice="5.385505091630889 -0.00032576935374850955 -0.00016745690866459538 -0.0003258067172219965 5.385943599325472 4.980276277619096e-05 -0.00017401470706921522 5.660723805736008e-05 5.8743418556708" Properties=species:S:1:pos:R:3:forces:R:3 cutoff=-1.0 nneightol=1.2 n_minim_iter=12 energy=-1952.124998075582 stress="-0.1948509718938338 -4.5733276670202486e-05 3.4085461422518605e-06 -4.5733276670202486e-05 -0.19473263475865563 1.4510122056608495e-05 3.4085461422518605e-06 1.4510122056608495e-05 -0.19500150680472123" free_energy=-1952.124998075582 pbc="T T T"
Si       0.50509263       0.50485356       0.00007991      -0.01094433      -0.00546169       0.00027307
Si      -0.50518724      -0.50494925       2.93718129       0.01192972       0.00934594       0.00130161
Si       2.18764075       3.19774550       4.40566639       0.00579754      -0.00567505       0.00024689
Si       3.19734435       2.18805820       1.46868835      -0.00606568       0.00333020      -0.00515199
Si       0.68336586       3.66914063       0.14006578       0.00319397       0.00336013       0.00276168
Si       0.97544211       2.00893825       1.60856868       0.01040767       0.00359054      -0.00122049
Si       1.71658365       4.70196814       2.79688137      -0.01178945       0.00046598       0.00428372
Si       2.00857164       0.97580730       4.26556289       0.00497747       0.00896628       0.00005140
Si       3.37618806       4.41000330       1.32841604      -0.00065735      -0.01097012      -0.00088424
Si       3.66907076       0.68329661      -0.14017413       0.00367769       0.00608123      -0.00057239
Si       4.40961560       3.37660375       4.54582629      -0.01206515      -0.00124789      -0.00233519
Si       4.70138519       1.71687788       3.07718723       0.00153789      -0.01178555       0.00124593
12
Lattice="5.385545603167597 2.1216133885324405e-05 -0.00018796731843303413 2.119053847337477e-05 5.385770662008796 1.825950178765636e-05 -0.00019678433876107017 2.1548534200974957e-05 5.8744862708171715" Properties=species:S:1:pos:R:3:forces:R:3 cutoff=-1.0 nneightol=1.2 n_minim_iter=13 energy=-1952.125013659103 stress="-0.19487944863879303 -2.8250134074772127e-05 6.213854749594686e-06 -2.8250134074772127e-05 -0.19484946126330244 1.0519202978222621e-05 6.213854749594686e-06 1.0519202978222621e-05 -0.1948759190413213" free_energy=-1952.125013659103 pbc="T T T"
Si       0.50486664       0.50471461       0.00007801      -0.00498807      -0.00173309      -0.00028434
Si      -0.50496136      -0.50475864       2.93727559       0.00409229       0.00305261       0.00068321
Si       2.18803442       3.19757941       4.40575588       0.00171377      -0.00116692       0.00014753
Si       3.19730888       2.18833284       1.46863221      -0.00161020      -0.00070614      -0.00341815
Si       0.68360839       3.66903684       0.14007366       0.00235336       0.00262916      -0.00078773
Si       0.97567240       2.00903001       1.60856500       0.00631434       0.00106161      -0.00058662
Si       1.71676935       4.70196773       2.79698058      -0.00709619      -0.00097477       0.00369700
Si       2.00875590       0.97595395       4.26567223       0.00284741       0.00600809       0.00203378
Si       3.37643498       4.40997124       1.32841019       0.00038319      -0.00764629       0.00219433
Si       3.66914373       0.68354539      -0.14020177       0.00257755       0.00598121       0.00024137
Si       4.40972137       3.37668836       4.54586165      -0.00710712       0.00091709      -0.00220548
Si       4.70159373       1.71699463       3.07723647       0.00051967      -0.00742257      -0.00171490
