12
Lattice="5.51889083 0.0 0.0 0.0 5.51889083 0.0 0.0 0.0 6.95380245" Properties=species:S:1:pos:R:3:forces:R:3 cutoff=-1.0 nneightol=1.2 n_minim_iter=1 energy=-1954.485663579781 stress="-0.03591583494492145 2.6308351807101114e-10 -2.0040497386080824e-10 2.6308351807101114e-10 -0.03591583504446349 3.2001706966590855e-10 -2.0040497386080824e-10 3.2001706966590855e-10 0.0460169136846768" free_energy=-1954.485663579781 pbc="T T T"
Si       0.46855383       0.46855383       0.00000000       1.04664615       1.04664615       0.00000000
Si      -0.46855383      -0.46855383       3.47690123      -1.04664615      -1.04664616      -0.00000002
Si       2.29089158       3.22799925       5.21535184      -1.04664604       1.04664604      -0.00000001
Si       3.22799925       2.29089158       1.73845061       1.04664604      -1.04664604       0.00000001
Si       0.66668201       3.72635509       0.16828202       0.43228458      -0.87139378      -0.95774654
Si       0.96690967       2.09276340       1.90673263      -0.87139363      -0.43228453      -0.95774661
Si       1.79253574       4.85220882       3.30861921       0.87139381      -0.43228459       0.95774651
Si       2.09276340       0.96690967       5.04706982      -0.43228453      -0.87139363       0.95774661
Si       3.42612743       4.55198116       1.57016859       0.43228451       0.87139363       0.95774665
Si       3.72635509       0.66668201      -0.16828202      -0.87139378       0.43228458       0.95774654
Si       4.55198116       3.42612743       5.38363386       0.87139363       0.43228451      -0.95774664
Si       4.85220882       1.79253574       3.64518324      -0.43228459       0.87139382      -0.95774651
12
Lattice="5.693906598342817 -1.302106429774232e-09 9.57387962764151e-10 -1.302106429774232e-09 5.6939065988354916 -1.528806817783877e-09 1.2063088338114238e-09 -1.9262965915711412e-09 6.681139955911552" Properties=species:S:1:pos:R:3:forces:R:3 cutoff=-1.0 nneightol=1.2 n_minim_iter=2 energy=-1955.037490013395 stress="0.005522507920971948 5.09197177616136e-11 -1.9328208530927511e-10 5.09197177616136e-11 0.005522508082283817 2.880439073762707e-10 -1.9328208530927511e-10 2.880439073762707e-10 0.022792651444261826" free_energy=-1955.037490013395 pbc="T T T"
Si       0.48784442       0.48784442      -0.00000000       0.49542519       0.49542517       0.00000000
Si      -0.48784442      -0.48784442       3.34056998      -0.49542518      -0.49542518      -0.00000002
Si       2.35910888       3.33479772       5.01085497      -0.49542511       0.49542511      -0.00000000
Si       3.33479772       2.35910888       1.67028499       0.49542511      -0.49542511       0.00000000
Si       0.68965431       3.84083605       0.15790704       0.36494745      -0.21843940      -0.96324346
Si       0.99388275       2.15729898       1.82819202      -0.21843928      -0.36494740      -0.96324353
Si       1.85307055       5.00425229       3.18266295       0.21843942      -0.36494745       0.96324344
Si       2.15729899       0.99388274       4.85294793      -0.36494740      -0.21843927       0.96324353
Si       3.53660761       4.70002385       1.51237795       0.36494739       0.21843927       0.96324358
Si       3.84083605       0.68965431      -0.15790704      -0.21843941       0.36494746       0.96324346
Si       4.70002385       3.53660761       5.16876201       0.21843927       0.36494738      -0.96324356
Si       5.00425229       1.85307055       3.49847701      -0.36494745       0.21843942      -0.96324344
12
Lattice="5.647865092720434 -1.826529253982682e-09 2.7211149808608876e-09 -1.8265292539826801e-09 5.647865091690495 -4.1586766033231085e-09 3.4286048779555538e-09 -5.2399314709063065e-09 6.419168711138438" Properties=species:S:1:pos:R:3:forces:R:3 cutoff=-1.0 nneightol=1.2 n_minim_iter=3 energy=-1955.124082745666 stress="-0.01823295834533389 -1.0516897603334272e-10 -2.3895042878449184e-10 -1.0516897603334272e-10 -0.0182329583719377 3.25973758912783e-10 -2.3895042878449184e-10 3.25973758912783e-10 -0.017470419489739535" free_energy=-1955.124082745666 pbc="T T T"
Si       0.48814375       0.48814375      -0.00000000       0.41164785       0.41164778      -0.00000000
Si      -0.48814374      -0.48814375       3.20958436      -0.41164781      -0.41164781      -0.00000003
Si       2.33578880       3.31207629       4.81437653      -0.41164775       0.41164775      -0.00000000
Si       3.31207630       2.33578879       1.60479218       0.41164775      -0.41164776      -0.00000000
Si       0.68714935       3.80784120       0.14492028       0.41544811      -0.02838809      -0.82283427
Si       0.98390865       2.13678319       1.74971246      -0.02838796      -0.41544802      -0.82283435
Si       1.84002389       4.96071574       3.06466407       0.02838809      -0.41544809       0.82283426
Si       2.13678319       0.98390865       4.66945625      -0.41544803      -0.02838795       0.82283436
Si       3.51108190       4.66395644       1.45987189       0.41544803       0.02838794       0.82283441
Si       3.80784120       0.68714935      -0.14492029      -0.02838814       0.41544813       0.82283427
Si       4.66395644       3.51108190       4.95929682       0.02838795       0.41544802      -0.82283439
Si       4.96071574       1.84002389       3.35450464      -0.41544809       0.02838809      -0.82283427
12
Lattice="5.778489463315721 1.1250124361635844e-09 1.3168768606682146e-08 1.1250135431657588e-09 5.778489457769143 -1.8823130888027374e-08 1.6592647304780906e-08 -2.3717139408424237e-08 6.529883365962446" Properties=species:S:1:pos:R:3:forces:R:3 cutoff=-1.0 nneightol=1.2 n_minim_iter=4 energy=-1955.386071279672 stress="0.021537381935599096 -2.0320881533215e-10 -1.4305810366718014e-10 -2.0320881533215e-10 0.021537378747786228 7.89251045947384e-10 -1.4305810366718014e-10 7.89251045947384e-10 0.005657468761482527" free_energy=-1955.386071279672 pbc="T T T"
Si       0.51672484       0.51672483      -0.00000000       0.03509917       0.03509962       0.00000005
Si      -0.51672483      -0.51672485       3.26494169      -0.03509930      -0.03509929      -0.00000003
Si       2.37251991       3.40596955       4.89741252      -0.03509934       0.03509934       0.00000004
Si       3.40596957       2.37251989       1.63247084       0.03509933      -0.03509937      -0.00000004
Si       0.72029698       3.89418559       0.11515949       0.17999372       0.10422262      -0.74642046
Si       1.00494087       2.16894774       1.74763033       0.10422304      -0.17999359      -0.74642054
Si       1.88430388       5.05819247       3.14978217      -0.10422302      -0.17999360       0.74642049
Si       2.16894776       1.00494085       4.78225303      -0.17999353       0.10422305       0.74642050
Si       3.60954172       4.77354859       1.51731134       0.17999361      -0.10422312       0.74642055
Si       3.89418559       0.72029698      -0.11515949       0.10422298       0.17999374       0.74642045
Si       4.77354861       3.60954169       5.01257202      -0.10422309       0.17999362      -0.74642049
Si       5.05819250       1.88430386       3.38010118      -0.17999358      -0.10422303      -0.74642051
12
Lattice="5.702099096354126 1.2590515528655812e-08 3.0595141737591756e-08 1.259051808134406e-08 5.702099233535664 -6.834281424323129e-08 3.8549876276332136e-08 -8.611193914258525e-08 6.579425225904234" Properties=species:S:1:pos:R:3:forces:R:3 cutoff=-1.0 nneightol=1.2 n_minim_iter=5 energy=-1955.705380778882 stress="0.0064475805704301585 -1.3626751692025574e-09 -1.9893665960139137e-09 -1.3626751692025574e-09 0.0064476166591237545 1.7531604966860813e-10 -1.9893665960139137e-09 1.7531604966860813e-10 -0.01217218888517823" free_energy=-1955.705380778882 pbc="T T T"
Si       0.53376571       0.53376574      -0.00000000      -0.35031856      -0.35031986      -0.00000015
Si      -0.53376569      -0.53376577       3.28971262       0.35031904       0.35031921       0.00000015
Si       2.31728387       3.38481528       4.93456889       0.35031881      -0.35031901      -0.00000001
Si       3.38481527       2.31728388       1.64485629      -0.35031887       0.35031884      -0.00000039
Si       0.73680872       3.84043607       0.05901979      -0.12582976       0.13227405      -0.33848022
Si       0.98938647       2.11424087       1.70387611       0.13227407       0.12583023      -0.33848027
Si       1.86166313       4.96529047       3.23069273      -0.13227415       0.12582990       0.33848052
Si       2.11424087       0.98938642       4.87554910       0.12583002       0.13227440       0.33848030
Si       3.58785828       4.71271274       1.58583645      -0.12582996      -0.13227456       0.33848028
Si       3.84043599       0.73680874      -0.05901982       0.13227341      -0.12582922       0.33848051
Si       4.71271268       3.58785829       4.99358873      -0.13227408      -0.12582968      -0.33848041
Si       4.96529041       1.86166312       3.34873245       0.12583005      -0.13227430      -0.33848031
12
Lattice="5.6376478187342025 4.708294230649513e-08 8.224277043731134e-08 4.708294512320071e-08 5.637647207268678 -9.498221306777544e-08 1.0362589025942691e-07 -1.1967757882343088e-07 6.757046534315225" Properties=species:S:1:pos:R:3:forces:R:3 cutoff=-1.0 nneightol=1.2 n_minim_iter=6 energy=-1955.799378755722 stress="-0.0026291869707050822 -7.880908841835482e-10 -8.929281216995044e-10 -7.880908841835482e-10 -0.002629345444313715 5.285544152603483e-09 -8.929281216995044e-10 5.285544152603483e-09 -0.002919806537414196" free_energy=-1955.799378755722 pbc="T T T"
Si       0.53326901       0.53326895      -0.00000000      -0.38963084      -0.38962746       0.00000015
Si      -0.53326896      -0.53326901       3.37852327       0.38963015       0.38962914      -0.00000045
Si       2.28555501       3.35209248       5.06778488       0.38962978      -0.38962883       0.00000078
Si       3.35209296       2.28555465       1.68926163      -0.38962998       0.38962864       0.00000009
Si       0.73772283       3.79638265       0.02819170      -0.22112183      -0.00036287      -0.20444854
Si       0.97755923       2.08110089       1.71745335      -0.00035994       0.22112268      -0.20444782
Si       1.84126483       4.89992446       3.35033147       0.00035991       0.22112289       0.20444745
Si       2.08110122       0.97755901       5.03959317       0.22112304      -0.00036083       0.20444833
Si       3.55654675       4.66008811       1.66106987      -0.22112249       0.00036066       0.20444848
Si       3.79638307       0.73772276      -0.02819171      -0.00036022      -0.22112220       0.20444741
Si       4.66008874       3.55654626       5.09597665       0.00035970      -0.22112273      -0.20444738
Si       4.89992511       1.84126451       3.40671506       0.22112272       0.00036091      -0.20444851
12
Lattice="5.623924445554174 1.1922484773557226e-07 1.7067899864305143e-07 1.1922485352205762e-07 5.623934309803089 -4.7282090959395854e-07 2.150555414302888e-07 -5.957543332569931e-07 6.919117232152124" Properties=species:S:1:pos:R:3:forces:R:3 cutoff=-1.0 nneightol=1.2 n_minim_iter=7 energy=-1955.86590117799 stress="-0.003483633142726378 -3.047746017489794e-09 7.692865826798207e-09 -3.047746017489794e-09 -0.003481082330539225 -2.9639653321753794e-08 7.692865826798207e-09 -2.9639653321753794e-08 0.01711523968818583" free_energy=-1955.86590117799 pbc="T T T"
Si       0.51340066       0.51340175      -0.00000002      -0.13345006      -0.13348569       0.00000380
Si      -0.51340058      -0.51340195       3.45955862       0.13345156       0.13347327       0.00000632
Si       2.29856174       3.32536842       5.18933776       0.13345254      -0.13347283      -0.00000792
Si       3.32536302       2.29856540       1.72977920      -0.13345175       0.13347459      -0.00000342
Si       0.72944023       3.78650981      -0.00514830      -0.14476287      -0.23555095      -0.21423993
Si       0.97454124       2.08252567       1.72463118      -0.23558387       0.14475257      -0.21425040
Si       1.83742130       4.89449269       3.46470622       0.23558433       0.14475358       0.21425462
Si       2.08252235       0.97454241       5.19448591       0.14475756      -0.23556477       0.21423849
Si       3.54140247       4.64939140       1.73492705      -0.14475906       0.23556684       0.21423779
Si       3.78650332       0.72944151       0.00514800      -0.23558229      -0.14475915       0.21425433
Si       4.64938352       3.54140818       5.18418981       0.23558513      -0.14475331      -0.21425395
Si       4.89448451       1.83742418       3.45441060       0.14475879       0.23556585      -0.21423972
12
Lattice="5.6991639003414125 3.8475738330339973e-07 -4.0374849140844305e-08 3.8475739905662733e-07 5.699067324937994 3.699215548332972e-07 -5.087230284237342e-08 4.6610117624822163e-07 6.7937820720638395" Properties=species:S:1:pos:R:3:forces:R:3 cutoff=-1.0 nneightol=1.2 n_minim_iter=8 energy=-1955.992612992562 stress="0.004778068706782308 1.2064099719837116e-08 -6.650976225636774e-09 1.2064099719837116e-08 0.004754476794871078 2.628670497246102e-08 -6.650976225636774e-09 2.628670497246102e-08 0.0008884819385695558" free_energy=-1955.992612992562 pbc="T T T"
Si       0.48268194       0.48267278       0.00000018      -0.00719377      -0.00698094      -0.00005599
Si      -0.48268198      -0.48267281       3.39689119       0.00719341       0.00699422      -0.00005816
Si       2.36690018       3.33220725       5.09533657       0.00719502      -0.00699498       0.00005861
Si       3.33226405       2.36686095       1.69844551      -0.00719509       0.00699348       0.00005530
Si       0.72292012       3.83166962      -0.06057106      -0.11320351      -0.26989230       0.00807873
Si       0.98215186       2.12662599       1.63787403      -0.26970958       0.11323966       0.00824291
Si       1.86743056       4.97615988       3.45746307       0.26970816       0.11323945      -0.00824845
Si       2.12666211       0.98213622       5.15590784       0.11320447      -0.26987962      -0.00807586
Si       3.57250215       4.71693200       1.75901704      -0.11320521       0.26987735      -0.00807558
Si       3.83173369       0.72290800       0.06057172      -0.26970826      -0.11323479      -0.00824764
Si       4.71701238       3.57244218       5.03476506       0.26970883      -0.11323934       0.00824755
Si       4.97624413       1.86739858       3.33631982       0.11320554       0.26987782       0.00807856
12
Lattice="5.6635204708301945 -4.473934436585891e-08 1.7697575353674748e-07 -4.473932692637485e-08 5.664357662633411 -4.944564245327959e-07 2.229894578580039e-07 -6.230150775475997e-07 6.793830262196934" Properties=species:S:1:pos:R:3:forces:R:3 cutoff=-1.0 nneightol=1.2 n_minim_iter=9 energy=-1956.015917140533 stress="-0.004672029462235267 6.633877414881318e-09 1.111418545601537e-08 6.633877414881318e-09 -0.004455591380148498 -9.15178779700169e-09 1.111418545601537e-08 -9.15178779700169e-09 -0.00276327227446489" free_energy=-1956.015917140533 pbc="T T T"
Si       0.46771163       0.46778686      -0.00000157       0.10725245       0.10531756       0.00048425
Si      -0.46771155      -0.46778706       3.39691358      -0.10725553      -0.10531649       0.00048338
Si       2.36404874       3.29996515       5.09537406      -0.10725577       0.10531662      -0.00048437
Si       3.29947191       2.36439183       1.69845901       0.10725634      -0.10531507      -0.00048033
Si       0.70757775       3.79743547      -0.06752469      -0.00567819      -0.24543275      -0.00141013
Si       0.96511908       2.12449716       1.63093772      -0.24701586       0.00544627      -0.00304905
Si       1.86664125       4.95667587       3.46443441       0.24701653       0.00545060       0.00305074
Si       2.12418263       0.96525631       5.16289708       0.00567472      -0.24543831       0.00140705
Si       3.53933803       4.69910065       1.76598167      -0.00567550       0.24544052       0.00140669
Si       3.79687928       0.70768148       0.06751971      -0.24701070      -0.00545737       0.00305092
Si       4.69840155       3.53985985       5.02785289       0.24701667      -0.00545102      -0.00305017
Si       4.95594283       1.86692172       3.32939074       0.00567481       0.24543945      -0.00140898
12
Lattice="5.668004464787976 -7.071857132946145e-07 -1.029265688121878e-07 -7.071856947626923e-07 5.660195458794276 -8.713929972090835e-07 -1.296874676891708e-07 -1.0979551592154835e-06 6.8462670488138" Properties=species:S:1:pos:R:3:forces:R:3 cutoff=-1.0 nneightol=1.2 n_minim_iter=10 energy=-1956.03624957745 stress="-7.109627335500311e-05 -2.9111688652010645e-08 1.9639571729633616e-09 -2.9111688652010645e-08 -0.0020124802124454645 -5.0758040312657804e-08 1.9639571729633616e-09 -5.0758040312657804e-08 -0.0001662306702497417" free_energy=-1956.03624957745 pbc="T T T"
Si       0.46853729       0.46783250       0.00001337      -0.04935063      -0.03323168      -0.00474834
Si      -0.46853750      -0.46783256       3.42314694       0.04935334       0.03320378      -0.00474259
Si       2.36546429       3.29792873       5.13468638       0.04934983      -0.03320296       0.00474308
Si       3.30253936       2.36226493       1.71155301      -0.04935053       0.03320517       0.00474683
Si       0.70453889       3.77681780      -0.08103134       0.01879973      -0.03532365       0.02274701
Si       0.94797849       2.12652188       1.63048899      -0.02233433      -0.01703229       0.03850910
Si       1.88602273       4.95661940       3.50421005       0.02233717      -0.01703361      -0.03849969
Si       2.12946255       0.94671932       5.21573082      -0.01879668      -0.03534744      -0.02274936
Si       3.53854103       4.71347431       1.79259669       0.01879981       0.03535169      -0.02275126
Si       3.78198117       0.70357469       0.08107717      -0.02234239       0.01702633      -0.03850087
Si       4.72002514       3.53367163       5.05362235       0.02233537       0.01703407       0.03849882
Si       4.96346478       1.88337618       3.34210243      -0.01880070       0.03535059       0.02274727
12
Lattice="5.662989851556084 -5.139108165949802e-07 -1.2798633168640189e-07 -5.139107980826316e-07 5.669551437991225 -5.09505814578739e-07 -1.612627689627705e-07 -6.419773093310583e-07 6.843802790608068" Properties=species:S:1:pos:R:3:forces:R:3 cutoff=-1.0 nneightol=1.2 n_minim_iter=11 energy=-1956.036919698629 stress="-0.0012996380137658798 -1.128819229255206e-09 -8.872836035508113e-09 -1.128819229255206e-09 0.00032622701218286366 -6.836503657110837e-09 -8.872836035508113e-09 -6.836503657110837e-09 -4.948912302200567e-05" free_energy=-1956.036919698629 pbc="T T T"
Si       0.46740667       0.46799018      -0.00001403      -0.02841315      -0.04175671       0.00399888
Si      -0.46740689      -0.46799018       3.42188739       0.02841928       0.04175491       0.00400042
Si       2.36408770       3.30276498       5.13286578       0.02841650      -0.04175435      -0.00399944
Si       3.29890149       2.36678533       1.71096451      -0.02841718       0.04175508      -0.00399873
Si       0.70336588       3.78224653      -0.07977921       0.02711479      -0.01408910       0.02629332
Si       0.94640765       2.13059870       1.63121594      -0.02477733      -0.02851195       0.01291923
Si       1.88508650       4.96537437       3.50163539       0.02477823      -0.02850936      -0.01291793
Si       2.12812840       0.94747032       5.21263077      -0.02711267      -0.01409497      -0.02629278
Si       3.53486074       4.72207997       1.79072899       0.02711282       0.01409584      -0.02629551
Si       3.77790294       0.70417608       0.07973436      -0.02478396       0.02850593      -0.01291829
Si       4.71658154       3.53895143       5.05311719       0.02477652       0.02850907       0.01291684
Si       4.95962334       1.88730400       3.34212230      -0.02711385       0.01409560       0.02629399
12
Lattice="5.6698622648036014 -3.5308155502378385e-07 -5.029231230272897e-08 -3.530815365713239e-07 5.6692670071973135 -1.4955062166614481e-07 -6.336830453656399e-08 -1.8843376358548314e-07 6.838346306890372" Properties=species:S:1:pos:R:3:forces:R:3 cutoff=-1.0 nneightol=1.2 n_minim_iter=12 energy=-1956.037441835127 stress="0.0003247010226272691 -6.0135866773645565e-09 -5.317316668997009e-09 -6.0135866773645565e-09 0.00017705963084760462 -7.864996999181824e-10 -5.317316668997009e-09 -7.864996999181824e-10 3.1691368913667415e-05" free_energy=-1956.037441835127 pbc="T T T"
Si       0.46678959       0.46673344      -0.00000025      -0.02119529      -0.01992877      -0.00033578
Si      -0.46678969      -0.46673336       3.41917290       0.02119779       0.01992754      -0.00033471
Si       2.36814119       3.30136657       5.12875988       0.02119645      -0.01992735       0.00033511
Si       3.30172067       2.36789994       1.70958683      -0.02119671       0.01992669       0.00033400
Si       0.70358934       3.78127350      -0.07729328       0.04222994      -0.01115009       0.00066933
Si       0.94673405       2.13111718       1.63229106      -0.01013866      -0.04211005       0.00182910
Si       1.88819661       4.96575080       3.49646845       0.01013950      -0.04211129      -0.00182933
Si       2.13134139       0.94663972       5.20605281      -0.04222842      -0.01115029      -0.00066777
Si       3.53852044       4.72262680       1.78687950       0.04222858       0.01114949      -0.00066796
Si       3.78166539       0.70351554       0.07729541      -0.01014275       0.04211262      -0.00182950
Si       4.72312781       3.53814911       5.05146414       0.01013850       0.04211135       0.00182878
Si       4.96627250       1.88799318       3.34187993      -0.04222894       0.01115014       0.00066874
12
Lattice="5.667990352360733 1.9939873936932895e-06 1.6676713786240054e-06 1.9939874122722546e-06 5.668093573377774 1.8334862194941658e-06 2.101265947432437e-06 2.3101926673957424e-06 6.844509371492548" Properties=species:S:1:pos:R:3:forces:R:3 cutoff=-1.0 nneightol=1.2 n_minim_iter=13 energy=-1956.04004566452 stress="0.0001742433145421094 9.444959279752884e-08 1.521987448764149e-08 9.444959279752884e-08 0.0002009913531374887 1.0241353619972467e-07 1.521987448764149e-08 1.0241353619972467e-07 2.306079698555926e-05" free_energy=-1956.04004566452 pbc="T T T"
Si       0.45967995       0.45970166       0.00000448      -0.00909257      -0.00953463      -0.00002428
Si      -0.45967809      -0.45970132       3.42225896       0.00908660       0.00959472      -0.00003502
Si       2.37431843       3.29375181       5.13337936       0.00910282      -0.00959747       0.00002492
Si       3.29367592       2.37434606       1.71112463      -0.00909628       0.00959087       0.00002263
Si       0.71368151       3.77387318      -0.07727006      -0.00142498       0.00850611      -0.00026950
Si       0.93982267       2.12035527       1.63384404       0.00811189       0.00134137      -0.00015977
Si       1.89417687       4.95440310       3.49954132      -0.00811785       0.00133952       0.00014186
Si       2.12031733       0.93982774       5.21065468       0.00138385       0.00855701       0.00027091
Si       3.54767727       4.72827023       1.78840138      -0.00140478      -0.00856889       0.00028263
Si       3.77381561       0.71369338       0.07728576       0.00814912      -0.00132251       0.00014873
Si       4.72817169       3.54774253       5.05609990      -0.00810767      -0.00133999      -0.00013113
Si       4.95431202       1.89422458       3.34498523       0.00140985      -0.00856611      -0.00027198
12
Lattice="5.667854555928188 3.4661654066353306e-07 1.4185961476429975e-06 3.4661655932643414e-07 5.667840604579373 7.186814702632998e-08 1.7874311562602788e-06 9.055389630286879e-08 6.843990983675228" Properties=species:S:1:pos:R:3:forces:R:3 cutoff=-1.0 nneightol=1.2 n_minim_iter=14 energy=-1956.040082822649 stress="1.3183253201587885e-05 3.151524996167479e-08 2.6882536750158164e-08 3.151524996167479e-08 1.0931230614576737e-05 -2.730938486707669e-09 2.6882536750158164e-08 -2.730938486707669e-09 2.124716755117974e-06" free_energy=-1956.040082822649 pbc="T T T"
Si       0.45900732       0.45901555       0.00000337      -0.00027756      -0.00044682      -0.00007198
Si      -0.45900569      -0.45901543       3.42199883       0.00027431       0.00045087      -0.00007357
Si       2.37492200       3.29293607       5.13299039       0.00028005      -0.00045210       0.00006707
Si       3.29293469       2.37490487       1.71099507      -0.00027640       0.00045221       0.00007403
Si       0.71356222       3.77395928      -0.07769652      -0.00001213       0.00050658      -0.00005842
Si       0.94005038       2.12035994       1.63329214       0.00033557      -0.00002703       0.00019905
Si       1.89387889       4.95428038       3.49970187      -0.00033629      -0.00002664      -0.00019702
Si       2.12036650       0.94003895       5.21069077      -0.00001640       0.00050702       0.00005172
Si       3.54749002       4.72780195       1.78869559       0.00000562      -0.00050666       0.00005714
Si       3.77397645       0.71356059       0.07770682       0.00035735       0.00002340      -0.00019405
Si       4.72780629       3.54748110       5.05528859      -0.00033111       0.00002649       0.00020391
Si       4.95429349       1.89388191       3.34429995      -0.00000301      -0.00050731      -0.00005789
