12
Lattice="5.964011619573656 -0.0005389073494072556 0.0003706881494694461 -0.0005390227181700253 5.963680082698338 0.0003743905394257116 0.00047274967754793297 0.0004693701478989681 7.417784091738302" Properties=species:S:1:pos:R:3:forces:R:3 cutoff=-1.0 nneightol=1.2 n_minim_iter=9 energy=-1954.162170682282 stress="0.07554236831726364 -5.067627087493893e-05 4.738903453705939e-05 -5.067627087493893e-05 0.07549518712215827 4.519158310825684e-05 4.738903453705939e-05 4.519158310825684e-05 0.0754570308925068" free_energy=-1954.162170682282 pbc="T T T"
Si       0.44060096       0.44064543       0.00005904      -0.00226114      -0.00263178       0.00037313
Si      -0.44047291      -0.44046202       3.70885378       0.00322635       0.00407237      -0.00153614
Si       2.54133105       3.42257623       5.56379508       0.00374581      -0.00134708      -0.00102391
Si       3.42256184       2.54098314       1.85487063      -0.00191699       0.00125922      -0.00036894
Si       0.77504152       3.94147593      -0.21205155       0.00303076      -0.00035774       0.00244805
Si       0.95966201       2.20654597       1.64239508      -0.00044762      -0.00426469       0.00113956
Si       2.02199192       5.18847393       3.92162315       0.00033963      -0.00393458      -0.00161526
Si       2.20691448       0.95995785       5.77572477      -0.00292194      -0.00137118      -0.00134110
Si       3.75701359       5.00370801       2.06730877       0.00437154       0.00106403      -0.00158041
Si       3.94179377       0.77491669       0.21256520      -0.00164287       0.00516254      -0.00215292
Si       5.00437127       3.75707952       5.35156051      -0.00096643       0.00219272       0.00336553
Si       5.18868087       2.02191736       3.49704935      -0.00455711       0.00015618       0.00229240
