8
Lattice="6.791686963213788 1.507579667357721e-15 -1.5024415974998814e-45 -3.3958434816068954 5.881773444694727 1.604247224157498e-45 1.3923222962126405e-45 -9.127966384905873e-46 6.2939000114978" Properties=species:S:1:pos:R:3:tags:I:1 spacegroup="P 1" unit_cell=conventional n_minim_iter=1 energy=-10125.805013109506 free_energy=-10125.805013109506 pbc="T T T"
Ti       3.39584349       3.16925243       1.57347500        0
Ti      -1.04672627       4.52551588       4.72042501        1
Ti       1.04672628       4.52551588       4.72042501        2
Ti       2.34911721       1.35626934       1.57347500        3
Ti       4.44256976       1.35626934       1.57347500        4
Ti       0.00000001       2.71253279       4.72042501        5
Al       0.00000001       3.92118818       1.57347500        6
Al       3.39584349       1.96059704       4.72042501        7
8
Lattice="6.813294596046598 1.3794186111192521e-15 -1.5182778343111284e-45 -3.4066472980233002 5.900486203643586 1.5872386703559777e-45 1.3736266581344005e-45 -9.355327240662888e-46 6.254042456591212" Properties=species:S:1:pos:R:3:tags:I:1 spacegroup="P 1" unit_cell=conventional n_minim_iter=2 stress="16.924073916481763 4.9400273867365775e-15 -6.932406050879914e-16 4.9400273867365775e-15 16.924073916481746 2.014630556046265e-15 -6.932406050879914e-16 2.014630556046265e-15 17.02286465515966" pbc="T T T"
Ti       3.40664730       3.17914382       1.56351061        0
Ti      -1.04989054       4.53981796       4.69053184        1
Ti       1.04989055       4.53981796       4.69053184        2
Ti       2.35675676       1.36068005       1.56351061        3
Ti       4.45653785       1.36068005       1.56351061        4
Ti       0.00000001       2.72135420       4.69053184        5
Al       0.00000001       3.93366337       1.56351061        6
Al       3.40664730       1.96683464       4.69053184        7
8
Lattice="6.81184053700609 1.3935368043757927e-15 -1.518255689859179e-45 -3.4059202685030465 5.899226951575905 1.586727825524011e-45 1.37407728412147e-45 -9.363244017220315e-46 6.256712723900704" Properties=species:S:1:pos:R:3:tags:I:1 spacegroup="P 1" unit_cell=conventional n_minim_iter=3 stress="16.916634653375812 6.5341027426369756e-15 -7.764948966140402e-15 6.5341027426369756e-15 16.9166346533758 -3.502020610397855e-15 -7.764948966140402e-15 -3.502020610397855e-15 16.976273481418275" pbc="T T T"
Ti       3.40592027       3.17355037       1.56417818        0
Ti      -1.04540999       4.53639161       4.69253454        1
Ti       1.04541000       4.53639161       4.69253454        2
Ti       2.36051028       1.36284715       1.56417818        3
Ti       4.45133027       1.36284715       1.56417818        4
Ti       0.00000001       2.72568839       4.69253454        5
Al       0.00000001       3.93282387       1.56417818        6
Al       3.40592027       1.96641489       4.69253454        7
8
Lattice="6.812622557331402 1.389045943140097e-15 -1.5187844522253676e-45 -3.406311278665702 5.8999042010439 1.5862066357596637e-45 1.0983263867250192e-45 -1.0958991103278707e-45 6.255276391371824" Properties=species:S:1:pos:R:3:tags:I:1 spacegroup="P 1" unit_cell=conventional n_minim_iter=4 stress="16.917008584140564 1.3892714378025653e-14 2.844691439515323e-15 1.3892714378025653e-14 16.917008584140547 2.5185227817550574e-15 2.844691439515323e-15 2.5185227817550574e-15 16.913119175802255" pbc="T T T"
Ti       3.40631128       3.17423096       1.56381909        0
Ti      -1.04580389       4.53707053       4.69145729        1
Ti       1.04580390       4.53707053       4.69145729        2
Ti       2.36050739       1.36284548       1.56381909        3
Ti       4.45211518       1.36284548       1.56381909        4
Ti       0.00000001       2.72568506       4.69145729        5
Al       0.00000001       3.93327537       1.56381909        6
Al       3.40631128       1.96664064       4.69145729        7
8
Lattice="6.812575837282723 1.3838130974680367e-15 -1.528381608872474e-45 -3.406287918641363 5.899863740294878 1.585571832616824e-45 1.1066379160772634e-45 -1.1017177648854243e-45 6.255362187941605" Properties=species:S:1:pos:R:3:tags:I:1 spacegroup="P 1" unit_cell=conventional n_minim_iter=5 stress="16.916994018922487 1.618750008379321e-14 -5.890610681448511e-16 1.618750008379321e-14 16.91699401892247 -3.114207402179006e-16 -5.890610681448511e-16 -3.114207402179006e-16 16.91699293601548" pbc="T T T"
Ti       3.40628792       3.17419288       1.56384054        0
Ti      -1.04578259       4.53703126       4.69152164        1
Ti       1.04578261       4.53703126       4.69152164        2
Ti       2.36050533       1.36284429       1.56384054        3
Ti       4.45207052       1.36284429       1.56384054        4
Ti       0.00000001       2.72568267       4.69152164        5
Al       0.00000001       3.93324840       1.56384054        6
Al       3.40628792       1.96662715       4.69152164        7
