8
Lattice="7.01795462496885 1.4261824474254136e-15 -1.5882051241712228e-45 -3.508977312484426 6.077726987829515 1.453846440189884e-45 1.4209812053077575e-45 -6.815951291022925e-46 6.279026222754003" Properties=species:S:1:pos:R:3:tags:I:1 spacegroup="P 1" unit_cell=conventional n_minim_iter=1 energy=-9894.71613635999 free_energy=-9894.71613635999 pbc="T T T"
Ti       3.50897732       3.25161811       1.56975655        0
Ti      -1.06148996       4.66467559       4.70926966        1
Ti       1.06148997       4.66467559       4.70926966        2
Ti       2.44748736       1.41306356       1.56975655        3
Ti       4.57046728       1.41306356       1.56975655        4
Ti       0.00000001       2.82612104       4.70926966        5
Al       0.00000001       4.05182407       1.56975655        6
Al       3.50897732       2.02591508       4.70926966        7
8
Lattice="7.066848877807289 1.4295452063332741e-15 -1.615719566246166e-45 -3.5334244389036464 6.120070652886667 1.4310882720826772e-45 1.3869966124523698e-45 -7.13733303159406e-46 6.192439900196106" Properties=species:S:1:pos:R:3:tags:I:1 spacegroup="P 1" unit_cell=conventional n_minim_iter=2 stress="10.17780267156636 1.354363992853868e-16 -1.2074645969092744e-15 1.354363992853868e-16 10.177802671566361 2.9652028885347185e-15 -1.2074645969092744e-15 2.9652028885347185e-15 10.212381939690298" pbc="T T T"
Ti       3.53342445       3.27383841       1.54810997        0
Ti      -1.06850970       4.69695760       4.64432992        1
Ti       1.06850972       4.69695760       4.64432992        2
Ti       2.46491473       1.42312531       1.54810997        3
Ti       4.60193416       1.42312531       1.54810997        4
Ti       0.00000001       2.84624449       4.64432992        5
Al       0.00000001       4.08005323       1.54810997        6
Al       3.53342445       2.04002968       4.64432992        7
8
Lattice="7.061841299371361 1.4504837255228787e-15 -1.5995666639717242e-45 -3.530920649685682 6.11573396274971 1.2415045798344999e-45 1.4461228270371865e-45 -7.612545405206087e-46 6.2012251791454" Properties=species:S:1:pos:R:3:tags:I:1 spacegroup="P 1" unit_cell=conventional n_minim_iter=3 stress="10.131456004402919 9.977448716995056e-16 -2.1568766891149727e-16 9.977448716995056e-16 10.131456004402922 -1.7047947545224413e-15 -2.1568766891149727e-16 -1.7047947545224413e-15 10.134138075676345" pbc="T T T"
Ti       3.53092066       3.25670571       1.55030629        0
Ti      -1.05492424       4.68622289       4.65091888        1
Ti       1.05492425       4.68622289       4.65091888        2
Ti       2.47599641       1.42952331       1.55030629        3
Ti       4.58584490       1.42952331       1.55030629        4
Ti       0.00000001       2.85904050       4.65091888        5
Al       0.00000001       4.07716210       1.55030629        6
Al       3.53092066       2.03858411       4.65091888        7
8
Lattice="7.061876426790938 1.4804215934889821e-15 -1.5911728512848858e-45 -3.530938213395471 6.1157643839874325 1.2349712924170771e-45 1.4494663828971874e-45 -7.756760668953293e-46 6.201163486619594" Properties=species:S:1:pos:R:3:tags:I:1 spacegroup="P 1" unit_cell=conventional n_minim_iter=4 stress="10.130117055707897 2.6813850942041096e-15 2.8552773588593585e-16 2.6813850942041096e-15 10.130117055707895 -4.955822806155784e-16 2.8552773588593585e-16 -4.955822806155784e-16 10.130132115363462" pbc="T T T"
Ti       3.53093822       3.25665147       1.55029087        0
Ti      -1.05486849       4.68621099       4.65087261        1
Ti       1.05486850       4.68621099       4.65087261        2
Ti       2.47606972       1.42956564       1.55029087        3
Ti       4.58580671       1.42956564       1.55029087        4
Ti       0.00000001       2.85912516       4.65087261        5
Al       0.00000001       4.07718238       1.55029087        6
Al       3.53093822       2.03859425       4.65087261        7
