8
Lattice="6.51252476358637 1.4492223021537495e-15 -1.407569975397642e-45 -3.2562623817931864 5.64001188804104 6.886085446693749e-46 1.3186301959945029e-45 1.641694663626153e-47 6.1010194558895225" Properties=species:S:1:pos:R:3:tags:I:1 spacegroup="P 1" unit_cell=conventional n_minim_iter=1 energy=-10498.113821157274 free_energy=-10498.113821157274 pbc="T T T"
Ti       3.25626239       3.15176757       1.52525486        0
Ti      -1.10137470       4.39589255       4.57576459        1
Ti       1.10137471       4.39589255       4.57576459        2
Ti       2.15488768       1.24413063       1.52525486        3
Ti       4.35763709       1.24413063       1.52525486        4
Ti       0.00000001       2.48825561       4.57576459        5
Al       0.00000001       3.76001357       1.52525486        6
Al       3.25626239       1.88000961       4.57576459        7
8
Lattice="6.521477432828029 1.43619131939602e-15 -1.415861601513335e-45 -3.2607387164140156 5.6477651270359965 6.7138924279714185e-46 1.3065543784483824e-45 -1.4454571546996053e-48 6.0842800227161185" Properties=species:S:1:pos:R:3:tags:I:1 spacegroup="P 1" unit_cell=conventional n_minim_iter=2 stress="5.5240875523801085 2.0773452987934618e-14 -5.529489333624766e-15 2.0773452987934618e-14 5.524087552380044 3.778974435718193e-15 -5.529489333624766e-15 3.778974435718193e-15 5.606800890983109" pbc="T T T"
Ti       3.26073872       3.15587102       1.52107000        0
Ti      -1.10269021       4.40182090       4.56321001        1
Ti       1.10269022       4.40182090       4.56321001        2
Ti       2.15804851       1.24595553       1.52107000        3
Ti       4.36342894       1.24595553       1.52107000        4
Ti       0.00000001       2.49190542       4.56321001        5
Al       0.00000001       3.76518240       1.52107000        6
Al       3.26073872       1.88259403       4.56321001        7
8
Lattice="6.503910400530631 1.430234424249469e-15 -1.400255841815061e-45 -3.2519552002653165 5.632551630797345 6.740258160884283e-46 1.3202939327824217e-45 -2.901572770099478e-48 6.1171916349542235" Properties=species:S:1:pos:R:3:tags:I:1 spacegroup="P 1" unit_cell=conventional n_minim_iter=3 stress="4.76140960486961 -8.474024452505929e-15 -3.714847277347356e-15 -8.474024452505929e-15 4.761409604869357 3.168837759877147e-16 -3.714847277347356e-15 3.168837759877147e-16 5.363236115949933" pbc="T T T"
Ti       3.25195521       3.10742289       1.52929791        0
Ti      -1.06512468       4.36999008       4.58789372        1
Ti       1.06512469       4.36999008       4.58789372        2
Ti       2.18683052       1.26257282       1.52929791        3
Ti       4.31707989       1.26257282       1.52929791        4
Ti       0.00000001       2.52514001       4.58789372        5
Al       0.00000001       3.75504006       1.52929791        6
Al       3.25195521       1.87752285       4.58789372        7
8
Lattice="6.507130324758604 1.428381390548658e-15 -1.3631068067441627e-45 -3.253565162379303 5.6353401669770316 6.735015487920416e-46 1.3365112589311473e-45 8.905661099650337e-47 6.111139191169837" Properties=species:S:1:pos:R:3:tags:I:1 spacegroup="P 1" unit_cell=conventional n_minim_iter=4 stress="4.999730252402789 -3.3144687828641987e-14 -5.0819561049073185e-15 -3.3144687828641987e-14 4.999730252402642 1.13474623823893e-14 -5.0819561049073185e-15 1.13474623823893e-14 4.888201448325786" pbc="T T T"
Ti       3.25356517       3.11009030       1.52778479        0
Ti      -1.06662974       4.37271806       4.58335439        1
Ti       1.06662975       4.37271806       4.58335439        2
Ti       2.18693542       1.26263339       1.52778479        3
Ti       4.32019491       1.26263339       1.52778479        4
Ti       0.00000001       2.52526114       4.58335439        5
Al       0.00000001       3.75689908       1.52778479        6
Al       3.25356517       1.87845236       4.58335439        7
8
Lattice="6.506567015129507 1.4309938956797635e-15 -1.3533706232169995e-45 -3.2532835075647544 5.634852326528041 6.639569767262631e-46 1.3591912587966664e-45 1.8493979818318163e-46 6.112197387468958" Properties=species:S:1:pos:R:3:tags:I:1 spacegroup="P 1" unit_cell=conventional n_minim_iter=5 stress="4.925270109452988 -6.833457885704024e-14 -8.727214894133343e-15 -6.833457885704024e-14 4.925270109453118 1.235115417392432e-15 -8.727214894133343e-15 1.235115417392432e-15 4.846904472960779" pbc="T T T"
Ti       3.25328351       3.10812234       1.52804934        0
Ti      -1.06506626       4.37149015       4.58414804        1
Ti       1.06506627       4.37149015       4.58414804        2
Ti       2.18821725       1.26337346       1.52804934        3
Ti       4.31834978       1.26337346       1.52804934        4
Ti       0.00000001       2.52674127       4.58414804        5
Al       0.00000001       3.75657386       1.52804934        6
Al       3.25328351       1.87828975       4.58414804        7
8
Lattice="6.5062216247076625 1.4334648896093414e-15 -1.4525547619360174e-45 -3.253110812353832 5.634553209648499 5.874255811042782e-46 1.3862497346484113e-45 9.459194780751809e-46 6.11284635105821" Properties=species:S:1:pos:R:3:tags:I:1 spacegroup="P 1" unit_cell=conventional n_minim_iter=6 stress="4.9043554468019455 -8.373270284656813e-14 -1.2261781977045518e-14 -8.373270284656813e-14 4.9043554468019295 4.960351876781294e-15 -1.2261781977045518e-14 4.960351876781294e-15 4.915386202031018" pbc="T T T"
Ti       3.25311082       3.10804664       1.52821158        0
Ti      -1.06508705       4.37130274       4.58463476        1
Ti       1.06508706       4.37130274       4.58463476        2
Ti       2.18802377       1.26326175       1.52821158        3
Ti       4.31819787       1.26326175       1.52821158        4
Ti       0.00000001       2.52651785       4.58463476        5
Al       0.00000001       3.75637445       1.52821158        6
Al       3.25311082       1.87819004       4.58463476        7
8
Lattice="6.50626572358592 1.4348400712434064e-15 -1.52917716751137e-45 -3.253132861792961 5.634591400397349 3.1936292326391057e-46 1.2427364291383093e-45 7.387355803436714e-46 6.112763486704067" Properties=species:S:1:pos:R:3:tags:I:1 spacegroup="P 1" unit_cell=conventional n_minim_iter=7 stress="4.907020100721607 -1.1169023036610889e-13 -5.621593539575152e-15 -1.1169023036610889e-13 4.907020100721675 1.210085860357098e-14 -5.621593539575152e-15 1.210085860357098e-14 4.906618420165602" pbc="T T T"
Ti       3.25313287       3.10805599       1.52819087        0
Ti      -1.06508412       4.37132652       4.58457261        1
Ti       1.06508414       4.37132652       4.58457261        2
Ti       2.18804874       1.26327616       1.52819087        3
Ti       4.31821700       1.26327616       1.52819087        4
Ti       0.00000001       2.52654669       4.58457261        5
Al       0.00000001       3.75639991       1.52819087        6
Al       3.25313287       1.87820277       4.58457261        7
