8
Lattice="6.812575837282723 1.3838130974680367e-15 -1.528381608872474e-45 -3.406287918641363 5.899863740294878 1.585571832616824e-45 1.1066379160772634e-45 -1.1017177648854243e-45 6.255362187941605" Properties=species:S:1:pos:R:3:tags:I:1 spacegroup="P 1" unit_cell=conventional n_minim_iter=5 stress="16.916994018922487 1.618750008379321e-14 -5.890610681448511e-16 1.618750008379321e-14 16.91699401892247 -3.114207402179006e-16 -5.890610681448511e-16 -3.114207402179006e-16 16.91699293601548" pbc="T T T"
Ti       3.40628792       3.17419288       1.56384054        0
Ti      -1.04578259       4.53703126       4.69152164        1
Ti       1.04578261       4.53703126       4.69152164        2
Ti       2.36050533       1.36284429       1.56384054        3
Ti       4.45207052       1.36284429       1.56384054        4
Ti       0.00000001       2.72568267       4.69152164        5
Al       0.00000001       3.93324840       1.56384054        6
Al       3.40628792       1.96662715       4.69152164        7
