8
Lattice="7.10959325550323 1.4904247455309095e-15 -1.6019243453365755e-45 -3.554796627751617 6.1570883698403085 1.2433159461696269e-45 1.4592603717660015e-45 -7.809172803892177e-46 6.243064510940181" Properties=species:S:1:pos:R:3:tags:I:1 spacegroup="P 1" unit_cell=conventional n_minim_iter=4 stress="10.130117055707897 2.6813850942041096e-15 2.8552773588593585e-16 2.6813850942041096e-15 10.130117055707895 -4.955822806155784e-16 2.8552773588593585e-16 -4.955822806155784e-16 10.130132115363462" pbc="T T T"
Ti       3.55479663       3.27865654       1.56076612        0
Ti      -1.06199619       4.71787553       4.68229838        1
Ti       1.06199621       4.71787553       4.68229838        2
Ti       2.49280043       1.43922516       1.56076612        3
Ti       4.61679283       1.43922516       1.56076612        4
Ti       0.00000001       2.87844416       4.68229838        5
Al       0.00000001       4.10473174       1.56076612        6
Al       3.55479663       2.05236895       4.68229838        7
