8
Lattice="6.861588859413615 1.393768929680581e-15 -1.5393775380788923e-45 -3.430794429706809 5.94231026257648 1.5969792164285196e-45 1.114599613674044e-45 -1.1096440644939824e-45 6.300366340948821" Properties=species:S:1:pos:R:3:tags:I:1 spacegroup="P 1" unit_cell=conventional n_minim_iter=5 stress="16.916994018922487 1.618750008379321e-14 -5.890610681448511e-16 1.618750008379321e-14 16.91699401892247 -3.114207402179006e-16 -5.890610681448511e-16 -3.114207402179006e-16 16.91699293601548" pbc="T T T"
Ti       3.43079444       3.19702959       1.57509158        0
Ti      -1.05330647       4.56967290       4.72527475        1
Ti       1.05330648       4.56967290       4.72527475        2
Ti       2.37748796       1.37264926       1.57509158        3
Ti       4.48410091       1.37264926       1.57509158        4
Ti       0.00000001       2.74529257       4.72527475        5
Al       0.00000001       3.96154612       1.57509158        6
Al       3.43079444       1.98077603       4.72527475        7
