8
Lattice="6.721914694590485 1.4067045596784945e-15 -1.5205265701058543e-45 -3.3609573472952423 5.821348887587275 1.6105618484506448e-45 1.8252211120116536e-45 -3.716964503844806e-46 6.285558156392435" Properties=species:S:1:pos:R:3:tags:I:1 spacegroup="P 1" unit_cell=conventional n_minim_iter=5 stress="16.236164815406212 -2.6754741418500758e-14 7.474276324612981e-15 -2.6754741418500758e-14 16.236164815406244 2.6211713972084044e-15 7.474276324612981e-15 2.6211713972084044e-15 16.236164747783278" pbc="T T T"
Ti       3.36095735       3.13566968       1.57138954        0
Ti      -1.03508588       4.47851220       4.71416861        1
Ti       1.03508589       4.47851220       4.71416861        2
Ti       2.32587147       1.34284834       1.57138954        3
Ti       4.39604324       1.34284834       1.57138954        4
Ti       0.00000001       2.68569086       4.71416861        5
Al       0.00000001       3.88090508       1.57138954        6
Al       3.36095735       1.94045546       4.71416861        7
