8
Lattice="6.42783584277034 1.4958936431738165e-15 -3.774790519288448e-45 -3.2139179213851703 5.566669131195271 1.6625920697261434e-44 2.9504142867508714e-45 -1.3910426342329232e-44 5.193578396591359" Properties=species:S:1:pos:R:3:tags:I:1 spacegroup="P 1" unit_cell=conventional n_minim_iter=6 stress="-2.870569334995677 3.956406092647244e-15 1.0332309728236176e-14 3.956406092647244e-15 -2.870569334995597 1.898812639464322e-15 1.0332309728236176e-14 1.898812639464322e-15 -2.8705744439384797" pbc="T T T"
Ti       3.21391793       3.74788906       1.29839460        0
Ti      -1.63880335       4.65728188       3.89518379        1
Ti       1.63880336       4.65728188       3.89518379        2
Ti       1.57511458       0.90939839       1.29839460        3
Ti       4.85272128       0.90939839       1.29839460        4
Ti       0.00000001       1.81879121       3.89518379        5
Al       0.00000001       3.71111833       1.29839460        6
Al       3.21391793       1.85556195       3.89518379        7
