8
Lattice="6.519047155103264 1.5830043018125001e-15 -3.93332419543312e-45 -3.2595235775516356 5.645660444788099 1.82197290228428e-44 8.524641483327425e-46 5.297240929201299e-47 5.643294049971977" Properties=species:S:1:pos:R:3:tags:I:1 spacegroup="P 1" unit_cell=conventional n_minim_iter=10 stress="-2.212802451456001 -2.2176166660323555e-14 1.199342505184112e-14 -2.2176166660323555e-14 -2.2128024514558478 1.9301703392283978e-14 1.199342505184112e-14 1.9301703392283978e-14 -2.2129792392580705" pbc="T T T"
Ti       3.25952358       3.52455868       1.41082351        0
Ti      -1.42259067       4.58511239       4.23247053        1
Ti       1.42259068       4.58511239       4.23247053        2
Ti       1.83693291       1.06055936       1.41082351        3
Ti       4.68211426       1.06055936       1.41082351        4
Ti       0.00000001       2.12111306       4.23247053        5
Al       0.00000001       3.76377928       1.41082351        6
Al       3.25952358       1.88189247       4.23247053        7
