8
Lattice="7.061876426790938 1.4804215934889821e-15 -1.5911728512848858e-45 -3.530938213395471 6.1157643839874325 1.2349712924170771e-45 1.4494663828971874e-45 -7.756760668953293e-46 6.201163486619594" Properties=species:S:1:pos:R:3:tags:I:1 spacegroup="P 1" unit_cell=conventional n_minim_iter=4 stress="10.130117055707897 2.6813850942041096e-15 2.8552773588593585e-16 2.6813850942041096e-15 10.130117055707895 -4.955822806155784e-16 2.8552773588593585e-16 -4.955822806155784e-16 10.130132115363462" pbc="T T T"
Ti       3.53093822       3.25665147       1.55029087        0
Ti      -1.05486849       4.68621099       4.65087261        1
Ti       1.05486850       4.68621099       4.65087261        2
Ti       2.47606972       1.42956564       1.55029087        3
Ti       4.58580671       1.42956564       1.55029087        4
Ti       0.00000001       2.85912516       4.65087261        5
Al       0.00000001       4.07718238       1.55029087        6
Al       3.53093822       2.03859425       4.65087261        7
