8
Lattice="6.658269479806801 1.4900496587358365e-15 -1.8647365871647338e-45 -3.329134739903401 5.76623051475529 1.2377972125375885e-45 1.6834743644204456e-45 -4.380842383996893e-46 6.26393537400997" Properties=species:S:1:pos:R:3:tags:I:1 spacegroup="P 1" unit_cell=conventional n_minim_iter=6 stress="13.584795226270113 -9.81854552686125e-14 -1.1757453373390707e-14 -9.81854552686125e-14 13.584795226270254 6.348872666559276e-15 -1.1757453373390707e-14 6.348872666559276e-15 13.585167769306603" pbc="T T T"
Ti       3.32913475       3.11261813       1.56598384        0
Ti      -1.03103400       4.43942721       4.69795153        1
Ti       1.03103401       4.43942721       4.69795153        2
Ti       2.29810074       1.32681485       1.56598384        3
Ti       4.36016875       1.32681485       1.56598384        4
Ti       0.00000001       2.65362393       4.69795153        5
Al       0.00000001       3.84415945       1.56598384        6
Al       3.32913475       1.92208261       4.69795153        7
