65
Lattice="10.908168980085632 0.0 0.0 0.0 10.908168980085632 0.0 0.0 0.0 10.908168980085632" Properties=species:S:1:pos:R:3:forces:R:3 cutoff=-1.0 nneightol=1.2 Zs=14 interstitial_position="mean 4 5 6 7" bulk_struct_test=bulk_Si_diamond supercell_a1_in_bulk_lattice_coords="2 2 -2" n_minim_iter=0 energy=-10602.98384961486 stress="-0.007956354841900543 1.0957259727406521e-10 1.0957255862732497e-10 1.0957259727406521e-10 -0.007956354841900512 1.0957243527477824e-10 1.0957255862732497e-10 1.0957243527477824e-10 -0.007956354841900362" free_energy=-10602.98384961486 pbc="T T T"
Si      -0.07245905      -0.07245905      -0.07245905      -0.00033082      -0.00033082      -0.00033082
Si       2.72704224       2.72704224      -0.02962284       0.00000000       0.00000000      -0.00097449
Si       2.72704224      -0.02962284       2.72704224       0.00000000      -0.00097449       0.00000000
Si      -0.02962284       2.72704224       2.72704224      -0.00097449       0.00000000       0.00000000
Si       1.28693476       1.28693476       1.28693476      -0.00366431      -0.00366431      -0.00366431
Si       4.16714972       4.16714972       1.28693476       0.00366431       0.00366431      -0.00366431
Si       4.16714972       1.28693476       4.16714972       0.00366431      -0.00366431       0.00366431
Si       1.28693476       4.16714972       4.16714972      -0.00366431       0.00366431       0.00366431
Si      -0.00412289      -0.00412289       5.45820738       0.00245249       0.00245249      -0.00245247
Si       2.72704224       2.72704224       5.48370732       0.00000001       0.00000001       0.00097449
Si       2.72704224       0.00426096       8.18112673       0.00000002      -0.00036322       0.00000000
Si       0.00426096       2.72704224       8.18112673      -0.00036322       0.00000002       0.00000000
Si       1.35090201       1.35090201       6.82258730       0.00144165       0.00144165       0.00267178
Si       4.10318248       4.10318248       6.82258730      -0.00144167      -0.00144167       0.00267179
Si       4.10318248       1.35090201       9.53966617      -0.00144168       0.00144166      -0.00267179
Si       1.35090201       4.10318248       9.53966617       0.00144166      -0.00144168      -0.00267179
Si      -0.00412289       5.45820738      -0.00412289       0.00245249      -0.00245247       0.00245249
Si       2.72704224       8.18112673       0.00426096       0.00000002       0.00000000      -0.00036322
Si       2.72704224       5.48370732       2.72704224       0.00000001       0.00097449       0.00000001
Si       0.00426096       8.18112673       2.72704224      -0.00036322       0.00000000       0.00000002
Si       1.35090201       6.82258730       1.35090201       0.00144165       0.00267178       0.00144165
Si       4.10318248       9.53966617       1.35090201      -0.00144168      -0.00267179       0.00144166
Si       4.10318248       6.82258730       4.10318248      -0.00144167       0.00267179      -0.00144167
Si       1.35090201       9.53966617       4.10318248       0.00144166      -0.00267179      -0.00144168
Si      -0.07245905       5.52654354       5.52654354      -0.00033080       0.00033082       0.00033082
Si       2.72704224       8.18112673       5.44982353       0.00000002      -0.00000000       0.00036324
Si       2.72704224       5.44982353       8.18112673       0.00000002       0.00036324      -0.00000000
Si       0.00421958       8.18112673       8.18112673       0.00060791       0.00000000       0.00000000
Si       1.37567273       6.83052727       6.83052727       0.00136925      -0.00312069      -0.00312069
Si       4.07841176       9.53172619       6.83052727      -0.00136927       0.00312068      -0.00312069
Si       4.07841176       6.83052727       9.53172619      -0.00136927      -0.00312069       0.00312068
Si       1.37567273       9.53172619       9.53172619       0.00136925       0.00312069       0.00312069
Si       5.45820738      -0.00412289      -0.00412289      -0.00245247       0.00245249       0.00245249
Si       8.18112673       2.72704224       0.00426096       0.00000000       0.00000002      -0.00036322
Si       8.18112673       0.00426096       2.72704224       0.00000000      -0.00036322       0.00000002
Si       5.48370732       2.72704224       2.72704224       0.00097449       0.00000001       0.00000001
Si       6.82258730       1.35090201       1.35090201       0.00267178       0.00144165       0.00144165
Si       9.53966617       4.10318248       1.35090201      -0.00267179      -0.00144168       0.00144166
Si       9.53966617       1.35090201       4.10318248      -0.00267179       0.00144166      -0.00144168
Si       6.82258730       4.10318248       4.10318248       0.00267179      -0.00144167      -0.00144167
Si       5.52654354      -0.07245905       5.52654354       0.00033082      -0.00033080       0.00033082
Si       8.18112673       2.72704224       5.44982353      -0.00000000       0.00000002       0.00036324
Si       8.18112673       0.00421958       8.18112673       0.00000000       0.00060791       0.00000000
Si       5.44982353       2.72704224       8.18112673       0.00036324       0.00000002      -0.00000000
Si       6.83052727       1.37567273       6.83052727      -0.00312069       0.00136925      -0.00312069
Si       9.53172619       4.07841176       6.83052727       0.00312068      -0.00136927      -0.00312069
Si       9.53172619       1.37567273       9.53172619       0.00312069       0.00136925       0.00312069
Si       6.83052727       4.07841176       9.53172619      -0.00312069      -0.00136927       0.00312068
Si       5.52654354       5.52654354      -0.07245905       0.00033082       0.00033082      -0.00033080
Si       8.18112673       8.18112673       0.00421958       0.00000000       0.00000000       0.00060791
Si       8.18112673       5.44982353       2.72704224      -0.00000000       0.00036324       0.00000002
Si       5.44982353       8.18112673       2.72704224       0.00036324      -0.00000000       0.00000002
Si       6.83052727       6.83052727       1.37567273      -0.00312069      -0.00312069       0.00136925
Si       9.53172619       9.53172619       1.37567273       0.00312069       0.00312069       0.00136925
Si       9.53172619       6.83052727       4.07841176       0.00312068      -0.00312069      -0.00136927
Si       6.83052727       9.53172619       4.07841176      -0.00312069       0.00312068      -0.00136927
Si       5.45820738       5.45820738       5.45820738      -0.00245247      -0.00245247      -0.00245247
Si       8.18112673       8.18112673       5.44986491       0.00000000       0.00000000      -0.00060790
Si       8.18112673       5.44986491       8.18112673       0.00000000      -0.00060790       0.00000000
Si       5.44986491       8.18112673       8.18112673      -0.00060790       0.00000000       0.00000000
Si       6.81917474       6.81917474       6.81917474       0.00164866       0.00164866       0.00164866
Si       9.54307872       9.54307872       6.81917474      -0.00164867      -0.00164867       0.00164866
Si       9.54307872       6.81917474       9.54307872      -0.00164867       0.00164866      -0.00164867
Si       6.81917474       9.54307872       9.54307872       0.00164866      -0.00164867      -0.00164867
Si       2.72704224       2.72704224       2.72704224      -0.00000000      -0.00000000      -0.00000000
