10
Lattice="7.730127835762848 -0.21166743878416172 0.22565009569793587 -3.700590425878475 4.768592957510239 0.830250074048437 -1.8223481505106833 -1.38557946349422 5.6464484632953535" Properties=species:S:1:pos:R:3 unique_starting_index=21 config_type=initial n_minim_iter=1 energy=-1625.402199576516 free_energy=-1625.402199576516 pbc="T T T"
Si       2.61690241       0.04988168       6.19714856
Si      -0.11297554       0.43786290       3.66661640
Si      -0.25202466       2.25868181       2.20883567
Si       1.20868190       4.18050165       2.45060238
Si       2.00773996       1.21957562       3.06639840
Si      -1.49865142       2.99192280       5.62729709
Si       3.22188757       3.31171275       3.12373858
Si      -2.81068243       0.95974303       5.68474385
Si       0.25131176       0.85681015       6.10533737
Si      -0.69023148       3.93537999       3.70007855
10
Lattice="7.672637091807366 -0.20771240597415444 0.26490870912711834 -3.666298521581632 4.7294098537911875 0.789609780250297 -1.77959577539122 -1.39358896083294 5.596739649475403" Properties=species:S:1:pos:R:3 unique_starting_index=21 config_type=initial n_minim_iter=2 stress="-0.009988179264804223 -0.0022240666830440708 -0.0019975821510660307 -0.0022240666830440708 -0.011680483142746573 0.000922590092877989 -0.0019975821510660307 0.000922590092877989 -0.00846862635729845" pbc="T T T"
Si       2.62669622       0.04019100       6.16327086
Si      -0.09718074       0.41879729       3.64275285
Si      -0.23550247       2.23005845       2.18238012
Si       1.21628425       4.14490954       2.42018057
Si       2.00998110       1.21390619       3.03899044
Si      -1.45381223       2.93749343       5.57133413
Si       3.21611411       3.27326265       3.10422575
Si      -2.75578801       0.93684438       5.61849274
Si       0.27564171       0.83536597       6.06293900
Si      -0.66374796       3.89443868       3.65472820
10
Lattice="7.636008847177145 -0.12703367750473019 0.5826908820810887 -3.558297897799435 4.6786305050879 0.5170721495898949 -1.5540404788583226 -1.5471255145840064 5.478119364590136" Properties=species:S:1:pos:R:3 unique_starting_index=21 config_type=initial n_minim_iter=3 stress="-0.01590257040884844 -0.01073659328860388 -0.0025921211582692776 -0.01073659328860388 -0.01695666582570946 -0.0035819692984075517 -0.0025921211582692776 -0.0035819692984075517 -0.006625648420466677" pbc="T T T"
Si       2.84620275      -0.00322192       6.19502323
Si       0.02411760       0.29632135       3.63205666
Si      -0.10425360       2.13886958       2.08450954
Si       1.37592253       4.13153650       2.30587275
Si       2.14231349       1.26220487       2.97472550
Si      -1.15970122       2.68622419       5.41034145
Si       3.37226615       3.20084574       3.10720500
Si      -2.47174888       0.79786968       5.37413399
Si       0.49010754       0.72543100       6.02179435
Si      -0.46346312       3.80856533       3.48432717
10
Lattice="7.6633834028349135 0.04636788017108191 0.8159216288127362 -3.436299625184054 4.6164784307023545 0.35310793576450594 -1.419823492530303 -1.6419151961839173 5.341622334841672" Properties=species:S:1:pos:R:3 unique_starting_index=21 config_type=initial n_minim_iter=4 stress="-0.022315866135667054 -0.0071854974318574195 0.0008047529453092999 -0.0071854974318574195 -0.023821445764029694 -0.003534875728131546 0.0008047529453092999 -0.003534875728131546 -0.016325559224633825" pbc="T T T"
Si       3.03458673       0.05727590       6.17969073
Si       0.12043931       0.23902323       3.59974807
Si       0.02250992       2.09279540       2.01653120
Si       1.56919989       4.18431938       2.24297680
Si       2.26861912       1.35376284       2.92330718
Si      -0.90750700       2.55298995       5.28322917
Si       3.55869390       3.24202640       3.12084737
Si      -2.26899901       0.70847221       5.16943929
Si       0.66992592       0.70408176       5.95403832
Si      -0.26865845       3.79061300       3.37809888
10
Lattice="7.777909487231755 0.18064214757994562 0.9003422646344382 -3.3981960763561987 4.62395326395982 0.3247999886564294 -1.409409575499505 -1.6791088538362395 5.313034302424332" Properties=species:S:1:pos:R:3 unique_starting_index=21 config_type=initial n_minim_iter=5 stress="0.0013885820858775654 -0.00137103112007558 -0.0011843699517969824 -0.00137103112007558 0.00012721516247423865 0.0006538599675947979 -0.0011843699517969824 0.0006538599675947979 0.0022657972093807965" pbc="T T T"
Si       3.14203195       0.15304943       6.21137249
Si       0.14638907       0.23515130       3.61398383
Si       0.08324078       2.09251449       2.00837246
Si       1.71234244       4.29496061       2.24715514
Si       2.34754136       1.44056451       2.91948279
Si      -0.80139790       2.55727535       5.28879333
Si       3.70258605       3.34126712       3.15674252
Si      -2.22002696       0.69552062       5.12609840
Si       0.74627769       0.74411895       5.96567560
Si      -0.18263771       3.85554229       3.39477318
10
Lattice="7.829345089746413 0.35381852290164895 1.1119469698763322 -3.2888640040863684 4.614168150648209 0.16494312172856504 -1.298564426933638 -1.8041908042914525 5.214691396818184" Properties=species:S:1:pos:R:3 unique_starting_index=21 config_type=initial n_minim_iter=6 stress="0.006424766600139948 0.0020351031278319515 0.002070380864833194 0.0020351031278319515 0.007196377216865853 -0.0005869484397084169 0.002070380864833194 -0.0005869484397084169 0.004822351412568931" pbc="T T T"
Si       3.34054080       0.21213287       6.23298794
Si       0.20976057       0.16315368       3.58883065
Si       0.18466221       2.02540431       1.93639456
Si       1.93670922       4.42438058       2.17736283
Si       2.44909494       1.50437848       2.88894698
Si      -0.55987716       2.48799775       5.18893184
Si       3.88793502       3.41412188       3.16336121
Si      -2.03707855       0.60175215       4.95950357
Si       0.92993626       0.70536980       5.90208438
Si      -0.02446381       3.88958850       3.32942342
10
Lattice="7.793777225428969 0.42678135269242434 1.0874851305652513 -3.2297824078204926 4.610860955316949 0.17307240310939467 -1.3201430295170766 -1.823855643129843 5.16258270466363" Properties=species:S:1:pos:R:3 unique_starting_index=21 config_type=initial n_minim_iter=7 stress="0.00801389107791364 0.007906495603118985 -0.0021101830045591524 0.007906495603118985 0.009191258952649701 0.0048900786773454896 -0.0021101830045591524 0.0048900786773454896 0.0012917469593851526" pbc="T T T"
Si       3.34482788       0.28248603       6.19868196
Si       0.14936204       0.14546452       3.54535236
Si       0.17497925       1.96095664       1.89970337
Si       2.02285890       4.52604813       2.13562398
Si       2.41095710       1.48904044       2.87161487
Si      -0.52592509       2.55707588       5.14500063
Si       3.89023826       3.45500279       3.10694700
Si      -2.00587424       0.59152270       4.91045184
Si       0.94631113       0.70448634       5.81108888
Si      -0.03266902       3.93664386       3.34466648
10
Lattice="7.722705000721676 0.21474289945086622 1.1723549928553603 -3.3132737741049487 4.636210629225435 0.05391430611946783 -1.20704399720345 -1.8673411576452157 5.2470201679523045" Properties=species:S:1:pos:R:3 unique_starting_index=21 config_type=initial n_minim_iter=8 stress="0.0045750893371803054 -0.0011688074527700276 0.0033631996637168062 -0.0011688074527700276 0.007811144839131437 -0.004373125939404564 0.0033631996637168062 -0.004373125939404564 0.0064992120061902635" pbc="T T T"
Si       3.40302163       0.10975676       6.32782541
Si       0.14232232       0.05707904       3.57481282
Si       0.13530739       1.86673517       1.88630116
Si       1.93251560       4.41854396       2.08595025
Si       2.36214529       1.34397767       2.91956862
Si      -0.53035077       2.47917573       5.16100210
Si       3.79488831       3.25004060       3.10710483
Si      -1.93016499       0.55294264       4.93485061
Si       1.00232262       0.55528668       5.85470062
Si      -0.10623416       3.84102287       3.32316387
10
Lattice="7.685377570252747 0.14030596688716201 1.0892312410552114 -3.3529203173350974 4.612193479136419 0.12282540960277508 -1.2442926309201223 -1.796222737527968 5.268283321012309" Properties=species:S:1:pos:R:3 unique_starting_index=21 config_type=initial n_minim_iter=9 stress="-0.003965178045539018 -0.003855779765836365 -0.0008798601068973897 -0.003855779765836365 -0.004159888139073479 -0.0014136635309591023 -0.0008798601068973897 -0.0014136635309591023 -0.0005834442896326099" pbc="T T T"
Si       3.33554831       0.11181148       6.32127043
Si       0.09082982       0.07889626       3.57156266
Si       0.08876158       1.86119007       1.90900153
Si       1.85135332       4.35671158       2.10853266
Si       2.29751914       1.30588286       2.92952651
Si      -0.61846453       2.51352822       5.20326360
Si       3.70926551       3.19074657       3.09313079
Si      -1.98269994       0.59956220       4.98394366
Si       0.94169278       0.56792518       5.85114304
Si      -0.17791449       3.81212804       3.35498308
10
Lattice="7.7126860429745125 0.2380812395114899 1.0947476078712544 -3.308875803379509 4.526185260889985 0.17200821658230175 -1.2599401441002211 -1.7276087805944842 5.185799616178538" Properties=species:S:1:pos:R:3 unique_starting_index=21 config_type=initial n_minim_iter=10 stress="-0.012049558141604655 0.001829834181835054 -0.0016856374917919921 0.001829834181835054 -0.016401981825084056 0.004280861222189984 -0.0016856374917919921 0.004280861222189984 -0.014867129542047091" pbc="T T T"
Si       3.40014689       0.26777811       6.29842548
Si       0.03487668       0.09116598       3.52097655
Si       0.09995075       1.84609233       1.91793316
Si       1.91876194       4.37913866       2.14580429
Si       2.27241392       1.35460433       2.91398352
Si      -0.56435671       2.56154430       5.22233627
Si       3.75151798       3.20691579       3.08601866
Si      -1.93965966       0.64565065       4.92857454
Si       0.98904567       0.62568571       5.76396642
Si      -0.11180380       3.79936945       3.34664277
10
Lattice="7.740034826852376 0.2496949995069944 1.0898062636112855 -3.3173700239558803 4.488679601493777 0.20655187117856338 -1.2703737219391522 -1.6785091125803397 5.173452414180098" Properties=species:S:1:pos:R:3 unique_starting_index=21 config_type=initial n_minim_iter=11 stress="-0.013690530162391414 0.00021686087652440022 -0.0030686436629449804 0.00021686087652440022 -0.016999981465414368 0.003723849869332918 -0.0030686436629449804 0.003723849869332918 -0.014786651850285073" pbc="T T T"
Si       3.46321492       0.36137560       6.33964329
Si      -0.04225323       0.07725658       3.49879673
Si       0.08170627       1.83850148       1.94202522
Si       1.92543107       4.37947711       2.18699941
Si       2.21360680       1.36202767       2.92437342
Si      -0.55205745       2.61097477       5.29361602
Si       3.74691710       3.17382215       3.08367201
Si      -1.91324185       0.69374653       4.93246700
Si       1.02752916       0.63765041       5.72011108
Si      -0.08216618       3.77404389       3.33774345
10
Lattice="7.838178631120839 0.29509458861728927 1.139059536936946 -3.331665957680334 4.473400298312753 0.21306610084083166 -1.2652225771292784 -1.6576282724873903 5.177662193153474" Properties=species:S:1:pos:R:3 unique_starting_index=21 config_type=initial n_minim_iter=12 stress="-0.0020267572568031253 -2.180677292582299e-05 0.0010449097508199977 -2.180677292582299e-05 -0.004617717395173049 0.0007016859894707116 0.0010449097508199977 0.0007016859894707116 -0.0027142354820810497" pbc="T T T"
Si       3.59537065       0.46089198       6.42159054
Si      -0.08922091       0.05511181       3.49154632
Si       0.08181816       1.85986074       1.97258993
Si       1.97367090       4.40998090       2.25382821
Si       2.20479993       1.37897409       2.96280572
Si      -0.50097657       2.67365036       5.36995499
Si       3.80313340       3.17961820       3.12065046
Si      -1.87369526       0.73480846       4.94753390
Si       1.11492678       0.64889228       5.70491875
Si      -0.00789150       3.76928794       3.32768978
10
Lattice="7.821189829699559 0.2958699673688722 1.0880578590789631 -3.3276569790598165 4.521005774224814 0.22772830004574193 -1.300023682346149 -1.686372379882657 5.199109633505459" Properties=species:S:1:pos:R:3 unique_starting_index=21 config_type=initial n_minim_iter=13 stress="0.003722919222240623 -0.0009011155244702707 -0.0016913863241329432 -0.0009011155244702707 0.008130543541184617 -0.001746325973145431 -0.0016913863241329432 -0.001746325973145431 0.005728216978413292" pbc="T T T"
Si       3.57566736       0.47487153       6.41843991
Si      -0.13917513       0.02410813       3.48609588
Si       0.05244731       1.87942970       1.97412956
Si       1.95867522       4.45801836       2.25275600
Si       2.16634726       1.35945257       2.97061388
Si      -0.53622939       2.72868842       5.37765628
Si       3.75960276       3.19238950       3.09652678
Si      -1.89471684       0.75194697       4.97643308
Si       1.10068869       0.62776764       5.67647172
Si      -0.01982755       3.79681434       3.31590667
10
Lattice="7.861969041921058 0.32775613507244034 1.1466541091635347 -3.3219903134885307 4.4784186437626134 0.21432779743955493 -1.2711735844921523 -1.6649281020563158 5.172032649697777" Properties=species:S:1:pos:R:3 unique_starting_index=21 config_type=initial n_minim_iter=14 stress="0.0058367118996389975 -0.00040833540854979324 0.002404709959547797 -0.00040833540854979324 0.005158276992528526 -0.001336163314063138 0.002404709959547797 -0.001336163314063138 0.006015370416265462" pbc="T T T"
Si       3.69011952       0.56017306       6.45919967
Si      -0.17352456      -0.01427833       3.46457331
Si       0.04854130       1.84702310       1.97690436
Si       2.01825505       4.47407153       2.28435542
Si       2.17654574       1.33620086       3.00421731
Si      -0.48201420       2.76934927       5.37493318
Si       3.78205619       3.15355421       3.12293877
Si      -1.83077161       0.79472476       4.95511983
Si       1.19075543       0.62058882       5.62743775
Si       0.02433208       3.77863933       3.31395229
10
Lattice="7.883872992044944 0.3930767722739874 1.1310464607726842 -3.297053722225241 4.418112749982306 0.2672588578912228 -1.2962523198154976 -1.6045351395414043 5.119268280259045" Properties=species:S:1:pos:R:3 unique_starting_index=21 config_type=initial n_minim_iter=15 stress="-4.4687537838487255e-05 0.0003329200043866559 0.0022550411395904917 0.0003329200043866559 -0.002763455587635705 0.0002161868230240696 0.0022550411395904917 0.0002161868230240696 -0.0010830384877047196" pbc="T T T"
Si       3.78655676       0.74233678       6.45657306
Si      -0.28190976      -0.06535455       3.40911611
Si       0.01487939       1.83544255       2.00098542
Si       2.05890303       4.51507922       2.34433474
Si       2.13814787       1.31417670       3.04183145
Si      -0.47204125       2.88752245       5.38073160
Si       3.74899430       3.11186461       3.13021983
Si      -1.78762897       0.90897716       4.94609609
Si       1.26934028       0.63433702       5.49923451
Si       0.07767974       3.76281501       3.29751842
10
Lattice="7.886827197525916 0.42337122829946605 1.1122343124750724 -3.282901446374709 4.404317479283056 0.292040263338935 -1.3151009988754476 -1.5878631402291128 5.099994303035712" Properties=species:S:1:pos:R:3 unique_starting_index=21 config_type=initial n_minim_iter=16 stress="-0.0029466785033131757 0.0012300080131375617 0.0019017600756419933 0.0012300080131375617 -0.004122152669702104 0.00010442539875185378 0.0019017600756419933 0.00010442539875185378 -0.004363120943158054" pbc="T T T"
Si       3.81856952       0.82471732       6.45130886
Si      -0.33874310      -0.09530104       3.38676176
Si      -0.00228544       1.82787112       2.01289178
Si       2.07391210       4.55094871       2.36098630
Si       2.11356981       1.30599127       3.05725951
Si      -0.47658789       2.94565190       5.38411003
Si       3.72449067       3.09597335       3.12533149
Si      -1.77143900       0.96206488       4.94538600
Si       1.29948283       0.63448878       5.43552390
Si       0.09720858       3.76434163       3.28763207
10
Lattice="7.884104031835311 0.4204344586261758 1.0717382437989544 -3.2885411827751088 4.4098641446436035 0.3240417098584439 -1.3433217642565514 -1.572668938593484 5.107700751023568" Properties=species:S:1:pos:R:3 unique_starting_index=21 config_type=initial n_minim_iter=17 stress="-0.0025965108943775193 -0.0005599135621899435 -3.038046257523756e-05 -0.0005599135621899435 -0.004572411281394735 0.000752377688919474 -3.038046257523756e-05 0.000752377688919474 -0.0026368159579334373" pbc="T T T"
Si       3.79317080       0.85628573       6.44069383
Si      -0.36776662      -0.10023065       3.39211996
Si      -0.01672313       1.82585713       2.03202797
Si       2.05406718       4.57144943       2.36375128
Si       2.09662442       1.30494963       3.07028837
Si      -0.51919453       2.97856665       5.39722776
Si       3.69067095       3.08536851       3.12226943
Si      -1.79146076       1.00104489       4.96789796
Si       1.28961054       0.63718748       5.41256241
Si       0.08276847       3.77193040       3.29541499
10
Lattice="7.85243471030697 0.4416635628551901 1.014905563887884 -3.265866151022947 4.448189710318084 0.34209704658467377 -1.3819756559994625 -1.6012068344939885 5.108383674319434" Properties=species:S:1:pos:R:3 unique_starting_index=21 config_type=initial n_minim_iter=18 stress="-0.0013929716664544422 -0.0010507329608435902 -0.002650304068104533 -0.0010507329608435902 0.0007472756732079198 -5.433338702754889e-05 -0.002650304068104533 -5.433338702754889e-05 0.00012699030934047243" pbc="T T T"
Si       3.71387168       0.86505068       6.38790508
Si      -0.37534325      -0.10616533       3.40816997
Si      -0.01028254       1.82198093       2.04144363
Si       2.03701308       4.63587212       2.31745711
Si       2.08960798       1.33002175       3.06016829
Si      -0.56746613       2.98919101       5.37821262
Si       3.66056737       3.11373651       3.09375708
Si      -1.81921760       1.00994906       4.97029168
Si       1.25572031       0.63275432       5.38299660
Si       0.06853130       3.80767388       3.28744835
10
Lattice="7.875896446670403 0.49131344469307814 0.9890782582717574 -3.249899346906917 4.455756707477184 0.37166019591080585 -1.4149120965159017 -1.5983792730070026 5.098720659266656" Properties=species:S:1:pos:R:3 unique_starting_index=21 config_type=initial n_minim_iter=19 stress="5.1040065485996406e-05 -0.0009069354153674802 -0.0023032124750459533 -0.0009069354153674802 0.0010445881755907305 0.000408635708876138 -0.0023032124750459533 0.000408635708876138 0.00113004274898539" pbc="T T T"
Si       3.68603244       0.92947320       6.35939721
Si      -0.38160752      -0.10302430       3.43006948
Si       0.01246073       1.81514683       2.07949102
Si       2.04083598       4.70780181       2.29822917
Si       2.10602507       1.37046222       3.09356370
Si      -0.61194363       3.02995974       5.37940946
Si       3.66475243       3.15130362       3.09513648
Si      -1.83177662       1.04153243       4.98041840
Si       1.28449884       0.63846327       5.32594768
Si       0.09438821       3.83251971       3.28211286
10
Lattice="7.878493576911127 0.49051722289049654 0.9978387883045572 -3.2502086677710675 4.462737827946788 0.36161997608842406 -1.409375516676323 -1.6085622917787663 5.102630921260918" Properties=species:S:1:pos:R:3 unique_starting_index=21 config_type=initial n_minim_iter=20 stress="0.0023991562253027287 -0.0011725750675674231 -0.0018131513588392823 -0.0011725750675674231 0.0018822317043868054 0.0007558989011037584 -0.0018131513588392823 0.0007558989011037584 0.0033026898833307507" pbc="T T T"
Si       3.65975753       0.89656388       6.34994130
Si      -0.34358331      -0.08330892       3.44795620
Si       0.03356980       1.81855423       2.08147557
Si       2.03415448       4.70314324       2.28072874
Si       2.13158521       1.38794152       3.09698758
Si      -0.62179819       3.00365478       5.36937395
Si       3.68454796       3.17815809       3.09861790
Si      -1.84428332       1.01100789       4.98019560
Si       1.28037739       0.63798930       5.34188542
Si       0.09517450       3.83583121       3.28189238
10
Lattice="7.8738643529573515 0.5018705280080584 1.0345618500653644 -3.235896233842797 4.466124429631798 0.32545498728359135 -1.3839495747345867 -1.6362901856833423 5.092195087457639" Properties=species:S:1:pos:R:3 unique_starting_index=21 config_type=initial n_minim_iter=21 stress="0.0021022340541066867 0.0018708064197229019 0.0015387469075727473 0.0018708064197229019 0.0020477040155242165 8.26855807403446e-05 0.0015387469075727473 8.26855807403446e-05 0.00042077967832731834" pbc="T T T"
Si       3.65905980       0.87095788       6.34527084
Si      -0.30720819      -0.08319249       3.46146348
Si       0.06701172       1.80413444       2.07493888
Si       2.04671047       4.71005877       2.24523759
Si       2.16275167       1.39972452       3.11914730
Si      -0.61933716       2.97979137       5.33907399
Si       3.71762736       3.21847583       3.09313799
Si      -1.83148464       0.95110577       4.96316913
Si       1.32241354       0.61042263       5.31792769
Si       0.11854557       3.83185116       3.26044210
