12
Lattice="5.556975401981298 -1.2037286164400138 2.077126409464661e-11 -1.002296864642738 3.55332419240452 -1.3718401744988278e-11 -4.0988820759269513e-11 3.964387408073583e-11 13.263243544431688" Properties=species:S:1:pos:R:3 unique_starting_index=57 config_type=initial n_minim_iter=1 energy=-1954.7294922003705 free_energy=-1954.7294922003705 pbc="T T T"
Si       0.45601896       2.15840930       0.68367148
Si       4.09865959       0.19118627       7.31529325
Si       3.20419643       2.01210120       8.87427767
Si       1.35048211       0.33749437       2.24265590
Si       1.31827355       1.98090546      10.36195004
Si       3.23640499       0.36869012       3.73032827
Si       1.43559779       2.90253274       5.78203548
Si       3.11908075      -0.55293716      12.41365726
Si       4.07877665       1.75843700      12.66674737
Si       0.47590189       0.59115857       6.03512560
Si       5.19927438      -0.99702003       3.84807231
Si      -0.64459583       3.34661560      10.47969408
12
Lattice="5.532166727410753 -1.2071640944215978 2.0704863846789607e-11 -1.0070101573504622 3.521049524491744 -1.363649866018784e-11 -4.068364890138671e-11 3.934871568186533e-11 13.16449543216521" Properties=species:S:1:pos:R:3 unique_starting_index=57 config_type=initial n_minim_iter=2 stress="-0.006110112166385322 0.0014617463457663592 -8.337228766846252e-15 0.0014617463457663592 -0.0043805821455258406 3.1658842661588427e-15 -8.337228766846252e-15 3.1658842661588427e-15 -0.004821450121043013" pbc="T T T"
Si       0.45032970       2.13680902       0.67983387
Si       4.07482688       0.17707640       7.26208159
Si       3.18338451       1.98125584       8.80651819
Si       1.34177206       0.33262958       2.22427048
Si       1.30486832       1.95831374      10.28604572
Si       3.22028826       0.35557168       3.70379800
Si       1.42045334       2.87100541       5.73970490
Si       3.10470324      -0.55711998      12.32195262
Si       4.05277609       1.72538416      12.57092811
Si       0.47238049       0.58850127       5.98868040
Si       5.17276614      -1.00257015       3.81940943
Si      -0.64760956       3.31645557      10.40165715
12
Lattice="5.605977970671534 -1.2606086209995515 2.109271647761576e-11 -1.0558477634248218 3.514816501028131 -1.3768796214589362e-11 -4.074742372158612e-11 3.9410397889225084e-11 13.185131814394275" Properties=species:S:1:pos:R:3 unique_starting_index=57 config_type=initial n_minim_iter=3 stress="0.00882128171165194 -0.008184974029507297 5.2992453068860656e-14 -0.008184974029507297 -0.008735363516305241 -6.323342676853866e-16 5.2992453068860656e-14 -6.323342676853866e-16 -0.00044283870471347424" pbc="T T T"
Si       0.44581699       2.12497920       0.68751188
Si       4.10431322       0.12922868       7.28007778
Si       3.20200015       1.92445701       8.81136608
Si       1.34813006       0.32975087       2.21880017
Si       1.29149258       1.93913430      10.30767602
Si       3.25863764       0.31507358       3.71511011
Si       1.40553505       2.84742048       5.75261776
Si       3.14459516      -0.59321260      12.34518366
Si       4.07649396       1.64975828      12.58405406
Si       0.47363625       0.60444959       5.99148815
Si       5.22439069      -1.05758271       3.82489981
Si      -0.67426048       3.31179059      10.41746572
12
Lattice="5.542255709828942 -1.2591007076515344 2.089128159888524e-11 -1.0318535469447392 3.568074804157371 -1.3853833545063598e-11 -4.079399347203661e-11 3.945543956860572e-11 13.200200946186468" Properties=species:S:1:pos:R:3 unique_starting_index=57 config_type=initial n_minim_iter=4 stress="0.002974937582500055 -0.005048606843372555 9.275811195620015e-15 -0.005048606843372555 -0.007029809808567984 1.9860951861531888e-14 9.275811195620015e-15 1.9860951861531888e-14 0.004838898221410248" pbc="T T T"
Si       0.49066579       2.17198813       0.70888055
Si       4.01973638       0.13698596       7.30898103
Si       3.19147948       1.92390591       8.79615066
Si       1.31892269       0.38506818       2.19605019
Si       1.26548491       1.99431857      10.33563604
Si       3.24491726       0.31465552       3.73553557
Si       1.39781375       2.92158428       5.77176441
Si       3.11258842      -0.61261018      12.37186488
Si       4.03054572       1.61640694      12.57678517
Si       0.47985645       0.69256715       5.97668470
Si       5.11597932      -1.06451186       3.82687364
Si      -0.60557715       3.37348595      10.42697412
12
Lattice="5.531744850403094 -1.2582874254033347 2.0856367862247567e-11 -1.0106299584083611 3.654900107698448 -1.4047765106796683e-11 -4.0023664933206365e-11 3.87103874537001e-11 12.950936516752472" Properties=species:S:1:pos:R:3 unique_starting_index=57 config_type=initial n_minim_iter=5 stress="0.00248154333014614 -0.0044107541251086745 3.311428266015048e-14 -0.0044107541251086745 0.004607897277887264 -3.933713807741616e-14 3.311428266015048e-14 -3.933713807741616e-14 -0.003977996274681511" pbc="T T T"
Si       0.53712443       2.24922827       0.71837204
Si       3.98399047       0.14738441       7.19384029
Si       3.21537967       1.95420630       8.61024643
Si       1.30573523       0.44240638       2.13477817
Si       1.26793996       2.06617358      10.15253567
Si       3.25317494       0.33043910       3.67706742
Si       1.40467501       3.03090116       5.67276396
Si       3.11643989      -0.63428848      12.14823222
Si       4.03078566       1.60450997      12.31743158
Si       0.49032924       0.79210271       5.84196333
Si       5.07029141      -1.07431206       3.75133493
Si      -0.54917651       3.47092474      10.22680319
12
Lattice="5.497504442428551 -1.1625895636268768 2.046450987443006e-11 -0.9452447358911401 3.645744798406298 -1.3818332910621052e-11 -4.0274775750580053e-11 3.8953258691268355e-11 13.032191450799697" Properties=species:S:1:pos:R:3 unique_starting_index=57 config_type=initial n_minim_iter=6 stress="-0.0010812981472063782 0.008278150913196992 -4.4110101213640334e-14 0.008278150913196992 -0.004147189540254777 5.322861422526665e-14 -4.4110101213640334e-14 5.322861422526665e-14 0.005143710288697557" pbc="T T T"
Si       0.59857074       2.29113371       0.74818097
Si       3.95368898       0.19202152       7.26427669
Si       3.25420916       1.98582002       8.65103051
Si       1.29805055       0.49733521       2.13493479
Si       1.30349340       2.09455552      10.22134662
Si       3.24876632       0.38859971       3.70525090
Si       1.43401831       3.08984361       5.71657687
Si       3.11824141      -0.60668838      12.23267259
Si       4.04290428       1.60067958      12.37519389
Si       0.50935544       0.88247565       5.85909816
Si       5.01609505      -1.00429261       3.76898929
Si      -0.46383534       3.48744785      10.28508502
12
Lattice="5.425085563028461 -1.185199576268776 2.0308287456720788e-11 -0.9303447091207224 3.720973193048326 -1.3997143657022454e-11 -4.0216767451522643e-11 3.8897153790935336e-11 13.013421010866454" Properties=species:S:1:pos:R:3 unique_starting_index=57 config_type=initial n_minim_iter=7 stress="-0.0038244789098917406 0.002894944758227351 -3.574788356029423e-14 0.002894944758227351 0.009263887681342873 -4.327610664733674e-15 -3.574788356029423e-14 -4.327610664733674e-15 0.004871128483893454" pbc="T T T"
Si       0.60026890       2.38106982       0.77016070
Si       3.89447196       0.15470379       7.27687120
Si       3.22408386       2.01050722       8.64194020
Si       1.27065700       0.52526640       2.13522970
Si       1.31329958       2.12075140      10.20209269
Si       3.18144128       0.41502222       3.69538218
Si       1.38498224       3.18873623       5.71365933
Si       3.10975862      -0.65296261      12.22036983
Si       3.99284358       1.55331330      12.33861299
Si       0.50189728       0.98246032       5.83190248
Si       4.95171261      -1.04731099       3.75510615
Si      -0.45697175       3.58308460      10.26181666
12
Lattice="5.437752943026541 -1.14749521903719 2.02347363816097e-11 -0.9119907562652169 3.704950590740606 -1.3892530866983338e-11 -4.0036576365654995e-11 3.8722875229457254e-11 12.955114423554898" Properties=species:S:1:pos:R:3 unique_starting_index=57 config_type=initial n_minim_iter=8 stress="-0.0024862389518368177 0.0031659102058028414 -2.2487890036640442e-14 0.0031659102058028414 0.004533090782861731 7.91914005540056e-16 -2.2487890036640442e-14 7.91914005540056e-16 0.0016194327902190472" pbc="T T T"
Si       0.60394168       2.41074455       0.77659860
Si       3.92182052       0.14671082       7.25415581
Si       3.25171019       2.02840869       8.61826251
Si       1.27405200       0.52904668       2.14070530
Si       1.35926258       2.10172322      10.14618168
Si       3.16649962       0.45573215       3.66862447
Si       1.38016907       3.21660083       5.68711745
Si       3.14559313      -0.65914546      12.16467466
Si       4.02743593       1.53777878      12.27451995
Si       0.49832627       1.01967659       5.79696274
Si       4.98284959      -1.02257635       3.73330265
Si      -0.45708739       3.58003172      10.21085986
12
Lattice="5.457926174374844 -1.1431980748018582 2.0284235700286853e-11 -0.9172017429841722 3.685006805464557 -1.3849022903818725e-11 -3.9921516192380496e-11 3.861159047091792e-11 12.917883025526457" Properties=species:S:1:pos:R:3 unique_starting_index=57 config_type=initial n_minim_iter=9 stress="-0.0014674758033087591 -0.0016439774200211652 9.061726581081359e-15 -0.0016439774200211652 -0.003156026702702436 -4.27492797103189e-15 9.061726581081359e-15 -4.27492797103189e-15 -0.0028197865452154135" pbc="T T T"
Si       0.58894649       2.44684280       0.78488824
Si       3.95177795       0.09496593       7.24382975
Si       3.27557950       2.00319060       8.61841529
Si       1.26514493       0.53861813       2.15947378
Si       1.40096021       2.05949499      10.10350509
Si       3.13976423       0.48231374       3.64456357
Si       1.33797595       3.26031653       5.67306326
Si       3.20274849      -0.71850780      12.13200477
Si       4.07274552       1.45552013      12.22046082
Si       0.46797891       1.08628860       5.76151931
Si       5.01633192      -1.02292825       3.71714304
Si      -0.47560749       3.56473698      10.17608455
12
Lattice="5.532458777768786 -1.1361891900362784 2.049362220267895e-11 -0.9267907630906225 3.6821099781257964 -1.3869998253265997e-11 -3.9874080644234495e-11 3.856571140284981e-11 12.902533737206639" Properties=species:S:1:pos:R:3 unique_starting_index=57 config_type=initial n_minim_iter=10 stress="0.010186651183758446 -0.001557669345287757 3.3861422265059186e-14 -0.001557669345287757 0.005072405775021887 -1.8174952530220275e-14 3.3861422265059186e-14 -1.8174952530220275e-14 0.0006581806793819736" pbc="T T T"
Si       0.58937634       2.47604741       0.77542957
Si       4.01629168       0.06987338       7.22669644
Si       3.34899710       1.95478240       8.63132309
Si       1.25667092       0.59113839       2.18005622
Si       1.43612435       2.03738648      10.08731532
Si       3.16954367       0.50853430       3.63604846
Si       1.32088295       3.36336476       5.67524082
Si       3.28478507      -0.81744397      12.12650769
Si       4.19777458       1.38584364      12.18066898
Si       0.40789345       1.16007714       5.72940211
Si       5.06150442      -0.98709810       3.71864133
Si      -0.45583639       3.53301889      10.16990820
12
Lattice="5.50685449921232 -1.1525729898380161 2.0463465786808473e-11 -0.9342044940877048 3.6749289104091813 -1.3871445466883815e-11 -4.006630732564436e-11 3.875163064159856e-11 12.964734826285307" Properties=species:S:1:pos:R:3 unique_starting_index=57 config_type=initial n_minim_iter=11 stress="0.003953455355184059 -0.0020257762273552496 1.2853254876137834e-14 -0.0020257762273552496 0.002881637248835053 -1.0094782049565256e-14 1.2853254876137834e-14 -1.0094782049565256e-14 0.0016826267416234668" pbc="T T T"
Si       0.58075408       2.48543663       0.77603208
Si       3.99189593       0.03691928       7.25839950
Si       3.34697312       1.89306231       8.68177084
Si       1.22567689       0.62929361       2.19940342
Si       1.42567511       2.01261229      10.13620334
Si       3.14697490       0.50974362       3.65383593
Si       1.27611567       3.42524311       5.71204863
Si       3.29653435      -0.90288719      12.19441604
Si       4.21728540       1.30458190      12.21967642
Si       0.35536461       1.21777402       5.73730900
Si       5.00698846      -0.97580599       3.74087318
Si      -0.43433845       3.49816191      10.22324059
12
Lattice="5.503186498414488 -1.1468445082038405 2.0435007722944843e-11 -0.9310611954594978 3.669475567497957 -1.3845431336735311e-11 -4.001869509735262e-11 3.870558069070621e-11 12.949328367455102" Properties=species:S:1:pos:R:3 unique_starting_index=57 config_type=initial n_minim_iter=12 stress="0.0015769370313046848 3.3166414288920356e-05 2.270536104938237e-15 3.3166414288920356e-05 0.0008847186123166082 -8.963129126771808e-16 2.270536104938237e-15 -8.963129126771808e-16 0.0006728688399651265" pbc="T T T"
Si       0.58717604       2.49043496       0.77609254
Si       3.98494927       0.03219609       7.25075673
Si       3.35842394       1.87241812       8.67150528
Si       1.21370137       0.65021294       2.19684110
Si       1.42908502       2.00275067      10.12529393
Si       3.14304029       0.51988039       3.65062975
Si       1.26411738       3.45980806       5.71044295
Si       3.30800793      -0.93717701      12.18510713
Si       4.23743217       1.27532891      12.19614314
Si       0.33469314       1.24730215       5.72147896
Si       4.98361453      -0.95085041       3.73808805
Si      -0.41148922       3.47348146      10.21275223
12
Lattice="5.47771974022587 -1.1633126502765785 2.040552840027931e-11 -0.9388106985365492 3.661107898828269 -1.3844369468992005e-11 -4.002532970770835e-11 3.87119976027481e-11 12.951475207772535" Properties=species:S:1:pos:R:3 unique_starting_index=57 config_type=initial n_minim_iter=13 stress="-0.006701240440880985 0.0020156808517370938 -2.1237173404466086e-14 0.0020156808517370938 -0.003963720974190019 1.216136783783415e-14 -2.1237173404466086e-14 1.216136783783415e-14 -0.001888453634573762" pbc="T T T"
Si       0.58460760       2.49044117       0.77956523
Si       3.95430144       0.00735408       7.25530283
Si       3.35675434       1.82688546       8.67015405
Si       1.18215471       0.67090979       2.19441644
Si       1.43050998       1.96070812      10.12644345
Si       3.10839906       0.53708713       3.65070585
Si       1.21285345       3.51597325       5.72118696
Si       3.32605560      -1.01817801      12.19692457
Si       4.25126728       1.20770234      12.18824317
Si       0.28764177       1.29009291       5.71250556
Si       4.91974282      -0.90605540       3.73880641
Si      -0.38083377       3.40385064      10.21454401
12
Lattice="5.509758873245967 -1.1840174861157495 2.0566429176802366e-11 -0.9501091554597642 3.696745889709806 -1.3985808359290279e-11 -3.977072957455762e-11 3.846575154266144e-11 12.86909119403729" Properties=species:S:1:pos:R:3 unique_starting_index=57 config_type=initial n_minim_iter=14 stress="0.0029793707851704584 0.0020558861267788017 -2.4239610158525183e-15 0.0020558861267788017 0.0002870447975213931 1.03103733378171e-14 -2.4239610158525183e-15 1.03103733378171e-14 0.0016853467298001653" pbc="T T T"
Si       0.61849500       2.52252749       0.80519052
Si       3.94115473      -0.00979909       7.23973611
Si       3.39280419       1.84571027       8.58581129
Si       1.16684553       0.66701813       2.15126570
Si       1.49031378       1.90163831      10.06227474
Si       3.06933594       0.61109010       3.62772914
Si       1.16452557       3.59123146       5.69590508
Si       3.39512416      -1.07850306      12.13045068
Si       4.27659888       1.15300446      12.11649521
Si       0.28305085       1.35972395       5.68194962
Si       4.89745709      -0.83731183       3.69649503
Si      -0.33780736       3.35004023      10.13104062
12
Lattice="5.510650223863079 -1.2081335048387918 2.0641266664098604e-11 -0.9653905242731782 3.698130952800058 -1.403717396618056e-11 -3.976279043604514e-11 3.845807290732449e-11 12.866522231923385" Properties=species:S:1:pos:R:3 unique_starting_index=57 config_type=initial n_minim_iter=15 stress="0.0019716355995124096 -0.00016169830328330423 4.997484371882182e-15 -0.00016169830328330423 -3.817799073489406e-05 6.988248066276795e-16 4.997484371882182e-15 6.988248066276795e-16 0.0004461944808963775" pbc="T T T"
Si       0.61109888       2.50078600       0.80256548
Si       3.93416083      -0.01078856       7.23582659
Si       3.38165331       1.85047358       8.57658029
Si       1.16360640       0.63952387       2.14331917
Si       1.49908151       1.86290835      10.05956744
Si       3.04617819       0.62708910       3.62630632
Si       1.14421916       3.57435875       5.69480934
Si       3.40104055      -1.08436130      12.12807045
Si       4.26742079       1.15706260      12.13040443
Si       0.27783892       1.33293484       5.69714332
Si       4.88844527      -0.81886881       3.69006793
Si      -0.34318556       3.30886626      10.12332904
12
Lattice="5.502674031766247 -1.2233284730967966 2.066203478911718e-11 -0.9724242012671069 3.7038732487367256 -1.4076074630328188e-11 -3.972446061295551e-11 3.842100078248775e-11 12.85411939209449" Properties=species:S:1:pos:R:3 unique_starting_index=57 config_type=initial n_minim_iter=16 stress="-0.0008116042076115802 -0.0015974177329426166 3.348563550117031e-15 -0.0015974177329426166 0.0011190873566753183 -9.726608390149093e-15 3.348563550117031e-15 -9.726608390149093e-15 -0.00039766618408562643" pbc="T T T"
Si       0.61759388       2.47640122       0.79465528
Si       3.91265596       0.00414355       7.22171497
Si       3.37927036       1.86461804       8.55930053
Si       1.15097948       0.61592673       2.13224083
Si       1.53067823       1.78858297      10.05293261
Si       2.99957161       0.69196180       3.62587292
Si       1.11700149       3.57807854       5.69286558
Si       3.41324834      -1.09753376      12.11992527
Si       4.26994675       1.15376661      12.14116137
Si       0.26030309       1.32677816       5.71410167
Si       4.85076463      -0.75784744       3.67360144
Si      -0.32051479       3.23839221      10.10066113
12
Lattice="5.514068644127131 -1.1813875919236263 2.057188736142523e-11 -0.9508211661622563 3.6892842221450057 -1.3965705815789858e-11 -3.9631154185760484e-11 3.8330755974705685e-11 12.823927114170324" Properties=species:S:1:pos:R:3 unique_starting_index=57 config_type=initial n_minim_iter=17 stress="-8.052721040343495e-05 -0.000958812502431966 4.455561985389105e-15 -0.000958812502431966 -0.0005724650059857367 -3.3315012548922057e-15 4.455561985389105e-15 -3.3315012548922057e-15 -0.0006157573478061629" pbc="T T T"
Si       0.64700522       2.46418821       0.77675225
Si       3.91624227       0.04370842       7.18871580
Si       3.41813152       1.87899236       8.54834016
Si       1.14511596       0.62890427       2.13637661
Si       1.57347144       1.73579543      10.03977120
Si       2.98977604       0.77210120       3.62780764
Si       1.13288264       3.58827144       5.68165137
Si       3.43036485      -1.08037482      12.09361492
Si       4.31962183       1.14877576      12.11592128
Si       0.24362565       1.35912086       5.70395772
Si       4.83996810      -0.69232622       3.65597887
Si      -0.27672061       3.20022285      10.06794243
12
Lattice="5.510018567943672 -1.1670455674842628 2.0516502624258847e-11 -0.9404759657885285 3.6913335070942517 -1.3939860254844998e-11 -3.963151315901147e-11 3.8331103169138184e-11 12.824043271443598" Properties=species:S:1:pos:R:3 unique_starting_index=57 config_type=initial n_minim_iter=18 stress="-4.3783626415476765e-05 8.428738824141923e-05 1.86803595543225e-16 8.428738824141923e-05 -6.330896094803578e-05 -1.4015190729902654e-16 1.86803595543225e-16 -1.4015190729902654e-16 -0.00017132508291880938" pbc="T T T"
Si       0.65632057       2.47394382       0.77555829
Si       3.91322204       0.05034412       7.18757992
Si       3.42511923       1.88507300       8.55205749
Si       1.14442338       0.63921494       2.14003585
Si       1.57644914       1.74111887      10.04438904
Si       2.99309347       0.78316907       3.63236741
Si       1.14135215       3.59904665       5.68107458
Si       3.42819046      -1.07475871      12.09309621
Si       4.32517261       1.14746726      12.10904507
Si       0.24437000       1.37682068       5.69702343
Si       4.83437500      -0.68700117       3.65666039
Si      -0.26483240       3.21128911      10.06868202
12
Lattice="5.5071661513782 -1.1600946629249043 2.0486911221890597e-11 -0.9353483804576037 3.692111157498609 -1.3926338328572074e-11 -3.968626647151126e-11 3.8384059887239125e-11 12.84176045640029" Properties=species:S:1:pos:R:3 unique_starting_index=57 config_type=initial n_minim_iter=19 stress="0.00032007033522800556 0.0005059345029100438 -1.8704123879860593e-15 0.0005059345029100438 0.00012408703728128049 2.138897470514406e-15 -1.8704123879860593e-15 2.138897470514406e-15 0.00038966690482203684" pbc="T T T"
Si       0.66142098       2.48089092       0.77410750
Si       3.91039680       0.05112557       7.19498773
Si       3.42765675       1.88861335       8.56880702
Si       1.14416103       0.64340314       2.14792680
Si       1.57596060       1.74280574      10.06657601
Si       2.99585718       0.78921076       3.64569579
Si       1.14413790       3.60456537       5.68558729
Si       3.42767988      -1.07254887      12.10646752
Si       4.32941785       1.14426496      12.11532866
Si       0.24239993       1.38775154       5.69444843
Si       4.82809554      -0.68440114       3.66477196
Si      -0.25627776       3.21641763      10.08565218
12
Lattice="5.504437125765305 -1.1684190718815548 2.0503359104947908e-11 -0.9398924943371859 3.69343413083612 -1.3944335861145853e-11 -3.9729042838593305e-11 3.842543265373522e-11 12.855602117712932" Properties=species:S:1:pos:R:3 unique_starting_index=57 config_type=initial n_minim_iter=20 stress="-8.69041473014797e-06 6.542908544928519e-06 -3.449800231105467e-16 6.542908544928519e-06 0.0002504925886672535 -1.0635667878129905e-15 -3.449800231105467e-16 -1.0635667878129905e-15 -1.7422352586542597e-05" pbc="T T T"
Si       0.65901295       2.47672253       0.77411839
Si       3.90553169       0.04829253       7.20191945
Si       3.42043055       1.89265020       8.57801960
Si       1.14411409       0.63236486       2.15021854
Si       1.57700053       1.73200808      10.08369961
Si       2.98754411       0.79300697       3.65589855
Si       1.13526522       3.59913915       5.68788027
Si       3.42927942      -1.07412409      12.11568133
Si       4.32473976       1.14665692      12.12560328
Si       0.23980488       1.37835814       5.69780222
Si       4.82150630      -0.67897217       3.66991515
Si      -0.25696166       3.20398722      10.09771621
12
Lattice="5.504383679311133 -1.1679848110272142 2.0501895926676846e-11 -0.9403370868276135 3.6900552726029785 -1.393561041566623e-11 -3.975471768195087e-11 3.845026504067018e-11 12.863910034215719" Properties=species:S:1:pos:R:3 unique_starting_index=57 config_type=initial n_minim_iter=21 stress="0.00010034662823183178 -0.0001674611247551115 3.4557376135588444e-16 -0.0001674611247551115 -0.0007248375884345969 1.1005354980218271e-15 3.4557376135588444e-16 1.1005354980218271e-15 -4.7220132439645485e-05" pbc="T T T"
Si       0.65890669       2.47274712       0.77570056
Si       3.90513991       0.04932334       7.20765558
Si       3.41868429       1.88963197       8.58427975
Si       1.14536231       0.63243849       2.15232473
Si       1.57710805       1.73265787      10.09183312
Si       2.98693855       0.78941259       3.65987810
Si       1.13501225       3.59281310       5.69073423
Si       3.42903435      -1.07074264      12.12268925
Si       4.32421246       1.14772396      12.13107455
Si       0.23983414       1.37434650       5.69911953
Si       4.82385239      -0.68217680       3.67205810
Si      -0.25980579       3.20424726      10.10401311
