22
Lattice="8.83131735044304 0.9063391609943702 -0.09233874024466793 -2.896034145999278 8.392055948585812 0.0923387402446566 -3.045474843848457 -4.599515612225858 6.956413039082356" Properties=species:S:1:pos:R:3 unique_starting_index=6 config_type=initial n_minim_iter=1 energy=-3639.4445464074233 free_energy=-3639.4445464074233 pbc="T T T"
Si      -2.43510585       5.55651339       5.51084991
Si       2.37104820       1.02785616       4.94990325
Si       5.92185512       3.21005709      -0.28741443
Si      -0.03809908      -0.42225226       3.69193618
Si       5.71991163      -1.10976573       1.91417105
Si       0.12376275       3.92315520       1.53790187
Si       2.52284357       4.48654638       3.26447685
Si      -2.62698288       2.12340779       7.24382747
Si       0.40038119       5.74732017       1.87751639
Si       1.63022504       6.04347965       2.75482513
Si       1.87014888       4.60360838       1.51942531
Si       2.02528382       5.99684912       0.90056595
Si       1.74992903      -0.57640965       4.20158791
Si       1.99908146      -1.81663116       5.07889665
Si       1.54130634      -0.23770266       6.05584709
Si       0.34287768      -0.96499582       5.43698772
Si      -2.11513000       1.32212103       1.17567897
Si       3.89350307       4.08620167       4.46217512
Si      -0.97830340       0.65245664       2.49423791
Si      -3.85177031       2.43064051       5.87307281
Si       2.96764160       4.64919756      -0.00000000
Si       2.89292125      -1.84658822       3.43203715
22
Lattice="8.833695859154009 0.9044465454029947 -0.09156762143312112 -2.898752240259088 8.393416559132467 0.0915676214331096 -3.0446550619913606 -4.599664505956023 6.959436234420124" Properties=species:S:1:pos:R:3 unique_starting_index=6 config_type=initial n_minim_iter=2 stress="0.0020950925595705477 -0.00012549229836463776 -0.0019565923396183305 -0.00012549229836463776 0.001978595831075419 0.0012489176373370143 -0.0019565923396183305 0.0012489176373370143 0.002175196365183297" pbc="T T T"
Si      -2.43650440       5.55721149       5.51266607
Si       2.37198409       1.02707899       4.95222884
Si       5.92288254       3.20906648      -0.28710547
Si      -0.03772748      -0.42252904       3.69356035
Si       5.72201096      -1.11128553       1.91563977
Si       0.12308647       3.92339227       1.53833778
Si       2.52291626       4.48608602       3.26587588
Si      -2.62749420       2.12377376       7.24654170
Si       0.39937370       5.74750252       1.87792475
Si       1.62975020       6.04349472       2.75577247
Si       1.86983234       4.60347451       1.51998384
Si       2.02462579       5.99685630       0.90076074
Si       1.75096240      -0.57698290       4.20366376
Si       2.00049082      -1.81761713       5.08151148
Si       1.54240968      -0.23844540       6.05867549
Si       0.34370931      -0.96548820       5.43945239
Si      -2.11585970       1.32254883       1.17591482
Si       3.89419929       4.08542086       4.46435307
Si      -0.97848498       0.65261052       2.49508316
Si      -3.85297336       2.43137046       5.87508904
Si       2.96747181       4.64893156      -0.00000000
Si       2.89452040      -1.84760898       3.43393430
22
Lattice="8.833080130399177 0.9024259803998762 -0.0881055512220516 -2.900325767553858 8.392007369051619 0.08810555122204056 -3.040642197600071 -4.599812375596591 6.960004379581371" Properties=species:S:1:pos:R:3 unique_starting_index=6 config_type=initial n_minim_iter=3 stress="0.00028671171455738986 -0.0004936727633286636 0.002012094280663174 -0.0004936727633286636 -0.0001715734760556253 -0.0012843452282935992 0.002012094280663174 -0.0012843452282935992 0.0006018287852759131" pbc="T T T"
Si      -2.43519201       5.55498819       5.51063897
Si       2.37370544       1.02495223       4.95338844
Si       5.92191781       3.20725552      -0.28536232
Si      -0.03627260      -0.42344455       3.69396731
Si       5.72275429      -1.11278802       1.91851039
Si       0.12295661       3.92208957       1.53747095
Si       2.52329692       4.48344260       3.26603707
Si      -2.62471781       2.12198839       7.24536670
Si       0.39890227       5.74533604       1.87652780
Si       1.62985749       6.04106645       2.75500418
Si       1.86950302       4.60156670       1.51966116
Si       2.02366910       5.99475779       0.90001184
Si       1.75272752      -0.57805579       4.20500020
Si       2.00273704      -1.81910473       5.08347658
Si       1.54492187      -0.24034454       6.05999253
Si       0.34613033      -0.96673799       5.44034321
Si      -2.11535814       1.32214662       1.17480441
Si       3.89512414       4.08249899       4.46556040
Si      -0.97751177       0.65207138       2.49444398
Si      -3.85111002       2.43009900       5.87330552
Si       2.96637718       4.64721668      -0.00000000
Si       2.89621897      -1.84869319       3.43594941
22
Lattice="8.830217666682115 0.9001559123386729 -0.08998755988288233 -2.9011796944775154 8.388455226551235 0.08998755988287128 -3.040370378652795 -4.595888666212388 6.9588129588909196" Properties=species:S:1:pos:R:3 unique_starting_index=6 config_type=initial n_minim_iter=4 stress="-0.0013338264011997021 -0.002428598210131832 -0.001113441884261307 -0.002428598210131832 -0.0035883372357966617 0.0007107240375265983 -0.001113441884261307 0.0007107240375265983 0.00021637882883665077" pbc="T T T"
Si      -2.43677461       5.55373790       5.51107593
Si       2.37149984       1.02452335       4.95216772
Si       5.91989244       3.20482895      -0.28546316
Si      -0.03794533      -0.42275465       3.69317750
Si       5.72070323      -1.11331553       1.91665768
Si       0.12190673       3.92049925       1.53772458
Si       2.52118237       4.48031731       3.26563546
Si      -2.62579430       2.12305335       7.24427612
Si       0.39695888       5.74180892       1.87599486
Si       1.62875256       6.03834492       2.75474455
Si       1.86796219       4.59897287       1.51989689
Si       2.02137645       5.99160417       0.89991504
Si       1.75099597      -0.57628013       4.20406841
Si       2.00062778      -1.81842875       5.08281810
Si       1.54329843      -0.23982812       6.05889792
Si       0.34469812      -0.96530395       5.43891606
Si      -2.11432757       1.32112078       1.17536339
Si       3.89231765       4.08056121       4.46578961
Si      -0.97781605       0.65263361       2.49302335
Si      -3.85305651       2.43097345       5.87343712
Si       2.96451899       4.64430557      -0.00000000
Si       2.89492364      -1.84786637       3.43441270
22
Lattice="8.832812189502357 0.9079908462926267 -0.08815099106367309 -2.89516533219497 8.394107233722309 0.08815099106366181 -3.043126747109313 -4.603620292049687 6.956784383381058" Properties=species:S:1:pos:R:3 unique_starting_index=6 config_type=initial n_minim_iter=5 stress="0.0001225035242682042 0.0005260162732306163 3.41149592729127e-05 0.0005260162732306163 0.0006108137693520609 -2.1776009986817383e-05 3.41149592729127e-05 -2.1776009986817383e-05 -0.00021325932442849032" pbc="T T T"
Si      -2.43178218       5.55637181       5.50824903
Si       2.37383739       1.02670168       4.95121324
Si       5.92418054       3.21311313      -0.28348391
Si      -0.03875962      -0.42376515       3.69199167
Si       5.72153309      -1.11017483       1.91742015
Si       0.12545191       3.92405694       1.53668634
Si       2.52646114       4.48490858       3.26479271
Si      -2.62284184       2.12269903       7.24026829
Si       0.40166115       5.74651708       1.87380996
Si       1.63570659       6.04517850       2.75331412
Si       1.87283565       4.60435300       1.51960195
Si       2.02638308       5.99889954       0.89870186
Si       1.75151026      -0.57482703       4.20347026
Si       2.00016222      -1.81991296       5.08297442
Si       1.54505147      -0.23994699       6.05808251
Si       0.34477001      -0.96634996       5.43718243
Si      -2.11234554       1.31928984       1.17431327
Si       3.89754159       4.08728353       4.46641684
Si      -0.97667429       0.65247059       2.49036754
Si      -3.85229374       2.42992079       5.87062210
Si       2.96882343       4.65104904      -0.00000000
Si       2.89484272      -1.84781472       3.43431669
22
Lattice="8.83079772007017 0.9048915722590396 -0.0858326629265339 -2.897128412525042 8.390975157374873 0.08583266292652264 -3.039183815050057 -4.6017519801021285 6.956753900227535" Properties=species:S:1:pos:R:3 unique_starting_index=6 config_type=initial n_minim_iter=6 stress="1.2820440911168391e-05 8.719833993398728e-05 -5.246108551344811e-05 8.719833993398728e-05 9.37682079593951e-05 3.348657441270595e-05 -5.246108551344811e-05 3.348657441270595e-05 -4.283934937247454e-05" pbc="T T T"
Si      -2.43238898       5.55391793       5.50704206
Si       2.37412886       1.02497170       4.95272276
Si       5.92406742       3.21096950      -0.27881812
Si      -0.04172217      -0.42404342       3.69090317
Si       5.72176966      -1.11186976       1.91819848
Si       0.12546144       3.92120965       1.53554450
Si       2.52742140       4.47774120       3.26585073
Si      -2.62079568       2.12356224       7.23557202
Si       0.39904908       5.74367667       1.87268494
Si       1.63472171       6.04154462       2.75398762
Si       1.87197181       4.60025831       1.52134819
Si       2.02304072       5.99690883       0.89722688
Si       1.75257171      -0.57538198       4.20276628
Si       2.00262849      -1.82160979       5.08406895
Si       1.54859592      -0.24194850       6.05952701
Si       0.34536253      -0.96698913       5.43540571
Si      -2.11005125       1.31593402       1.17055949
Si       3.89520063       4.08628400       4.47012583
Si      -0.97265239       0.65179471       2.48662806
Si      -3.85432373       2.42932521       5.87202706
Si       2.96683465       4.64793337      -0.00000000
Si       2.89580695      -1.84843020       3.43546062
22
Lattice="8.827020529037874 0.8944642109262309 -0.08090737930492382 -2.90499632057645 8.383158952454718 0.08090737930491262 -3.029209662162156 -4.595280217900865 6.959180425189638" Properties=species:S:1:pos:R:3 unique_starting_index=6 config_type=initial n_minim_iter=7 stress="4.767139678874918e-05 -0.00010512574140191675 0.0003741313140936972 -0.00010512574140191675 -4.99186952910099e-05 -0.0002388127497926371 0.0003741313140936972 -0.0002388127497926371 0.00011477439454094693" pbc="T T T"
Si      -2.43687366       5.54696613       5.50661223
Si       2.37516508       1.02128630       4.95768788
Si       5.92038162       3.20304506      -0.27406744
Si      -0.04273659      -0.42595715       3.69217282
Si       5.72418750      -1.11643707       1.92058517
Si       0.12315016       3.91287055       1.53347557
Si       2.52444169       4.46424354       3.26700760
Si      -2.61645762       2.12335446       7.23324786
Si       0.39319229       5.73911512       1.86792555
Si       1.63085266       6.02663752       2.75647009
Si       1.86987775       4.59163766       1.52372730
Si       2.01390614       5.98702009       0.89435371
Si       1.75065327      -0.57869579       4.20271033
Si       2.01093088      -1.82237094       5.09125487
Si       1.55344627      -0.24792561       6.06482671
Si       0.34839893      -0.96604623       5.43545312
Si      -2.10621211       1.30877179       1.16291499
Si       3.88922287       4.08197296       4.47964203
Si      -0.96407185       0.65102931       2.47953839
Si      -3.86033035       2.42844764       5.87717281
Si       2.96101210       4.63881159      -0.00000000
Si       2.89890543      -1.85040800       3.43913652
22
Lattice="8.82745482572939 0.8943122060674663 -0.08380606950604377 -2.905317043166867 8.383488885953088 0.08380606950603256 -3.0317098031492793 -4.5938095584994425 6.959628286713919" Properties=species:S:1:pos:R:3 unique_starting_index=6 config_type=initial n_minim_iter=8 stress="-7.260504542884938e-05 -0.00019078701279690155 0.00017973352391742917 -0.00019078701279690155 -0.00024971601653111744 -0.0001147261815824006 0.00017973352391742917 -0.0001147261815824006 4.917667342483562e-05" pbc="T T T"
Si      -2.43897270       5.54943986       5.50940660
Si       2.37272971       1.02183215       4.95788948
Si       5.92236731       3.20305109      -0.27460362
Si      -0.04524877      -0.42550190       3.69095016
Si       5.72364211      -1.11709761       1.91793273
Si       0.12345684       3.91380868       1.53402776
Si       2.52352572       4.46380512       3.26867812
Si      -2.61978830       2.12662878       7.23423191
Si       0.39372434       5.74093604       1.86918862
Si       1.62892171       6.02595996       2.75700134
Si       1.86971437       4.59306485       1.52247110
Si       2.01447860       5.98558219       0.89525932
Si       1.74835151      -0.57926186       4.20262694
Si       2.00985840      -1.81965104       5.09043967
Si       1.54940086      -0.24654108       6.06436896
Si       0.34726212      -0.96412289       5.43715718
Si      -2.10417101       1.30414488       1.15977402
Si       3.88569628       4.08767329       4.48429985
Si      -0.95991674       0.65170109       2.47532843
Si      -3.86820740       2.43015162       5.88366033
Si       2.96106889       4.63890055      -0.00000000
Si       2.89787251      -1.84974867       3.43791111
22
Lattice="8.83072012337065 0.901107256750797 -0.08573493225715936 -2.900528317399891 8.389311513195478 0.08573493225714816 -3.037362685289828 -4.599080583798735 6.958724622070937" Properties=species:S:1:pos:R:3 unique_starting_index=6 config_type=initial n_minim_iter=9 stress="-7.445725613653307e-05 -7.927157009082239e-05 0.00021961349824414325 -7.927157009082239e-05 -0.00014804646198417632 -0.00014018207359604826 0.00021961349824414325 -0.00014018207359604826 -2.3857264679873222e-05" pbc="T T T"
Si      -2.43530983       5.55680920       5.51038670
Si       2.37076631       1.02225736       4.95683815
Si       5.92708786       3.21125942      -0.27664543
Si      -0.04621582      -0.42722682       3.69048391
Si       5.72246683      -1.11717548       1.91615154
Si       0.12773493       3.92078532       1.53407285
Si       2.52476942       4.46954839       3.26824071
Si      -2.61998322       2.12909539       7.23537005
Si       0.39927260       5.74780485       1.87059531
Si       1.63106865       6.03193787       2.75602035
Si       1.87203864       4.59971027       1.52270804
Si       2.01864619       5.99255162       0.89687569
Si       1.74721702      -0.58006870       4.20270426
Si       2.00809998      -1.81699763       5.08812931
Si       1.54831499      -0.24509764       6.06184893
Si       0.34665842      -0.96448785       5.43601658
Si      -2.09995415       1.29492654       1.15272188
Si       3.88511307       4.10345156       4.49191052
Si      -0.95101235       0.65254397       2.46681409
Si      -3.87920845       2.43064706       5.89173767
Si       2.96509590       4.64520939      -0.00000000
Si       2.89667872      -1.84898666       3.43649484
22
Lattice="8.834593148431438 0.9111140055105474 -0.09054738014970194 -2.893082274927452 8.397037559749885 0.09054738014969073 -3.047078711270776 -4.605357671168938 6.956605185385141" Properties=species:S:1:pos:R:3 unique_starting_index=6 config_type=initial n_minim_iter=10 stress="0.000126001260200921 -4.369363448775648e-06 6.753698050241849e-05 -4.369363448775648e-06 0.00012194510255696471 -4.3109708858243456e-05 6.753698050241849e-05 -4.3109708858243456e-05 0.0001287902634359092" pbc="T T T"
Si      -2.42991325       5.56660999       5.51232609
Si       2.36699741       1.02389655       4.95275010
Si       5.93272820       3.22227784      -0.28061735
Si      -0.04789476      -0.42829490       3.68953853
Si       5.71969743      -1.11617428       1.91330770
Si       0.13208273       3.93125555       1.53482648
Si       2.52611051       4.47903153       3.26706665
Si      -2.62207963       2.13257334       7.23722253
Si       0.40382007       5.75593622       1.87224930
Si       1.63598929       6.04272077       2.75656225
Si       1.87776895       4.60814133       1.52185216
Si       2.02520411       6.00123472       0.89658179
Si       1.74520998      -0.57734273       4.20004293
Si       2.00384498      -1.81572647       5.08435588
Si       1.54371401      -0.24177061       6.06002339
Si       0.34217726      -0.96201763       5.43475303
Si      -2.09710205       1.28533586       1.14307149
Si       3.88210561       4.12562036       4.49735538
Si      -0.93935391       0.65287240       2.45924980
Si      -3.89137847       2.43064519       5.90408107
Si       2.97075544       4.65407579      -0.00000000
Si       2.89375722      -1.84712183       3.43302890
22
Lattice="8.834128543985353 0.9108247207064547 -0.09164813254111769 -2.8931490653384646 8.396494345215661 0.09164813254110649 -3.0477408562833532 -4.60434916793427 6.956369210758566" Properties=species:S:1:pos:R:3 unique_starting_index=6 config_type=initial n_minim_iter=11 stress="9.031876673057336e-05 -6.424350738571149e-05 -5.5311936292072424e-05 -6.424350738571149e-05 3.0680378290810065e-05 3.5306308523945063e-05 -5.5311936292072424e-05 3.5306308523945063e-05 0.00013132622374233368" pbc="T T T"
Si      -2.42990831       5.56599482       5.51325507
Si       2.36602731       1.02454194       4.95131419
Si       5.93262526       3.22162933      -0.28148295
Si      -0.04803475      -0.42807717       3.68904040
Si       5.71956452      -1.11606327       1.91340688
Si       0.13079372       3.93146632       1.53476227
Si       2.52517340       4.47917222       3.26732880
Si      -2.62328667       2.13321543       7.23785216
Si       0.40236814       5.75550185       1.87312849
Si       1.63533414       6.04332844       2.75755240
Si       1.87733266       4.60867817       1.52202411
Si       2.02441060       6.00031118       0.89723839
Si       1.74537484      -0.57667264       4.19881681
Si       2.00340013      -1.81621782       5.08324072
Si       1.54254824      -0.24187069       6.05913081
Si       0.34218574      -0.96117884       5.43434510
Si      -2.09683919       1.28355467       1.14270029
Si       3.88133089       4.12714242       4.49829933
Si      -0.93830930       0.65381901       2.45806987
Si      -3.89383370       2.43059900       5.90531705
Si       2.97048974       4.65365954      -0.00000000
Si       2.89319384      -1.84676222       3.43236054
22
Lattice="8.833900522839395 0.9119459422636257 -0.09127490985822785 -2.8920360573662727 8.3967595709254 0.09127490985821667 -3.0478687541860485 -4.605243201861028 6.955573741049158" Properties=species:S:1:pos:R:3 unique_starting_index=6 config_type=initial n_minim_iter=12 stress="6.782148178433705e-05 -7.544116632039946e-06 6.045892015455304e-06 -7.544116632039946e-06 6.081814439675997e-05 -3.859169338665517e-06 6.045892015455304e-06 -3.859169338665517e-06 7.263698535528714e-05" pbc="T T T"
Si      -2.42858509       5.56536163       5.51273072
Si       2.36614538       1.02523081       4.95023137
Si       5.93309766       3.22212077      -0.28137007
Si      -0.04773245      -0.42808744       3.68811115
Si       5.71978373      -1.11543896       1.91406746
Si       0.13064740       3.93177117       1.53411793
Si       2.52579390       4.47993452       3.26746259
Si      -2.62316770       2.13295680       7.23694381
Si       0.40286248       5.75555394       1.87249331
Si       1.63658779       6.04411192       2.75716374
Si       1.87732444       4.60957501       1.52199030
Si       2.02491972       6.00104595       0.89772786
Si       1.74542980      -0.57609969       4.19841000
Si       2.00311135      -1.81664153       5.08308043
Si       1.54287247      -0.24199357       6.05784588
Si       0.34287478      -0.96170275       5.43358344
Si      -2.09688996       1.28239056       1.14183187
Si       3.88189863       4.12895221       4.49808741
Si      -0.93703464       0.65420189       2.45748632
Si      -3.89388313       2.42943403       5.90501677
Si       2.97093223       4.65435276      -0.00000000
Si       2.89301588      -1.84664863       3.43214941
22
Lattice="8.832708513908095 0.912738085475801 -0.09177955338005156 -2.8908156859474974 8.396011861248361 0.09177955338004042 -3.048308307937612 -4.604993897976745 6.954142768890873" Properties=species:S:1:pos:R:3 unique_starting_index=6 config_type=initial n_minim_iter=13 stress="-2.973041660222043e-05 2.4345958616741418e-05 3.002940920007217e-06 2.4345958616741418e-05 -7.129630980850764e-06 -1.9168151671458503e-06 3.002940920007217e-06 -1.9168151671458503e-06 -4.527075065431227e-05" pbc="T T T"
Si      -2.42790757       5.56394038       5.51305706
Si       2.36512673       1.02690107       4.94839094
Si       5.93293165       3.22190798      -0.28195433
Si      -0.04750659      -0.42788158       3.68670562
Si       5.72009605      -1.11461828       1.91397227
Si       0.12985383       3.93128894       1.53286526
Si       2.52547435       4.48051979       3.26743714
Si      -2.62373037       2.13296593       7.23609710
Si       0.40283114       5.75491167       1.87216751
Si       1.63719114       6.04445161       2.75684458
Si       1.87649893       4.60838032       1.52135369
Si       2.02626550       6.00197109       0.89778090
Si       1.74504434      -0.57516010       4.19729818
Si       2.00210242      -1.81669106       5.08197526
Si       1.54270547      -0.24013408       6.05636186
Si       0.34169914      -0.96270521       5.43278907
Si      -2.09745801       1.27975147       1.14146367
Si       3.88253842       4.13157678       4.49759757
Si      -0.93536294       0.65613651       2.45654520
Si      -3.89525695       2.42730927       5.90445864
Si       2.97094641       4.65437498      -0.00000000
Si       2.89220010      -1.84612790       3.43118161
22
Lattice="8.831085324044974 0.9118914885601465 -0.09304125766659477 -2.8909002041685463 8.394183110762464 0.09304125766658362 -3.0485179654141 -4.602977371422382 6.953230062051778" Properties=species:S:1:pos:R:3 unique_starting_index=6 config_type=initial n_minim_iter=14 stress="-6.157198718759915e-05 -2.0844265767249325e-05 5.781309386608892e-05 -2.0844265767249325e-05 -8.092208914937673e-05 -3.690282903128698e-05 5.781309386608892e-05 -3.690282903128698e-05 -4.826684302088772e-05" pbc="T T T"
Si      -2.42865215       5.56169392       5.51466814
Si       2.36337992       1.02885513       4.94654816
Si       5.93171473       3.22105279      -0.28253097
Si      -0.04819776      -0.42769113       3.68635855
Si       5.72077108      -1.11421011       1.91364064
Si       0.12783547       3.92985553       1.53160317
Si       2.52402073       4.47931422       3.26687151
Si      -2.62420339       2.13351859       7.23576102
Si       0.40278139       5.75274931       1.87289531
Si       1.63586504       6.04372679       2.75572307
Si       1.87554498       4.60670260       1.52114460
Si       2.02577108       6.00080791       0.89768232
Si       1.74473555      -0.57465158       4.19750699
Si       1.99995233      -1.81563005       5.08033474
Si       1.54164891      -0.23905573       6.05554774
Si       0.34036933      -0.96226031       5.43208546
Si      -2.09924693       1.27684465       1.14137299
Si       3.88238082       4.13384339       4.49674095
Si      -0.93345031       0.65896436       2.45648911
Si      -3.89743459       2.42465058       5.90489832
Si       2.97009256       4.65303730      -0.00000000
Si       2.89128368      -1.84554294       3.43009440
22
Lattice="8.831631231225137 0.914165963364281 -0.0943805618323883 -2.8890669712049566 8.395635869236962 0.09438056183237713 -3.0508364572147966 -4.604120383043599 6.95246644818576" Properties=species:S:1:pos:R:3 unique_starting_index=6 config_type=initial n_minim_iter=15 stress="8.169727898322404e-05 -3.3152614758465986e-05 2.1712958747434967e-05 -3.3152614758465986e-05 5.0921118139917156e-05 -1.3859656191452404e-05 2.1712958747434967e-05 -1.3859656191452404e-05 0.0001028590069222111" pbc="T T T"
Si      -2.42858861       5.56402474       5.51570630
Si       2.36197526       1.03000330       4.94640937
Si       5.93238135       3.22389486      -0.28290825
Si      -0.04930103      -0.42763155       3.68656219
Si       5.72063132      -1.11386935       1.91167651
Si       0.12943763       3.93120423       1.53114071
Si       2.52459991       4.48092281       3.26590426
Si      -2.62422463       2.13417680       7.23537469
Si       0.40314756       5.75479335       1.87303589
Si       1.63709266       6.04591128       2.75651421
Si       1.87586420       4.60921481       1.52052314
Si       2.02744229       6.00227106       0.89876492
Si       1.74388166      -0.57376137       4.19595224
Si       1.99933373      -1.81558035       5.07943056
Si       1.53995396      -0.23806686       6.05370153
Si       0.34019515      -0.96205609       5.43194330
Si      -2.10104313       1.27550847       1.14215094
Si       3.88422319       4.13777303       4.49518221
Si      -0.93298007       0.66114692       2.45728423
Si      -3.89837561       2.42276853       5.90469607
Si       2.97128213       4.65490092      -0.00000000
Si       2.89039739      -1.84497721       3.42904294
22
Lattice="8.831409829630584 0.9178506942636672 -0.0966938572682981 -2.8856315115764564 8.39698637936573 0.09669385726828694 -3.054393401456123 -4.605393348007462 6.950297276891087" Properties=species:S:1:pos:R:3 unique_starting_index=6 config_type=initial n_minim_iter=16 stress="-7.27487436511716e-05 4.352227207582059e-05 2.1445979243756297e-06 4.352227207582059e-05 -3.2346245799516156e-05 -1.3689239763828319e-06 2.1445979243756297e-06 -1.3689239763828319e-06 -0.00010052956092643517" pbc="T T T"
Si      -2.42581158       5.56630428       5.51728122
Si       2.35858857       1.03165631       4.94298177
Si       5.93424242       3.22774020      -0.28273588
Si      -0.05207193      -0.42735272       3.68489325
Si       5.71977820      -1.11383354       1.91062165
Si       0.13021464       3.93476042       1.52970991
Si       2.52567654       4.48228911       3.26540402
Si      -2.62507719       2.13621088       7.23303315
Si       0.40499266       5.75757438       1.87301681
Si       1.63852739       6.04812352       2.75645526
Si       1.87726907       4.61152665       1.52027596
Si       2.02940953       6.00489358       0.89882460
Si       1.74172728      -0.57280157       4.19384201
Si       1.99752251      -1.81400886       5.07728046
Si       1.53794754      -0.23645131       6.05147267
Si       0.33814369      -0.96108144       5.43002131
Si      -2.10648986       1.27019178       1.14461258
Si       3.88994330       4.14645863       4.49128252
Si      -0.93106698       0.66871918       2.45901475
Si      -3.90102645       2.41566718       5.90237855
Si       2.97288916       4.65741854      -0.00000000
Si       2.88850821      -1.84377132       3.42680171
22
Lattice="8.83170507365835 0.9181226946469765 -0.0966497424461186 -2.8855090954922438 8.397368698011329 0.09664974244610747 -3.05456504638889 -4.605744243256385 6.950399794710624" Properties=species:S:1:pos:R:3 unique_starting_index=6 config_type=initial n_minim_iter=17 stress="-1.1708726360800399e-05 5.89959274420145e-06 -2.6863458995204147e-06 5.89959274420145e-06 -6.2320296720846015e-06 1.714728567989988e-06 -2.6863458995204147e-06 1.714728567989988e-06 -1.547451037144456e-05" pbc="T T T"
Si      -2.42511741       5.56693877       5.51697302
Si       2.35865489       1.03099685       4.94278214
Si       5.93507764       3.22814105      -0.28264222
Si      -0.05232845      -0.42766250       3.68450742
Si       5.71927572      -1.11412993       1.91096791
Si       0.13044867       3.93568862       1.53007651
Si       2.52574956       4.48222944       3.26589237
Si      -2.62523689       2.13678633       7.23304201
Si       0.40522180       5.75859754       1.87276049
Si       1.63863074       6.04780904       2.75681262
Si       1.87765583       4.61193979       1.52046123
Si       2.02937169       6.00517863       0.89872089
Si       1.74122688      -0.57319112       4.19358717
Si       1.99818245      -1.81372114       5.07763930
Si       1.53805038      -0.23671652       6.05167890
Si       0.33818396      -0.96090759       5.42993856
Si      -2.10683212       1.26967268       1.14471579
Si       3.89061082       4.14723057       4.49137584
Si      -0.93081948       0.66929876       2.45902395
Si      -3.90140243       2.41516961       5.90233374
Si       2.97309799       4.65774570      -0.00000000
Si       2.88857001      -1.84381077       3.42687502
22
Lattice="8.831788154158495 0.9185067797988391 -0.0967968619029858 -2.885195688213704 8.397605762667366 0.09679686190297467 -3.0548872997168957 -4.605975661367167 6.950263169827953" Properties=species:S:1:pos:R:3 unique_starting_index=6 config_type=initial n_minim_iter=18 stress="1.4124071867273841e-05 -8.59732411457094e-06 7.241115192725555e-06 -8.59732411457094e-06 6.1430232622270796e-06 -4.622095410269007e-06 7.241115192725555e-06 -4.622095410269007e-06 1.961185079054511e-05" pbc="T T T"
Si      -2.42454798       5.56733862       5.51658467
Si       2.35871913       1.03062964       4.94237017
Si       5.93586469       3.22881591      -0.28273982
Si      -0.05270586      -0.42816173       3.68407048
Si       5.71867642      -1.11407359       1.91109613
Si       0.13056276       3.93637911       1.53047535
Si       2.52552987       4.48206666       3.26619268
Si      -2.62527837       2.13755294       7.23300299
Si       0.40542704       5.75936949       1.87257153
Si       1.63877698       6.04768696       2.75705497
Si       1.87787435       4.61228590       1.52050918
Si       2.02950753       6.00548056       0.89872291
Si       1.74073232      -0.57334128       4.19320820
Si       1.99847400      -1.81344139       5.07769163
Si       1.53794481      -0.23669760       6.05154025
Si       0.33808364      -0.96079508       5.42975399
Si      -2.10726981       1.26926422       1.14492103