22
Lattice="7.020714185396941 -0.6539035976849297 -0.25536397750210543 -2.16463762203198 7.850385412891721 -2.5277562635577775 -1.589376358598694 -5.341163598422612 12.25556406909711" Properties=species:S:1:pos:R:3 unique_starting_index=51 config_type=initial n_minim_iter=1 energy=-3578.7753020533955 free_energy=-3578.7753020533955 pbc="T T T"
Si       4.05301324       5.46625760       0.93508953
Si      -0.91247583      -0.12579897       6.59987845
Si       0.23012538       6.52128844      -2.34210789
Si      -1.27541676       3.35329545       1.73740732
Si      -0.21809492       0.38842531       4.88511856
Si       4.63583983      -0.87249709       4.69488150
Si      -0.68385185       0.39257665       1.08704187
Si       0.72660354       1.37943935      -0.59367159
Si       0.82680940      -1.28116560       6.12471335
Si       3.94260267      -0.77073493       8.73253405
Si      -1.25050042       1.07545375       8.00160269
Si       5.03196722       0.77098665       2.70317927
Si       0.40720612       1.98652243       2.86654759
Si       3.97630860      -3.50411094      11.62192654
Si       2.66391665      -1.98535364      10.27988509
Si       5.06642957       4.29456801       2.18768740
Si       1.74253747       0.54622830       1.34189513
Si       4.15241693       1.72126169       7.16035443
Si       2.97505526      -0.35580706       6.63320741
Si       1.35770710      -0.73997604       3.80706911
Si       3.89943014       0.95977663       0.69771856
Si       4.41579600      -1.39631535       1.63065427
22
Lattice="7.031961533972743 -0.6406975986065525 -0.3031985604531175 -2.1336894952280954 7.861330186821768 -2.4890616497354037 -1.684152613360802 -5.32349787214003 12.246568240142599" Properties=species:S:1:pos:R:3 unique_starting_index=51 config_type=initial n_minim_iter=2 stress="0.002183755386094633 -0.001220038273898748 -0.00046700744686600196 -0.001220038273898748 0.0065331313151843085 0.003371952719416525 -0.00046700744686600196 0.003371952719416525 0.005157341854016328" pbc="T T T"
Si       4.06584191       5.49601607       0.92688306
Si      -0.95371960      -0.10935875       6.60123531
Si       0.26045248       6.53370434      -2.32583434
Si      -1.28176174       3.36486960       1.75631061
Si      -0.25063956       0.40310108       4.88885295
Si       4.61115976      -0.85053705       4.66070819
Si      -0.69136014       0.39636211       1.09292210
Si       0.73414729       1.38449851      -0.59428387
Si       0.78193178      -1.26339022       6.11120017
Si       3.89065273      -0.73791200       8.70171876
Si      -1.30244126       1.10111446       8.01245484
Si       5.02416977       0.79341608       2.67078426
Si       0.39147969       2.00247762       2.86861845
Si       3.89950886      -3.46995996      11.58207730
Si       2.59641410      -1.95437570      10.25297084
Si       5.07026992       4.32544897       2.16824350
Si       1.73839296       0.55534076       1.33228868
Si       4.11572858       1.75689582       7.13793392
Si       2.93478629      -0.33007054       6.61092982
Si       1.33459117      -0.72818899       3.79512492
Si       3.90406539       0.97410133       0.67510921
Si       4.40863880      -1.38547761       1.59815289
22
Lattice="7.027188195473295 -0.6137340474143526 -0.34393589026872573 -2.0897653880381384 7.826691455364743 -2.465377275971052 -1.7758585963890503 -5.314683024105585 12.192071538601372" Properties=species:S:1:pos:R:3 unique_starting_index=51 config_type=initial n_minim_iter=3 stress="-0.0021036100793608626 0.0019193893945055923 -0.0021919318157765113 0.0019193893945055923 -0.001614201118457948 0.0021287873302192084 -0.0021919318157765113 0.0021287873302192084 -0.005003654201977151" pbc="T T T"
Si       4.07713099       5.49277110       0.89848914
Si      -0.98788937      -0.11454978       6.56904211
Si       0.29694162       6.51125865      -2.32143191
Si      -1.28151797       3.34787391       1.75534746
Si      -0.28071268       0.39737558       4.86765194
Si       4.57822094      -0.83347805       4.60761868
Si      -0.69668525       0.39365063       1.09198536
Si       0.74093541       1.38408923      -0.59643648
Si       0.73478111      -1.25659333       6.06946316
Si       3.83431493      -0.72539345       8.63045268
Si      -1.34572082       1.08928302       7.97632356
Si       5.00828542       0.80789777       2.62360878
Si       0.37738453       1.99618502       2.84905034
Si       3.81634574      -3.44765159      11.49645931
Si       2.52613734      -1.94253281      10.18067651
Si       5.07059770       4.32508938       2.12553060
Si       1.73247280       0.55790338       1.31514536
Si       4.07540391       1.76129358       7.07579405
Si       2.89053950      -0.32117714       6.55715716
Si       1.31008314      -0.72324815       3.76698764
Si       3.90237895       0.98484552       0.64743642
Si       4.39099247      -1.36554663       1.56502203
22
Lattice="7.097349294519462 -0.5931732510426833 -0.4143552856736883 -2.065732962786329 7.832792499877301 -2.554679594290545 -1.9360089558091933 -5.447889889573629 12.376494299378482" Properties=species:S:1:pos:R:3 unique_starting_index=51 config_type=initial n_minim_iter=4 stress="0.012656692688735406 0.005798838407104486 -0.0021510645318436297 0.005798838407104486 -0.0007422477823630293 -0.008389651646080963 -0.0021510645318436297 -0.008389651646080963 0.0018821462059552345" pbc="T T T"
Si       4.12033551       5.49281464       0.81760350
Si      -1.03733018      -0.18906048       6.62968027
Si       0.33680446       6.51922749      -2.44105344
Si      -1.31336788       3.31475719       1.75547069
Si      -0.34672144       0.33003653       4.92912001
Si       4.57686368      -0.87777058       4.60653851
Si      -0.71803383       0.38713595       1.10971531
Si       0.75024912       1.39956255      -0.62871618
Si       0.64273470      -1.31443121       6.10523648
Si       3.78583266      -0.82005019       8.66981317
Si      -1.43655638       0.98388452       8.03740046
Si       5.03547892       0.79066388       2.57401800
Si       0.33577865       1.96195147       2.84225557
Si       3.73025917      -3.56359909      11.59268402
Si       2.43899701      -2.05392698      10.25362480
Si       5.11392565       4.29384965       2.05058610
Si       1.74584826       0.53904036       1.30718312
Si       4.03712097       1.67780938       7.08507503
Si       2.83949868      -0.39159498       6.58434302
Si       1.28914008      -0.76742033       3.79539890
Si       3.94186708       0.98934553       0.59749171
Si       4.41143662      -1.37108879       1.55815242
22
Lattice="7.022633716976701 -0.653676255266662 -0.4888833531205444 -2.0859280526026946 7.818969765602584 -2.5855933337947055 -1.9979094417780463 -5.450805927857265 12.528422843098415" Properties=species:S:1:pos:R:3 unique_starting_index=51 config_type=initial n_minim_iter=5 stress="0.0007534398052746277 -0.005561778603563056 -0.0016470216455771042 -0.005561778603563056 -0.0029686730828765735 -0.0026175100682199488 -0.0016470216455771042 -0.0026175100682199488 -0.006833872455614754" pbc="T T T"
Si       4.01402663       5.44532312       0.79618175
Si      -1.03985967      -0.20190671       6.68584072
Si       0.29439238       6.48174568      -2.52935018
Si      -1.35829856       3.28811290       1.78662484
Si      -0.42047027       0.29451166       5.01437310
Si       4.49072680      -0.93840703       4.60121243
Si      -0.73264181       0.40323584       1.13594319
Si       0.72105623       1.40556725      -0.65195653
Si       0.52331082      -1.32254291       6.11668917
Si       3.66957722      -0.89460570       8.70853258
Si      -1.50745648       0.94602524       8.10546825
Si       4.95048487       0.73688607       2.52513518
Si       0.24820576       1.94094013       2.85071955
Si       3.60611785      -3.62443907      11.67053592
Si       2.32216044      -2.11222622      10.30978548
Si       4.99884843       4.21207614       2.02379740
Si       1.72275930       0.50366475       1.30929494
Si       3.88499813       1.59055432       7.12461185
Si       2.72305486      -0.44496497       6.61227957
Si       1.25222738      -0.79868692       3.82396196
Si       3.89088558       0.95593807       0.55256472
Si       4.35076818      -1.41031889       1.55107196
22
Lattice="6.951621084049037 -0.5964653739414562 -0.5016452642110742 -1.9999385954048383 7.777790623200746 -2.603091864777028 -2.041287781031021 -5.435722023894745 12.6643110579688" Properties=species:S:1:pos:R:3 unique_starting_index=51 config_type=initial n_minim_iter=6 stress="-0.007284434056294303 -0.00013116188284983135 -0.001097680072957464 -0.00013116188284983135 -0.006571531406886691 -0.002960054430865637 -0.001097680072957464 -0.002960054430865637 -0.0014388839468426982" pbc="T T T"
Si       4.02305031       5.47116515       0.82707836
Si      -1.02119114      -0.20230016       6.76947865
Si       0.34549921       6.46002526      -2.56993325
Si      -1.32573171       3.26323096       1.81674978
Si      -0.42331934       0.29324323       5.07810306
Si       4.43845057      -0.89567224       4.64712456
Si      -0.72847754       0.40602207       1.15468142
Si       0.71956957       1.41441629      -0.65881423
Si       0.46797732      -1.29836544       6.16109501
Si       3.62234874      -0.85716845       8.79950281
Si      -1.49185151       0.93365993       8.18804893
Si       4.91089344       0.78085094       2.54150430
Si       0.24233563       1.94342197       2.88258988
Si       3.53127003      -3.57008089      11.79418139
Si       2.27184830      -2.07700899      10.41024312
Si       4.98353532       4.24816232       2.05787396
Si       1.71672935       0.51220948       1.32777919
Si       3.84524928       1.62008023       7.21571081
Si       2.67622308      -0.41504862       6.68086748
Si       1.23199860      -0.78301522       3.86960570
Si       3.86651645       0.99096028       0.55179858
Si       4.29386656      -1.36948641       1.57169498
22
Lattice="6.9911321533222255 -0.5826680470172843 -0.48025521696199713 -2.0024186444334 7.782151034062581 -2.5599431196472087 -2.0226967194947867 -5.393979395716076 12.57648159867709" Properties=species:S:1:pos:R:3 unique_starting_index=51 config_type=initial n_minim_iter=7 stress="-0.0015349016483602435 0.0009520638640036747 0.001974359691065372 0.0009520638640036747 -0.000976231916661002 -0.0024807130371713253 0.001974359691065372 -0.0024807130371713253 -0.009052815214316575" pbc="T T T"
Si       4.07295437       5.50444119       0.88489410
Si      -0.99302345      -0.17418616       6.75112912
Si       0.35387246       6.46471231      -2.54964946
Si      -1.32288658       3.27188781       1.82258208
Si      -0.40330502       0.31841698       5.05605378
Si       4.48415275      -0.86455011       4.63925977
Si      -0.73258959       0.41964493       1.15385903
Si       0.71983465       1.42218361      -0.64555218
Si       0.46026753      -1.26529299       6.10417769
Si       3.68088879      -0.81373231       8.76586135
Si      -1.46407329       0.96422493       8.14468917
Si       4.95584389       0.81048640       2.54191727
Si       0.24741203       1.96533320       2.87871613
Si       3.58896722      -3.51171683      11.73969276
Si       2.32276888      -2.02786419      10.35060777
Si       5.03214834       4.29208463       2.09453252
Si       1.74127412       0.51875602       1.33388035
Si       3.89270300       1.66459080       7.21950486
Si       2.70700840      -0.37873709       6.65515961
Si       1.25212793      -0.76138637       3.86083472
Si       3.90000325       1.01291191       0.56049292
Si       4.32000388      -1.35386669       1.57956471
22
Lattice="7.029780272289041 -0.6113475138192269 -0.4820169265012227 -2.0541016341050304 7.663247602980818 -2.4845575830263655 -1.9881239625758267 -5.15492052247932 12.640074805659253" Properties=species:S:1:pos:R:3 unique_starting_index=51 config_type=initial n_minim_iter=8 stress="0.002080826780477101 -0.0013827625614644598 -0.0018175696925619756 -0.0013827625614644598 -0.006533019026687524 0.004347333739329559 -0.0018175696925619756 0.004347333739329559 0.006313118381932387" pbc="T T T"
Si       4.09526339       5.43225065       1.02594623
Si      -0.97828461      -0.09611696       6.84898400
Si       0.31953997       6.35056184      -2.53102872
Si      -1.35699025       3.27087255       1.89488482
Si      -0.38190236       0.39024736       5.10055950
Si       4.52835603      -0.81134721       4.69616565
Si      -0.74552901       0.45037179       1.17968377
Si       0.70801690       1.39950589      -0.62627780
Si       0.42555456      -1.17008881       6.10066084
Si       3.73318218      -0.71895241       8.85179657
Si      -1.45813706       1.06156177       8.24511930
Si       4.98784043       0.81539378       2.57475398
Si       0.22749243       1.97999966       2.93566064
Si       3.64569103      -3.32650367      11.83789064
Si       2.37448027      -1.88196738      10.41760875
Si       5.04751374       4.24871274       2.19020593
Si       1.76553370       0.50998647       1.36384299
Si       3.90603695       1.71179466       7.36334745
Si       2.71660350      -0.30412188       6.72132353
Si       1.26518098      -0.69765827       3.91586197
Si       3.92586512       1.00391980       0.57270129
Si       4.34525933      -1.33187739       1.59898176
22
Lattice="6.973281372445028 -0.6127417325363546 -0.4584150922032179 -2.0372316235033323 7.76276315793522 -2.47801344200003 -1.9399565392639826 -5.214423135316046 12.603186777390775" Properties=species:S:1:pos:R:3 unique_starting_index=51 config_type=initial n_minim_iter=9 stress="-0.0025703686216064932 0.0014137792067422583 0.0008445537995101063 0.0014137792067422583 0.0005769557198106559 0.004681477475636853 0.0008445537995101063 0.004681477475636853 0.0034877036973478986" pbc="T T T"
Si       4.08988853       5.51048521       1.07129278
Si      -0.95055401      -0.10050250       6.83732439
Si       0.31488604       6.43669533      -2.53272117
Si      -1.34586798       3.32511966       1.89422426
Si      -0.35405521       0.40522023       5.08555950
Si       4.51349775      -0.81092899       4.70827806
Si      -0.74000715       0.46714553       1.18000525
Si       0.69920493       1.41971306      -0.61612131
Si       0.41294570      -1.17894311       6.05993724
Si       3.73924294      -0.72449539       8.84051301
Si      -1.41661187       1.08194728       8.21889228
Si       4.96005604       0.83370345       2.57915906
Si       0.23143471       2.00996174       2.93064003
Si       3.65018202      -3.35293180      11.83004194
Si       2.39441543      -1.89809840      10.38908307
Si       5.02385428       4.30609571       2.20607242
Si       1.76451646       0.51202180       1.36777502
Si       3.89583194       1.73963613       7.38436285
Si       2.70646510      -0.30283974       6.71223292
Si       1.26344475      -0.69318919       3.92463087
Si       3.90266384       1.02852260       0.57730258
Si       4.30995176      -1.34144258       1.61456718
22
Lattice="6.925870872202155 -0.6456575439765371 -0.501212114592678 -2.0338700866932613 7.8761201134906855 -2.48948459720227 -1.98716555723687 -5.314170796231819 12.631084682145305" Properties=species:S:1:pos:R:3 unique_starting_index=51 config_type=initial n_minim_iter=10 stress="-0.005595020260852771 -0.0010322694239751978 -0.004590088055935906 -0.0010322694239751978 -0.00036929264288317076 0.0001713945163902567 -0.004590088055935906 0.0001713945163902567 0.000851545635879967" pbc="T T T"
Si       4.06721669       5.55834662       1.08194593
Si      -0.99740152      -0.13117502       6.84638454
Si       0.30036160       6.53353439      -2.56695481
Si      -1.37318586       3.37446499       1.89189863
Si      -0.36988212       0.40206633       5.08565751
Si       4.46751880      -0.84935093       4.69719842
Si      -0.75092273       0.49232024       1.19100321
Si       0.68850824       1.43650043      -0.61348775
Si       0.32785823      -1.22569240       5.99890439
Si       3.67484769      -0.79404941       8.80527943
Si      -1.45134948       1.07092003       8.19351799
Si       4.90381013       0.81494386       2.52917761
Si       0.19692475       2.02505096       2.91632335
Si       3.55818548      -3.43997617      11.83131749
Si       2.33497621      -1.97431302      10.35108566
Si       4.96073469       4.32909775       2.16664174
Si       1.75566804       0.48922723       1.35213915
Si       3.80683828       1.70597538       7.39667898
Si       2.62557965      -0.34861230       6.68613672
Si       1.22532448      -0.69744278       3.94311778
Si       3.87333128       1.03663329       0.53271141
Si       4.25972249      -1.37286644       1.60109394
22
Lattice="6.966829936757538 -0.6124711395667624 -0.43207414945026634 -2.0322891064756123 7.888441195472193 -2.466215058875651 -1.9000156228651133 -5.281102354544722 12.573362485104154" Properties=species:S:1:pos:R:3 unique_starting_index=51 config_type=initial n_minim_iter=11 stress="-0.0023030450815810094 0.006911386636944869 0.000577790242387846 0.006911386636944869 -0.004626585481327488 0.0030807275842410324 0.000577790242387846 0.0030807275842410324 0.00038773167728340416" pbc="T T T"
Si       4.17652874       5.61417601       1.20811753
Si      -0.95236261      -0.11850168       6.80479858
Si       0.30463068       6.56893640      -2.53010177
Si      -1.35880225       3.40108510       1.88758948
Si      -0.30096626       0.43411301       5.09220282
Si       4.56452056      -0.79549032       4.75766484
Si      -0.74831255       0.51910367       1.19068266
Si       0.69265112       1.43798836      -0.58127145
Si       0.33341971      -1.20320229       5.93222355
Si       3.80675101      -0.74837953       8.81769657
Si      -1.36336873       1.12186346       8.15051632
Si       4.96341858       0.85779301       2.56917266
Si       0.24041316       2.05445414       2.91986777
Si       3.68186071      -3.35832451      11.86389919
Si       2.47092811      -1.92627124      10.32646231
Si       5.04590327       4.36672451       2.25009624
Si       1.80102909       0.48635811       1.36450996
Si       3.91681704       1.75391055       7.49557659
Si       2.68818589      -0.31133487       6.69663495
Si       1.26201510      -0.63506798       3.97846283
Si       3.91757011       1.08030053       0.55972558
Si       4.28210353      -1.33359329       1.64513588
22
Lattice="6.964712311052436 -0.6346667009094604 -0.40598179650661137 -2.05934006096558 7.9716752467362975 -2.5003981815796537 -1.8456126540134472 -5.3714550124806415 12.570767332438814" Properties=species:S:1:pos:R:3 unique_starting_index=51 config_type=initial n_minim_iter=12 stress="0.003531438262580055 0.0010490962790953573 0.004379979669822066 0.0010490962790953573 0.010542980998722359 -0.0003156751949362081 0.004379979669822066 -0.0003156751949362081 0.005674400924458951" pbc="T T T"
Si       4.18437872       5.65462650       1.21352193
Si      -0.95994349      -0.15060779       6.77684597
Si       0.27726673       6.64864646      -2.55058027
Si      -1.36409530       3.42098937       1.85112919
Si      -0.27354504       0.42205302       5.08543355
Si       4.59770663      -0.82729898       4.78553636
Si      -0.74661076       0.53233418       1.18403190
Si       0.68893153       1.44163574      -0.57001970
Si       0.33661546      -1.24228846       5.90547126
Si       3.84663975      -0.80940545       8.81040709
Si      -1.33687305       1.11301654       8.11905516
Si       4.95895010       0.83974452       2.57403730
Si       0.25428224       2.06183037       2.90304320
Si       3.72173854      -3.43325897      11.88888816
Si       2.52425011      -2.00027750      10.31109177
Si       5.04429854       4.35235234       2.26116207
Si       1.81033322       0.46648900       1.35712568
Si       3.93927058       1.71104797       7.52796161
Si       2.69706330      -0.35662867       6.69206285
Si       1.26852976      -0.62761027       3.99721637
Si       3.91540446       1.08367371       0.55867051
Si       4.27611866      -1.35115189       1.66262504
22
Lattice="6.955203359546571 -0.6215838269545441 -0.42647652967617866 -2.0343626418290115 8.008911893976135 -2.594712908933016 -1.8976157550428856 -5.51755678428598 12.713217134242116" Properties=species:S:1:pos:R:3 unique_starting_index=51 config_type=initial n_minim_iter=13 stress="0.003861793090175071 -0.0008279397838663688 0.005276936787413103 -0.0008279397838663688 0.00987057134875075 -0.0062159939263306315 0.005276936787413103 -0.0062159939263306315 -0.0010356368519992924" pbc="T T T"
Si       4.24736064       5.67248434       1.21508353
Si      -1.02436290      -0.23139497       6.78366782
Si       0.28986237       6.71275300      -2.68804993
Si      -1.37545431       3.37531345       1.79224459
Si      -0.27912454       0.36579736       5.14176838
Si       4.62801533      -0.86151295       4.84719780
Si      -0.75429704       0.55839549       1.18964266
Si       0.68957111       1.43759288      -0.55913115
Si       0.22655407      -1.30958251       5.87610426
Si       3.84528036      -0.92569421       8.83155425
Si      -1.35222395       1.03744874       8.13757635
Si       4.92607424       0.82379041       2.54419402
Si       0.25171285       2.04219259       2.87902754
Si       3.66396699      -3.53271012      12.02165050
Si       2.52410817      -2.13938077      10.33064301
Si       5.03489991       4.29603040       2.24880568
Si       1.83193850       0.41585850       1.33644997
Si       3.91196180       1.58332883       7.65253000
Si       2.62825420      -0.44915311       6.71105715
Si       1.24025345      -0.58987203       4.06972329
Si       3.91255901       1.10872359       0.51107018
Si       4.22433681      -1.33512062       1.68273689
22
Lattice="6.953228186131878 -0.6178219670813028 -0.43421837605112595 -2.0271631531940493 8.003555393381232 -2.5920848884046648 -1.9109551642532676 -5.50356009804146 12.748576257636207" Properties=species:S:1:pos:R:3 unique_starting_index=51 config_type=initial n_minim_iter=14 stress="0.005435614182240948 -0.002613113579929804 0.0016873519896670425 -0.002613113579929804 0.014164351376176986 -0.0026063353688701055 0.0016873519896670425 -0.0026063353688701055 -0.002623085349020767" pbc="T T T"
Si       4.27056270       5.67855093       1.24276468
Si      -1.04819616      -0.21998801       6.79786495
Si       0.29351752       6.71743260      -2.70455407
Si      -1.37849711       3.36830779       1.79092982
Si      -0.28128909       0.37098654       5.16774390
Si       4.64167643      -0.84968601       4.87052237
Si      -0.75575215       0.57128174       1.19360383
Si       0.69040067       1.43156657      -0.54847476
Si       0.19836063      -1.30438476       5.87006571
Si       3.84742753      -0.92098541       8.84633793
Si      -1.35514902       1.04728843       8.15588250
Si       4.91615438       0.83098149       2.54455600
Si       0.25359352       2.04767271       2.88455642
Si       3.64931055      -3.50789972      12.06299728
Si       2.52803056      -2.13554253      10.34021161
Si       5.03233512       4.28234667       2.26379459
Si       1.83924575       0.40643425       1.33305594
Si       3.90734890       1.57491988       7.71178603
Si       2.60979028      -0.44760498       6.72467623
Si       1.23116903      -0.55729593       4.09622972
Si       3.91145128       1.11825873       0.50345674
Si       4.20822700      -1.32035297       1.68481081
22
Lattice="6.931648434625036 -0.5622759499137815 -0.4196943442341405 -1.9771218782496887 7.875167837563129 -2.634292090468951 -1.9105400942575415 -5.436958740730353 12.919880905488887" Properties=species:S:1:pos:R:3 unique_starting_index=51 config_type=initial n_minim_iter=15 stress="0.0063034092894509825 -0.004637963861890569 -0.0009590827244235534 -0.004637963861890569 0.0028079455941932385 -0.00012496798715801882 -0.0009590827244235534 -0.00012496798715801882 -0.00953675036996828" pbc="T T T"
Si       4.33665872       5.62407860       1.26369896
Si      -1.08217285      -0.19385492       6.86956489
Si       0.32817057       6.64004664      -2.77259920
Si      -1.34505435       3.28442903       1.77511190
Si      -0.28274524       0.36602314       5.25951324
Si       4.68620606      -0.80143345       4.97439673
Si      -0.73952669       0.57278019       1.19278671
Si       0.70502242       1.39335384      -0.52799787
Si       0.20198884      -1.30525167       5.96700258
Si       3.86541935      -0.88312338       8.96753561
Si      -1.33169188       1.02973399       8.26672564
Si       4.89165773       0.85789611       2.60134713
Si       0.29641711       2.02278607       2.91563605
Si       3.64305674      -3.41739339      12.25217023
Si       2.55919401      -2.10699955      10.46382463
Si       5.03700769       4.23185292       2.31055502
Si       1.84840369       0.39959339       1.33431584
Si       3.94412443       1.53734396       7.89887771
Si       2.60805418      -0.43583557       6.82299874
Si       1.21902661      -0.47999886       4.18267356
Si       3.89804826       1.13115886       0.52161722
Si       4.16525799      -1.25061176       1.70698007
22
Lattice="6.871896327073605 -0.5287894231532277 -0.4580659913897798 -1.9216521728120752 7.756710412676136 -2.721701789891235 -1.9722003786419742 -5.399252327290692 13.29816064210376" Properties=species:S:1:pos:R:3 unique_starting_index=51 config_type=initial n_minim_iter=16 stress="-0.0017374283517157564 -0.003374864629664529 -0.003248296363960727 -0.003374864629664529 -0.007445875699120487 -0.0018646277772660363 -0.003248296363960727 -0.0018646277772660363 -0.019251412092713263" pbc="T T T"
Si       4.36494311       5.56721376       1.27743619
Si      -1.11442394      -0.18902171       7.06304633
Si       0.35530787       6.56218887      -2.94852439
Si      -1.33419663       3.19201283       1.79259283
Si      -0.33453939       0.34399329       5.43640070
Si       4.68536643      -0.79010730       5.10804562
Si      -0.73250791       0.59066975       1.21607811
Si       0.71014249       1.35669389      -0.51894544
Si       0.11419407      -1.30477044       6.13029008
Si       3.80852404      -0.88998208       9.18356716
Si      -1.36067216       0.97990870       8.48920659
Si       4.81799356       0.86391147       2.64664298
Si       0.29139983       1.98537824       2.97207259
Si       3.54612763      -3.37414212      12.58898732
Si       2.51691121      -2.12324933      10.69417496
Si       4.98383335       4.14449438       2.34201557
Si       1.84811142       0.37547630       1.34056933
Si       3.88940524       1.44826919       8.20807781
Si       2.53620470      -0.45724317       6.99659159
Si       1.16945674      -0.41226790       4.33427502
Si       3.85879560       1.13491521       0.51488022
Si       4.07910998      -1.19459808       1.73128839
22
Lattice="6.808421101574146 -0.5031272595156651 -0.4613424264787445 -1.884250274190888 7.660583958624178 -2.806660097037182 -1.9624999629006938 -5.338964637027479 13.709400557509936" Properties=species:S:1:pos:R:3 unique_starting_index=51 config_type=initial n_minim_iter=17 stress="-0.008681068743707006 -0.003048433398993845 -0.002355967984269121 -0.003048433398993845 -0.002258938613310316 0.0027706343058039565 -0.002355967984269121 0.0027706343058039565 -0.001919980650719792" pbc="T T T"
Si       4.39924935       5.52942101       1.32324562
Si      -1.10815380      -0.16225546       7.30446625
Si       0.36552400       6.50027904      -3.10742031
Si      -1.31348374       3.12424830       1.82462989
Si      -0.36539918       0.35105511       5.62028219
Si       4.71094090      -0.77711037       5.26716969
Si      -0.71652255       0.61388393       1.24027802
Si       0.71875522       1.31183485      -0.50040527
Si       0.07963667      -1.30653738       6.35437491
Si       3.79003890      -0.86746324       9.46370130
Si      -1.35037274       0.96518555       8.76213246
Si       4.75307755       0.87226960       2.74313930
Si       0.30729075       1.95703270       3.05092592
Si       3.51138874      -3.31022284      12.98372441
Si       2.52804818      -2.11384601      10.98203389
Si       4.93373290       4.09139288       2.38938819
Si       1.84932365       0.36162144       1.35424878
Si       3.86901906       1.39837561       8.59497534
Si       2.50997533      -0.45730145       7.22190456
Si       1.12709617      -0.32923401       4.51942361
Si       3.81646544       1.13491902       0.54675107
Si       4.00027751      -1.13825052       1.76716319
22
Lattice="6.828566356301882 -0.4837691708511933 -0.46850144663249255 -1.8726464697848402 7.614179161296292 -2.8640146254159786 -1.9828513101399527 -5.31962455197281 13.97421236648577" Properties=species:S:1:pos:R:3 unique_starting_index=51 config_type=initial n_minim_iter=18 stress="-0.007653183858204535 -0.004263057616765525 0.0008585710735993735 -0.004263057616765525 -0.013086286451739997 -0.0015198977133929444 0.0008585710735993735 -0.0015198977133929444 0.0035438472464796138" pbc="T T T"
Si       4.48022220       5.54638392       1.36303381
Si      -1.09404566      -0.16172153       7.44602966
Si       0.37500999       6.47481792      -3.22133459
Si      -1.32014097       3.09249347       1.85998407
Si      -0.38216881       0.35469323       5.74502070
Si       4.77679510      -0.78918975       5.36341893
Si      -0.71712856       0.64659989       1.26247055
Si       0.73043325       1.28096163      -0.48052602
Si       0.01558056      -1.32671609       6.45935081
Si       3.81508344      -0.86461213       9.63435479
Si      -1.34704849       0.94628784       8.91886435
Si       4.75596551       0.87780416       2.79258251
Si       0.30651271       1.93231757       3.09411170
Si       3.51510156      -3.28317889      13.22712467
Si       2.56373238      -2.12243562      11.13728775
Si       4.95553748       4.07359868       2.40123572
Si       1.87775767       0.34668244       1.35181261
Si       3.86337114       1.36524628       8.89118741