10
Lattice="4.660439798250367 -0.7508417787329481 4.671174177785409e-07 -0.9375629489934667 4.919805848505434 -1.2877466731880128e-07 -0.4687824027746721 2.4599029926451483 9.371381042575713" Properties=species:S:1:pos:R:3 unique_starting_index=99 config_type=initial n_minim_iter=1 energy=-1627.805154507588 free_energy=-1627.805154507588 pbc="T T T"
Si       2.73444816       3.16924227       6.77506353
Si       3.20323005       0.70933931       2.59631815
Si       0.69763021       1.80100955       3.88931469
Si       0.22884858       4.26091249       5.48206648
Si       2.43025543       3.96437637       4.40797406
Si       2.89903684       1.50447345       4.96340754
Si       0.91002675       1.16955669       1.45276774
Si       0.44124464       3.62945967       7.91861348
Si      -0.28832115       4.20342139       2.98589908
Si       0.18045998       1.74351849       6.38548198
10
Lattice="4.659348586054474 -0.7412101418935428 4.669390364564907e-07 -0.928873772785832 4.9092663700299255 -1.2783704764668265e-07 -0.46443781345018653 2.454633253317459 9.359057850439454" Properties=species:S:1:pos:R:3 unique_starting_index=99 config_type=initial n_minim_iter=2 stress="-0.003912294026047575 0.0002571241350647737 4.520585135061451e-11 0.0002571241350647737 -0.003973839792048782 2.244946588825999e-11 4.520585135061451e-11 2.244946588825999e-11 -0.004387611982186009" pbc="T T T"
Si       2.74041349       3.16840721       6.76246747
Si       3.20485079       0.71377400       2.59659102
Si       0.70096366       1.80286350       3.88427914
Si       0.23652662       4.25749669       5.47477883
Si       2.43699945       3.95978763       4.40110835
Si       2.90143628       1.50515445       4.95795006
Si       0.91301683       1.17006319       1.45166591
Si       0.44857930       3.62469642       7.90739211
Si      -0.28160552       4.19219294       2.97873785
Si       0.18283103       1.73755978       6.38032002
10
Lattice="4.674532011342218 -0.7185665033893978 4.682777703598095e-07 -0.909592147842608 4.899535910028746 -1.2585610200865274e-07 -0.454797001592594 2.449768023362108 9.365256653190269" Properties=species:S:1:pos:R:3 unique_starting_index=99 config_type=initial n_minim_iter=3 stress="0.0013822133603222356 0.0006973658177573342 2.690040764407643e-10 0.0006973658177573342 -0.0012035844634194332 6.77539699875829e-11 2.690040764407643e-10 6.77539699875829e-11 -0.0013848834591403743" pbc="T T T"
Si       2.76669217       3.17783512       6.75663779
Si       3.22148865       0.72806714       2.60861950
Si       0.71257115       1.81539622       3.88714981
Si       0.25777492       4.26516419       5.47810697
Si       2.46406330       3.96170443       4.40081143
Si       2.91885931       1.51193648       4.96444579
Si       0.92470316       1.17602624       1.45469794
Si       0.46990644       3.62579424       7.91055889
Si      -0.26520960       4.17719590       2.97116675
Si       0.18958613       1.72742797       6.39408993
10
Lattice="4.656298395864067 -0.7208085604220863 4.664880103564821e-07 -0.9068480063927122 4.908491497236585 -1.2564964028394075e-07 -0.4534249335312463 2.4542458171622723 9.392146889434978" Properties=species:S:1:pos:R:3 unique_starting_index=99 config_type=initial n_minim_iter=4 stress="-0.0008150383034902717 0.0005839052072495152 -2.1547557719598128e-10 0.0005839052072495152 0.00014594308459787658 6.638648421223115e-11 -2.1547557719598128e-10 6.638648421223115e-11 0.001317262976848802" pbc="T T T"
Si       2.75520009       3.18274241       6.77243242
Si       3.20862450       0.72849663       2.61971511
Si       0.70945697       1.82374049       3.89884341
Si       0.25603281       4.27798626       5.49330360
Si       2.45315998       3.96497198       4.41125458
Si       2.90658392       1.51072623       4.98089287
Si       0.92205420       1.17920361       1.46050668
Si       0.46862956       3.63344941       7.93164038
Si      -0.26539407       4.18175908       2.97614423
Si       0.18802959       1.72751336       6.41600268
10
Lattice="4.666399606158908 -0.7432669109800767 4.6765248247746415e-07 -0.9299734082637503 4.924722215944982 -1.2805876851666133e-07 -0.4649876308267676 2.462361176248287 9.355399481665563" Properties=species:S:1:pos:R:3 unique_starting_index=99 config_type=initial n_minim_iter=5 stress="0.0005176164083903736 -0.0004171242294724838 1.3177643521665626e-10 -0.0004171242294724838 0.00119226487274707 -5.57264760181707e-11 1.3177643521665626e-10 -5.57264760181707e-11 -0.0007819944170688637" pbc="T T T"
Si       2.74403760       3.17717992       6.74248251
Si       3.20902471       0.71481879       2.61291760
Si       0.70239489       1.83253655       3.88421323
Si       0.23740803       4.29489767       5.47118638
Si       2.43837713       3.95691986       4.38925572
Si       2.90336378       1.49455875       4.96614433
Si       0.92005671       1.17980561       1.45793706
Si       0.45506936       3.64216676       7.89746259
Si      -0.28424189       4.19243652       2.96093146
Si       0.18074448       1.73007544       6.39446805
10
Lattice="4.672943365698989 -0.7458285831906 4.6831936673688555e-07 -0.9369909595096796 4.906120748774171 -1.2861813521305188e-07 -0.46849640845367535 2.453060442810526 9.375630183825029" Properties=species:S:1:pos:R:3 unique_starting_index=99 config_type=initial n_minim_iter=6 stress="0.00018728805577705864 -0.0011587401899711184 -3.319814972370231e-11 -0.0011587401899711184 -0.0016443771048661121 -9.834226030986834e-11 -3.319814972370231e-11 -9.834226030986834e-11 0.0006078098855440121" pbc="T T T"
Si       2.74182789       3.15921268       6.75369278
Si       3.21032378       0.70615228       2.62193804
Si       0.70137199       1.83493997       3.89453926
Si       0.23287635       4.28800035       5.48109105
Si       2.43519463       3.92705282       4.39207455
Si       2.90369005       1.47399245       4.98355619
Si       0.92255542       1.17644118       1.46448260
Si       0.45405930       3.62950160       7.91114775
Si      -0.28957502       4.17612425       2.96362826
Si       0.17892012       1.72306390       6.41200194
10
Lattice="4.663013336843629 -0.672214132809475 4.6679851329718233e-07 -0.8554655058533177 4.917395611699608 -1.2062495221219575e-07 -0.42773367858920813 2.4586978740495424 9.344977522138791" Properties=species:S:1:pos:R:3 unique_starting_index=99 config_type=initial n_minim_iter=7 stress="-0.005534716631174839 -0.00031300218584337795 -4.463744358857887e-10 -0.00031300218584337795 -0.0022830692875350526 -2.1679354484537108e-11 -4.463744358857887e-10 -2.1679354484537108e-11 -0.001005306193635853" pbc="T T T"
Si       2.78533043       3.20929952       6.71591065
Si       3.21306359       0.75060169       2.62906751
Si       0.73589727       1.92492168       3.89667134
Si       0.30816436       4.38361950       5.44830631
Si       2.49132198       3.90582730       4.33659388
Si       2.91905466       1.44712950       5.00838421
Si       0.96124507       1.21843268       1.47719852
Si       0.53351168       3.67713053       7.86777919
Si      -0.22020840       4.20168308       2.94033210
Si       0.20752401       1.74298530       6.40464545
10
Lattice="4.677436901997547 -0.6086326425506504 4.6776321478025193e-07 -0.7908968099837813 4.9195704142299865 -1.1424500093362912e-07 -0.39544932731516313 2.459785275068704 9.311266033559559" Properties=species:S:1:pos:R:3 unique_starting_index=99 config_type=initial n_minim_iter=8 stress="-0.00516985574190633 0.0005097575711400238 -4.900548931574568e-10 0.0005097575711400238 -0.0004691720659943492 5.201946625715143e-11 -4.900548931574568e-10 5.201946625715143e-11 -0.00026008972342412494" pbc="T T T"
Si       2.83651764       3.24735330       6.68022918
Si       3.23196645       0.78756806       2.63103749
Si       0.76915104       1.99578251       3.89272202
Si       0.37370249       4.45556772       5.41854415
Si       2.54741972       3.87923834       4.28782531
Si       2.94286806       1.41945314       5.02344130
Si       0.99761321       1.25324508       1.48574636
Si       0.60216418       3.71303034       7.82551987
Si      -0.15983780       4.22118557       2.92123429
Si       0.23561026       1.76140039       6.39003177
10
Lattice="4.738183290599692 -0.5703858486522184 4.7350129550731226e-07 -0.7651499405582338 4.904625185506377 -1.1158558598452191e-07 -0.3825758869436112 2.4523126602899796 9.2541381371251" Properties=species:S:1:pos:R:3 unique_starting_index=99 config_type=initial n_minim_iter=9 stress="0.006751539463844284 0.0004756711566999408 6.668621400427427e-10 0.0004756711566999408 0.004114051532993256 1.6977587002585016e-11 6.668621400427427e-10 1.6977587002585016e-11 -1.5777940853725764e-05" pbc="T T T"
Si       2.90296351       3.26399946       6.65655384
Si       3.28553888       0.81168684       2.59758495
Si       0.78655725       1.98847749       3.86383472
Si       0.40398213       4.44079009       5.39030355
Si       2.60654570       3.86248284       4.26212073
Si       2.98912060       1.41017025       4.99201799
Si       1.01425716       1.26535338       1.47179499
Si       0.63168156       3.71766602       7.78234333
Si      -0.11271338       4.24636092       2.92912524
Si       0.26986125       1.79404835       6.32501294
10
Lattice="4.750452031649659 -0.5241516913979428 4.743791528029913e-07 -0.7227777866308233 4.880002837305048 -1.0720873731345381e-07 -0.3613898117728003 2.4400014863214103 9.272238208564163" Properties=species:S:1:pos:R:3 unique_starting_index=99 config_type=initial n_minim_iter=10 stress="0.006276661750042731 2.998846380871427e-05 4.4954040384301744e-10 2.998846380871427e-05 0.002734997541060734 -4.319443031612389e-12 4.4954040384301744e-10 -4.319443031612389e-12 0.0017361401856893627" pbc="T T T"
Si       2.94566646       3.27506030       6.65497869
Si       3.30705575       0.83505885       2.61726017
Si       0.79873957       2.02660930       3.86606659
Si       0.43735053       4.46661073       5.40617175
Si       2.63623967       3.79663034       4.24767954
Si       2.99762849       1.35662892       5.02455925
Si       1.03169569       1.29281971       1.48359984
Si       0.67030618       3.73282118       7.78863857
Si      -0.05330549       4.25055557       2.93656344
Si       0.30808307       1.81055418       6.33567481
10
Lattice="4.718222411719961 -0.5340434441131204 4.712588524923684e-07 -0.7318385250028475 4.8483332884996635 -1.0787512006122824e-07 -0.36592019067377 2.4241667126344835 9.370315054536647" Properties=species:S:1:pos:R:3 unique_starting_index=99 config_type=initial n_minim_iter=11 stress="-0.001582448663487902 -0.0024237843120116036 -2.238295136532153e-10 -0.0024237843120116036 -0.005526678269651935 -1.9350782709572835e-10 -2.238295136532153e-10 -1.9350782709572835e-10 0.0008557867783620513" pbc="T T T"
Si       2.93211027       3.25361470       6.71364761
Si       3.29802993       0.82944803       2.65666810
Si       0.76700211       1.98534885       3.88124302
Si       0.40108268       4.40951550       5.48907217
Si       2.60355404       3.75866917       4.30792658
Si       2.96947323       1.33450253       5.06238905
Si       0.99952195       1.28982665       1.49151688
Si       0.63360206       3.71399334       7.87879837
Si      -0.03803647       4.23209206       2.98127614
Si       0.32788246       1.80792544       6.38903897
10
Lattice="4.709987276674654 -0.48075495000315766 4.700542248791222e-07 -0.6715213202410846 4.863269456717685 -1.020094308388715e-07 -0.33576158745870105 2.4316347966820335 9.361893558358771" Properties=species:S:1:pos:R:3 unique_starting_index=99 config_type=initial n_minim_iter=12 stress="-0.0007135268369833086 -0.0001568001302013281 -1.1678817379135872e-10 -0.0001568001302013281 -0.0015676642556266044 -6.095465814372964e-13 -1.1678817379135872e-10 -6.095465814372964e-13 0.00047705377891084003" pbc="T T T"
Si       2.97418697       3.30424675       6.69720575
Si       3.30994803       0.87261200       2.66468846
Si       0.78529841       2.00986824       3.87322018
Si       0.44953759       4.44150298       5.48867352
Si       2.64658835       3.78850039       4.29834292
Si       2.98234893       1.35686567       5.06355122
Si       1.01089792       1.31681612       1.49114429
Si       0.67513663       3.74845089       7.87074946
Si       0.02457090       4.25685679       2.98101276
Si       0.36033122       1.82522208       6.38088086
10
Lattice="4.675590309732682 -0.40270033638115554 4.660774055407018e-07 -0.5636544199716196 4.978399342953787 -9.216494276834915e-08 -0.2818281299405562 2.4891997392560987 9.287354712706549" Properties=species:S:1:pos:R:3 unique_starting_index=99 config_type=initial n_minim_iter=13 stress="-0.0013973978569960079 0.00023763390175499062 4.5010305511791484e-10 0.00023763390175499062 0.009083285861531053 -8.623931301651192e-11 4.5010305511791484e-10 -8.623931301651192e-11 -0.005958897814382064" pbc="T T T"
Si       3.02572005       3.44199286       6.60235827
Si       3.30754765       0.95279315       2.68499709
Si       0.80485998       2.06983840       3.83789839
Si       0.52303261       4.55903808       5.44945646
Si       2.72843551       3.93066488       4.23475536
Si       3.01026263       1.44146522       5.05259993
Si       1.00671242       1.38912728       1.48797223
Si       0.72488458       3.87832700       7.79938267
Si       0.15294142       4.37445617       2.96510068
Si       0.43476829       1.88525652       6.32225410
10
Lattice="4.701941973557073 -0.28571495284086273 4.6783389768910035e-07 -0.45179799294477746 4.939058316500915 -8.079794382029787e-08 -0.2258999217583644 2.4695292264224484 9.34117587067204" Properties=species:S:1:pos:R:3 unique_starting_index=99 config_type=initial n_minim_iter=14 stress="0.006690943706092551 0.0005119262723421307 9.60009514849282e-11 0.0005119262723421307 0.008793786091431452 2.8013686530010727e-11 9.60009514849282e-11 2.8013686530010727e-11 0.005684054147392265" pbc="T T T"
Si       3.12241219       3.48778444       6.61614199
Si       3.34831157       1.01825525       2.72503454
Si       0.84168766       2.09921045       3.85712852
Si       0.61578850       4.56873962       5.48404749
Si       2.83362821       3.90566806       4.22117182
Si       3.05952712       1.43613891       5.12000464
Si       1.03126203       1.43391230       1.50816412
Si       0.80536240       3.90344151       7.83301195
Si       0.30351278       4.39137881       2.99928074
Si       0.52941144       1.92184968       6.34189522
10
Lattice="4.713758387585341 -0.15988738237056713 4.680860767540624e-07 -0.3217670685026959 4.9364382041115835 -6.78986679496833e-08 -0.16088446027479877 2.468219170282117 9.348621024908574" Properties=species:S:1:pos:R:3 unique_starting_index=99 config_type=initial n_minim_iter=15 stress="0.01170783466742364 0.002060676445951423 1.421367292902306e-10 0.002060676445951423 0.006895506268006233 2.276594631849656e-10 1.421367292902306e-10 2.276594631849656e-10 0.01012107665285944" pbc="T T T"
Si       3.21570792       3.56445438       6.58800889
Si       3.37659183       1.09623525       2.76061279
Si       0.88019217       2.14161338       3.85980637
Si       0.71930847       4.60983250       5.48881481
Si       2.94822473       3.92313605       4.17892400
Si       3.10910817       1.45491696       5.16969763
Si       1.05085420       1.49276202       1.52414326
Si       0.88997004       3.96098116       7.82447796
Si       0.48023068       4.44410858       3.01987514
Si       0.64111389       1.97588950       6.32874599
10
Lattice="4.685872856833512 -0.07502520004265029 4.6470456331960184e-07 -0.22712416143732012 4.933012275050437 -5.8498854992709604e-08 -0.11356300658668735 2.4665062057400906 9.347051963375616" Properties=species:S:1:pos:R:3 unique_starting_index=99 config_type=initial n_minim_iter=16 stress="-0.002132196734786868 0.0015393035616977652 -3.2473650295277244e-10 0.0015393035616977652 -0.0060703642597946215 2.0431328066694536e-10 -3.2473650295277244e-10 2.0431328066694536e-10 0.0010327518689250033" pbc="T T T"
Si       3.22691686       3.59992477       6.54264118
Si       3.34047931       1.13341860       2.80441144
Si       0.89739159       2.17472480       3.87734463
Si       0.78382935       4.64123095       5.46970749
Si       3.02697667       3.94180696       4.11612294
Si       3.14053864       1.47530083       5.23092963
Si       1.03838894       1.53386852       1.54831554
Si       0.92482624       4.00037470       7.79873661
Si       0.63336636       4.47774936       3.02920805
Si       0.74692812       2.01124325       6.31784404
10
Lattice="4.671445921046898 -0.15616260111864008 4.6386765147826793e-07 -0.30655547816912887 4.95361479158444 -6.651724635497971e-08 -0.15327866283901173 2.4768074638513684 9.32571442731782" Properties=species:S:1:pos:R:3 unique_starting_index=99 config_type=initial n_minim_iter=17 stress="-0.006710142167806886 -0.003850895195917952 -5.2770676433952687e-11 -0.003850895195917952 -0.005083931196830575 -3.873585106774661e-10 -5.2770676433952687e-11 -3.873585106774661e-10 -0.005893677736579995" pbc="T T T"
Si       3.14999306       3.57052512       6.52233080
Si       3.30327117       1.09371770       2.80338428
Si       0.86062570       2.15708615       3.87399671
Si       0.70734781       4.63389356       5.45171786
Si       2.97306768       3.94752063       4.12908846
Si       3.12634531       1.47071324       5.19662657
Si       1.00005103       1.50892503       1.54131612
Si       0.84677267       3.98573247       7.78439849
Si       0.55417078       4.44490938       3.00045702
Si       0.70744819       1.96810201       6.32525752
10
Lattice="4.662392375462923 -0.024910432071059852 4.6201297796787643e-07 -0.15571141942748462 5.018576809235674 -5.204955003608664e-08 -0.07785663234448852 2.5092884725941937 9.314370188572678" Properties=species:S:1:pos:R:3 unique_starting_index=99 config_type=initial n_minim_iter=18 stress="0.00563983731907986 -0.0011710544752542849 8.633683144152458e-10 -0.0011710544752542849 0.008083334162820107 -1.9681160115720325e-10 8.633683144152458e-10 -1.9681160115720325e-10 -0.002989971478282008" pbc="T T T"
Si       3.23029731       3.72161383       6.46480960
Si       3.30815338       1.21232540       2.84956123
Si       0.89476944       2.21061126       3.87480523
Si       0.81691357       4.71989968       5.43956511
Si       3.11860219       4.06385148       4.10045273
Si       3.19645779       1.55456309       5.21391807
Si       0.99330629       1.58208996       1.54968743
Si       0.91544996       4.09137841       7.76468294
Si       0.76809176       4.52755046       2.99651775
Si       0.84594714       2.01826208       6.31785258
10
Lattice="4.632096216808021 0.08184748048426171 4.582328856522725e-07 -0.050193506716699254 4.9361721264616705 -4.099613123260959e-08 -0.025097686894477306 2.4680861320106637 9.424464904512208" Properties=species:S:1:pos:R:3 unique_starting_index=99 config_type=initial n_minim_iter=19 stress="-0.002525524106567067 0.0011181527723013885 -7.240270119773301e-10 0.0011181527723013885 3.51603934899624e-05 1.4481239873998282e-10 -7.240270119773301e-10 1.4481239873998282e-10 0.004701472863548415" pbc="T T T"
Si       3.25016501       3.77318623       6.54650046
Si       3.27526213       1.30510014       2.87796508
Si       0.92354204       2.18952086       3.94804561
Si       0.89844514       4.65760693       5.47641946
Si       3.22848230       4.07975949       4.16814372
Si       3.25357894       1.61167343       5.25632181
Si       0.97131230       1.57629226       1.56513472
Si       0.94621492       4.04437837       7.85933037
Si       0.90949122       4.43934283       3.01545261
Si       0.93458764       1.97125679       6.40901246
10
Lattice="4.651221468584462 0.09017770657471684 4.6006653516216435e-07 -0.05064617716758273 4.902660923860905 -4.079640541760357e-08 -0.025324018338430978 2.4513305304316733 9.386289097804822" Properties=species:S:1:pos:R:3 unique_starting_index=99 config_type=initial n_minim_iter=20 stress="-0.002251386663057079 0.0002131009950480896 -1.7257192673056219e-10 0.0002131009950480896 -0.0019017676157659573 3.115653998875744e-11 -1.7257192673056219e-10 3.115653998875744e-11 -0.0005248936034087739" pbc="T T T"
Si       3.25064976       3.77162222       6.55068898
Si       3.27597322       1.32029173       2.83560075
Si       0.92547977       2.17319452       3.94495248
Si       0.90015653       4.62452499       5.44133677
Si       3.24916989       4.04025755       4.16239668
Si       3.27449287       1.58892710       5.22389305
Si       0.96353345       1.56671943       1.55731084
Si       0.93820974       4.01804993       7.82897844
Si       0.93169804       4.41540883       3.00696482
Si       0.95702079       1.96407840       6.37932445
10
Lattice="4.658505795646039 0.10837252028827649 4.606552948049017e-07 -0.0338408412498371 4.896847209775277 -3.908933178148385e-08 -0.01692134840661297 2.4484236732434996 9.366371332815826" Properties=species:S:1:pos:R:3 unique_starting_index=99 config_type=initial n_minim_iter=21 stress="-0.0002441461435093502 0.0004317031816458355 1.3014347520994264e-12 0.0004317031816458355 -0.0005069742416440245 4.435172725567077e-11 1.3014347520994264e-12 4.435172725567077e-11 -0.0002890884167688611" pbc="T T T"
Si       3.25985029       3.79090573       6.54861455
Si       3.27677108       1.34248210       2.81775743
Si       0.93149258       2.17940222       3.94387087
Si       0.91457201       4.62782583       5.42250062
Si       3.27102480       4.02247946       4.14732417
Si       3.28794511       1.57405587       5.21904780
Si       0.96238337       1.57644760       1.55867168
Si       0.94546233       4.02487126       7.80769983
Si       0.96473429       4.41634942       2.99751893
Si       0.98165438       1.96792584       6.36885258
