24
Lattice="7.800943867771453 -9.135494438202946e-12 1.1303325926029913e-14 3.900471933893638 6.755815562981944 -5.291207171956989e-14 3.900471933888348 2.251938520991044 12.493733835665427" Properties=species:S:1:pos:R:3 unique_starting_index=24 config_type=initial n_minim_iter=1 energy=-3969.0784662015044 free_energy=-3969.0784662015044 pbc="T T T"
Si       8.69984034       3.94722752      12.77250614
Si       7.83356749       5.56066899      12.77250614
Si       6.86942261       4.00373395      12.77250614
Si       8.85059398       4.62884396       9.54407080
Si       7.16789351       5.35041725       9.54407080
Si       7.38434295       3.53236925       9.54407080
Si       9.44340960       3.54977705       2.86973098
Si       7.80598506       6.40334409       2.86973098
Si       6.15343578       3.55850932       2.86973098
Si       8.76186122       5.05496622       3.78164931
Si       6.84322718       5.06051129       3.78164931
Si       7.79774203       3.39615294       3.78164931
Si       8.54744071       6.33372495       8.83929688
Si       5.84299990       4.23543832       8.83929688
Si       9.01238983       2.94246719       8.83929688
Si      10.45865713       3.70264159       9.67932188
Si       7.16597672       7.20614197       9.67932188
Si       5.77819659       2.60284690       9.67932188
Si       8.48378009       8.19142370       8.82223506
Si       4.26601590       3.25145723       8.82223506
Si      10.65303445       2.06874952       8.82223506
Si       3.87816817       1.17956735       1.84105170
Si       4.84032372       2.76880848       1.84105170
Si       2.98292275       2.80743906       1.84105170
