22
Lattice="6.819949762983485 -1.0900824379821341 -0.7845928273723277 -2.459985953883027 6.937700125775363 -3.243326958118832 -1.9887628400326736 -4.887665305202274 15.377075564271337" Properties=species:S:1:pos:R:3 unique_starting_index=51 config_type=initial n_minim_iter=1 energy=-3639.2281740916283 free_energy=-3639.2281740916283 pbc="T T T"
Si       3.63379741       4.85360212       1.24078346
Si      -1.51842056      -0.25955171       8.21121992
Si       0.48618483       5.89998092      -4.02846798
Si      -1.94742578       2.61331097       1.94425893
Si      -0.67735136       0.45418790       6.67467193
Si       4.62786243      -1.67253752       5.68142178
Si      -1.09131438       1.14919142       1.12405912
Si       0.17490925       0.04971340       0.30810375
Si      -0.55340736      -1.40131430       7.03479347
Si       3.98527011      -1.37612160      10.39616019
Si      -2.28273767       0.53834935       9.69122001
Si       4.87606762      -0.13566937       1.96502057
Si      -0.43671872       1.90048465       2.86813591
Si       3.21533698      -3.41577872      14.72972572
Si       3.04309554      -2.36428430      11.60100286
Si       4.42239469       3.24277100       1.73006718
Si       2.06755837      -0.10590988       0.34919717
Si       3.53995715       0.41920984      10.16686982
Si       2.73313409      -0.79245535       9.00722219
Si       0.84658112      -0.83046858       6.03309127
Si       3.87633890       0.31224140       0.08689928
Si       3.61315301      -0.96282143       0.94570490
22
Lattice="6.865768901469277 -1.0778491224788032 -0.8047494034464998 -2.4521174015718206 6.968912229600767 -3.26613068269454 -2.0578287256237715 -4.9515215746247145 15.45284438455215" Properties=species:S:1:pos:R:3 unique_starting_index=51 config_type=initial n_minim_iter=2 stress="0.03483590510211384 -0.013628829428652383 -0.0008869197152684943 -0.013628829428652383 0.028816662428332765 0.023989530002053835 -0.0008869197152684943 0.023989530002053835 0.039683566002241724" pbc="T T T"
Si       3.66337583       4.87917908       1.22123032
Si      -1.55218478      -0.28675688       8.24425112
Si       0.51367764       5.93511960      -4.06110239
Si      -1.96102774       2.61534154       1.94982919
Si      -0.70004533       0.43637823       6.69975095
Si       4.63953447      -1.68354617       5.69394469
Si      -1.09981508       1.14809116       1.12952181
Si       0.17627476       0.04985017       0.30810355
Si      -0.58266645      -1.42552334       7.06831370
Si       3.97800764      -1.39985728      10.42743518
Si      -2.32445281       0.51297861       9.73276730
Si       4.90248473      -0.13133320       1.95863655
Si      -0.44501013       1.89989535       2.87466196
Si       3.18550168      -3.46049500      14.78363860
Si       3.02439504      -2.39733480      11.64170935
Si       4.45439655       3.25987051       1.71515331
Si       2.07920887      -0.10309440       0.34411135
Si       3.53475171       0.40154649      10.19476777
Si       2.72286190      -0.81387627       9.03501348
Si       0.83381167      -0.84826212       6.05503907
Si       3.90494988       0.32275881       0.07638067
Si       3.63299822      -0.96238685       0.94058546
22
Lattice="6.866597869202161 -1.046568564688211 -0.8122503235448782 -2.419374216715149 6.9721202197357 -3.290976582796347 -2.112976738296713 -5.042193540031457 15.443429276262425" Properties=species:S:1:pos:R:3 unique_starting_index=51 config_type=initial n_minim_iter=3 stress="0.010746603072536857 0.012209373459589027 -0.001911089293546066 0.012209373459589027 -0.0045540133606038246 -0.022203363801057106 -0.001911089293546066 -0.022203363801057106 -0.006471078077518756" pbc="T T T"
Si       3.67782961       4.88398951       1.18054972
Si      -1.57100883      -0.34118088       8.22251217
Si       0.54503806       5.95475367      -4.08600756
Si      -1.95723556       2.59567196       1.93305500
Si      -0.71347070       0.39347051       6.67994525
Si       4.62397633      -1.69573383       5.67845528
Si      -1.09895250       1.13539969       1.12420697
Si       0.17787759       0.04973182       0.30559213
Si      -0.60768695      -1.46479032       7.06161749
Si       3.94963993      -1.44177235      10.39899999
Si      -2.34419824       0.45264195       9.70866787
Si       4.89925491      -0.12436483       1.94267530
Si      -0.44668966       1.88040682       2.85601167
Si       3.13813369      -3.52870589      14.75539325
Si       2.99039400      -2.44907616      11.61666484
Si       4.46522688       3.26284825       1.68208640
Si       2.07764726      -0.09756926       0.33785539
Si       3.51441282       0.35553305      10.15970009
Si       2.69977265      -0.85523094       9.00930446
Si       0.81859078      -0.88002981       6.04125687
Si       3.91095702       0.33824958       0.06771831
Si       3.62938401      -0.95467942       0.93387169
22
Lattice="6.838697764839265 -1.0577907657083214 -0.82853197513209 -2.4098168481054 6.970712160379728 -3.2614945956789994 -2.127706372187292 -4.992510312042567 15.424837411105038" Properties=species:S:1:pos:R:3 unique_starting_index=51 config_type=initial n_minim_iter=4 stress="-0.024354255367139567 -0.005199791642598325 -0.02281587596200135 -0.005199791642598325 0.009083184170524224 0.001538269961825863 -0.02281587596200135 0.001538269961825863 -0.006742802877047521" pbc="T T T"
Si       3.64615805       4.89451310       1.18642399
Si      -1.57436441      -0.31584929       8.21079629
Si       0.54226024       5.94651839      -4.06761827
Si      -1.95624580       2.60668398       1.94194059
Si      -0.72234917       0.41060961       6.67933901
Si       4.59921189      -1.68000226       5.66395289
Si      -1.09938196       1.13869520       1.13518027
Si       0.18279598       0.05341951       0.30306698
Si      -0.62377924      -1.43749213       7.06237954
Si       3.91164864      -1.40912731      10.38608116
Si      -2.34955198       0.49749121       9.71080265
Si       4.87364028      -0.12292373       1.93115804
Si      -0.45851932       1.89241992       2.85913250
Si       3.09409121      -3.48575204      14.73246359
Si       2.96029363      -2.41233202      11.59720281
Si       4.43922896       3.26722179       1.68513748
Si       2.06704571      -0.09939001       0.33080454
Si       3.47858596       0.38242404      10.15851305
Si       2.67063640      -0.83246237       8.99950746
Si       0.80758325      -0.86631169       6.03481418
Si       3.89944935       0.33710454       0.06772056
Si       3.61423095      -0.96050983       0.92011993
22
Lattice="6.856078801482858 -1.0499802327681236 -0.789692762607816 -2.431748708397943 6.942421792775678 -3.266844016054265 -2.045105314708379 -4.9520168977242776 15.418085408767725" Properties=species:S:1:pos:R:3 unique_starting_index=51 config_type=initial n_minim_iter=5 stress="0.0002727149194727174 0.013759140801250347 0.024670390359769142 0.013759140801250347 -0.0024585879839166638 0.005962030197818248 0.024670390359769142 0.005962030197818248 -0.004633717536149192" pbc="T T T"
Si       3.66224921       4.89088164       1.21527503
Si      -1.52778308      -0.30207245       8.20493957
Si       0.52499000       5.92409849      -4.05865735
Si      -1.94980201       2.60209658       1.93433619
Si      -0.68161298       0.41400344       6.68056710
Si       4.65209425      -1.65736483       5.69512704
Si      -1.09485947       1.13217231       1.13661853
Si       0.18868029       0.05875357       0.30409073
Si      -0.58856139      -1.41975178       7.06717496
Si       3.98559282      -1.37909021      10.41997112
Si      -2.29319859       0.51846040       9.70213415
Si       4.90170817      -0.11424146       1.96132956
Si      -0.44738267       1.89157525       2.85930532
Si       3.18552464      -3.44652137      14.75949825
Si       3.04229040      -2.37852654      11.62085946
Si       4.46740110       3.26668231       1.72171516
Si       2.07763301      -0.09686574       0.34140869
Si       3.55198807       0.39760914      10.19642716
Si       2.73334616      -0.81573310       9.02457681
Si       0.84960778      -0.85811918       6.04453589
Si       3.91720065       0.34006387       0.09776510
Si       3.63365737      -0.95765936       0.93801083
22
Lattice="6.885342926906217 -1.0821230774457173 -0.8052081584949939 -2.4722319070508467 6.917602984995743 -3.2724183485012324 -2.05697091328241 -4.923198864071235 15.452932190302047" Properties=species:S:1:pos:R:3 unique_starting_index=51 config_type=initial n_minim_iter=6 stress="0.016015916914490422 -0.028290471183486248 -0.0006182078463181288 -0.028290471183486248 -0.03080321865791775 -0.008492859461682342 -0.0006182078463181288 -0.008492859461682342 -0.0022966463504613343" pbc="T T T"
Si       3.62593103       4.85063845       1.19964929
Si      -1.55041306      -0.29433947       8.22496878
Si       0.50500519       5.89667048      -4.07081139
Si      -1.97777384       2.60019538       1.93533212
Si      -0.69430390       0.39579978       6.68690343
Si       4.67161628      -1.67064920       5.69696176
Si      -1.10560147       1.12071570       1.15060544
Si       0.19308463       0.06975046       0.30641936
Si      -0.60408807      -1.41648787       7.08553715
Si       3.98125031      -1.39190206      10.43358236
Si      -2.31310065       0.53506872       9.71063260
Si       4.90962598      -0.14403018       1.95124002
Si      -0.48154363       1.88045514       2.85605608
Si       3.16851418      -3.45680415      14.78014198
Si       3.04618679      -2.38481910      11.63433519
Si       4.45632605       3.22800063       1.71858460
Si       2.09145309      -0.10943021       0.33256946
Si       3.53752451       0.35279065      10.21608284
Si       2.72706883      -0.84336638       9.03957605
Si       0.84977832      -0.87756226       6.05437569
Si       3.93038225       0.31109453       0.10044491
Si       3.65442156      -0.98388559       0.92417490
22
Lattice="6.83896019745023 -1.0465619953176348 -0.8215904642927281 -2.405402767245832 6.940361226055102 -3.250729574739109 -2.104370861919533 -4.921889570321038 15.464130184774557" Properties=species:S:1:pos:R:3 unique_starting_index=51 config_type=initial n_minim_iter=7 stress="-0.0183125247793191 0.004691760605574263 0.0002810431821483922 0.004691760605574263 0.004799553553659036 -0.0009309161453267941 0.0002810431821483922 -0.0009309161453267941 0.016671364713943912" pbc="T T T"
Si       3.62034389       4.92323346       1.20709450
Si      -1.56020683      -0.27437971       8.24538525
Si       0.55177494       5.93748553      -4.06023355
Si      -1.95303507       2.61881014       1.94676381
Si      -0.69010686       0.40295077       6.69186645
Si       4.63006242      -1.62465071       5.69255311
Si      -1.09150122       1.11518147       1.16729466
Si       0.19793647       0.08652890       0.30998958
Si      -0.62711845      -1.41328860       7.09395857
Si       3.93112737      -1.32964029      10.43775498
Si      -2.30259683       0.57038207       9.72199142
Si       4.87058621      -0.10814923       1.94297667
Si      -0.48666875       1.90034698       2.85916690
Si       3.08697540      -3.41351733      14.78563362
Si       2.99822192      -2.33803539      11.63889678
Si       4.44452725       3.29542683       1.73007183
Si       2.08657038      -0.09689198       0.32478536
Si       3.50166022       0.39768605      10.23549094
Si       2.69220077      -0.81218759       9.05138214
Si       0.83306995      -0.87376003       6.05988279
Si       3.91110128       0.33328052       0.10664242
Si       3.63016639      -0.97480806       0.90738100
22
Lattice="6.87754231644842 -1.0366973439217142 -0.8256780971464988 -2.398796023152171 6.94148276489691 -3.1780153734653402 -2.1441746737208067 -4.864586350958361 15.277888880204273" Properties=species:S:1:pos:R:3 unique_starting_index=51 config_type=initial n_minim_iter=8 stress="0.017117019673753717 0.0008233742855438906 -0.007770653510117354 0.0008233742855438906 0.014872127912947978 0.012395719954212505 -0.007770653510117354 0.012395719954212505 -0.033023251678848196" pbc="T T T"
Si       3.64240644       4.96273634       1.21521250
Si      -1.57858950      -0.23206192       8.16206234
Si       0.57845624       5.94780527      -3.99254576
Si      -1.96285132       2.64683689       1.94130545
Si      -0.68835499       0.42557159       6.61668282
Si       4.65035287      -1.57960712       5.61887726
Si      -1.09746414       1.11834733       1.17226031
Si       0.21033285       0.09953382       0.30707225
Si      -0.64469466      -1.39017761       7.01229748
Si       3.94747713      -1.25689565      10.31017764
Si      -2.32119305       0.63371061       9.62974422
Si       4.88659609      -0.08891005       1.91300078
Si      -0.50210163       1.92078278       2.83171456
Si       3.06717568      -3.34434065      14.60885656
Si       3.00484933      -2.27272039      11.50123355
Si       4.47225785       3.32949231       1.72514050
Si       2.10639896      -0.09241158       0.31448823
Si       3.50979385       0.44800455      10.13011669
Si       2.70330337      -0.77119592       8.95496205
Si       0.83116925      -0.85957649       5.99092635
Si       3.93499173       0.33594707       0.11406356
Si       3.65745224      -0.97721225       0.88316016
22
Lattice="6.856916282757577 -1.0251531802997522 -0.8214575866417652 -2.38686813672251 6.923371956798362 -3.198473555651184 -2.1244944000310166 -4.851579379559688 15.367801015584668" Properties=species:S:1:pos:R:3 unique_starting_index=51 config_type=initial n_minim_iter=9 stress="0.0007816907668423019 0.0011378684182592048 -0.0064628706300212165 0.0011378684182592048 -0.008524872417798103 0.009681900539718796 -0.0064628706300212165 0.009681900539718796 0.016508237329436442" pbc="T T T"
Si       3.63391408       4.96451578       1.22998408
Si      -1.56173837      -0.22675052       8.21329339
Si       0.58415500       5.94677753      -4.02151753
Si      -1.95673009       2.65492062       1.95237963
Si      -0.66403259       0.41553793       6.64890211
Si       4.64368202      -1.55701056       5.65833599
Si      -1.09198804       1.11315984       1.18667742
Si       0.22273974       0.11109041       0.31062424
Si      -0.63949633      -1.39148341       7.05646078
Si       3.96028759      -1.23197651      10.37327645
Si      -2.30145497       0.65202157       9.69269207
Si       4.86188796      -0.08356667       1.92801726
Si      -0.50835843       1.91788344       2.84212862
Si       3.05838239      -3.33169485      14.70148332
Si       3.01622416      -2.25286096      11.57660217
Si       4.46191388       3.32876990       1.74102293
Si       2.10880193      -0.09179948       0.31542562
Si       3.50966208       0.44558958      10.19978657
Si       2.71541596      -0.77127119       9.02009150
Si       0.83459609      -0.87150940       6.02895984
Si       3.92580240       0.33128757       0.13273622
Si       3.65974918      -0.98461640       0.89227997
22
Lattice="6.833628378638581 -1.0625797563449546 -0.7657806350437661 -2.4233132284341594 7.074303791863803 -3.236884351537816 -1.997245979106971 -5.01255647279086 15.314161413442841" Properties=species:S:1:pos:R:3 unique_starting_index=51 config_type=initial n_minim_iter=10 stress="-0.013578155923295615 -0.022684657394740522 0.02129021090619251 -0.022684657394740522 0.05699658432206635 -0.020769300635621483 0.02129021090619251 -0.020769300635621483 -0.0023801487777746558" pbc="T T T"
Si       3.61170754       5.04158967       1.22879896
Si      -1.49485875      -0.25905724       8.17535519
Si       0.54849431       6.10091958      -4.03814310
Si      -1.95977353       2.70405362       1.91128224
Si      -0.59245488       0.37234471       6.60355901
Si       4.66695246      -1.60718219       5.67461897
Si      -1.08221594       1.13419638       1.17684632
Si       0.24306588       0.13264939       0.31610678
Si      -0.59521130      -1.45949369       7.03908622
Si       4.05150895      -1.31225072      10.36090893
Si      -2.23095452       0.65092286       9.62992399
Si       4.82700318      -0.11052398       1.94613110
Si      -0.51670262       1.94005622       2.80645630
Si       3.12942934      -3.49189962      14.67634547
Si       3.11003650      -2.34868104      11.55905360
Si       4.43188541       3.36902052       1.73944983
Si       2.11530419      -0.11338434       0.31979304
Si       3.55143094       0.38373726      10.18243636
Si       2.78943303      -0.85766493       9.01399921
Si       0.86736170      -0.95362510       6.01350450
Si       3.92278939       0.31142146       0.18475675
Si       3.67922856      -1.05362024       0.91605462
22
Lattice="6.846579142146647 -1.0251484818507692 -0.7795101630167259 -2.3823969830547247 7.0483427760003075 -3.192289531676271 -2.057421460917701 -4.958184903387592 15.250643463604325" Properties=species:S:1:pos:R:3 unique_starting_index=51 config_type=initial n_minim_iter=11 stress="0.005427232559565851 -0.008920970164193475 0.006627429074572587 -0.008920970164193475 0.04842650934872838 -0.007590812051942511 0.006627429074572587 -0.007590812051942511 0.005688438067994529" pbc="T T T"
Si       3.64941731       5.07184692       1.24726134
Si      -1.50788438      -0.22175061       8.15741135
Si       0.60530948       6.11721929      -4.00471284
Si      -1.96787118       2.70238703       1.91705720
Si      -0.57670623       0.37931752       6.57721652
Si       4.65289606      -1.52977396       5.64523497
Si      -1.07623912       1.14019381       1.18472782
Si       0.25840468       0.15994164       0.32586312
Si      -0.63019440      -1.43801363       7.02313272
Si       4.06893092      -1.23450314      10.31778952
Si      -2.24837973       0.70910327       9.60055259
Si       4.80029967      -0.06640085       1.92510492
Si      -0.53443848       1.95064665       2.79811469
Si       3.06162281      -3.42430917      14.61015962
Si       3.10361282      -2.26181622      11.50711551
Si       4.44035256       3.40633394       1.73027938
Si       2.13018972      -0.11438904       0.30577656
Si       3.53204082       0.44801319      10.15063541
Si       2.79573021      -0.81751152       8.98745438
Si       0.84401452      -0.95411766       5.98901716
Si       3.94601821       0.32530645       0.20813530
Si       3.69825413      -1.06359335       0.89544103
22
Lattice="6.854274058738475 -1.0105852012858334 -0.7761284244305533 -2.3675143206839375 7.066045853717909 -3.1781892334692667 -2.068263040392074 -4.965968786528093 15.211168978965565" Properties=species:S:1:pos:R:3 unique_starting_index=51 config_type=initial n_minim_iter=12 stress="0.01639583255714155 -0.004478253670695008 0.001335814058249362 -0.004478253670695008 0.057879709811964934 -0.0058879238895658895 0.001335814058249362 -0.0058879238895658895 0.010273591237234368" pbc="T T T"
Si       3.66941516       5.10469926       1.25528968
Si      -1.50212768      -0.20562896       8.13896252
Si       0.61962914       6.15938948      -3.99776908
Si      -1.97951398       2.71155534       1.91926308
Si      -0.55556653       0.37068711       6.56075734
Si       4.65585662      -1.49064981       5.63958014
Si      -1.06567497       1.15582961       1.18739939
Si       0.27351599       0.17533883       0.33381937
Si      -0.64538757      -1.44584571       7.01043462
Si       4.11582285      -1.20805048      10.30149563
Si      -2.23967244       0.73871005       9.57054882
Si       4.78305148      -0.03567527       1.92255787
Si      -0.54606079       1.95932159       2.79189633
Si       3.03786784      -3.42492942      14.56686287
Si       3.12579660      -2.23080111      11.47741004
Si       4.43543798       3.42326636       1.72385490
Si       2.14343329      -0.12718897       0.29787726
Si       3.54275472       0.47682458      10.13683418
Si       2.81932331      -0.81569366       8.97348092
Si       0.83933078      -0.97177929       5.97514247
Si       3.94333925       0.32527374       0.22880560
Si       3.70658537      -1.09074973       0.88048480
22
Lattice="6.869737955215084 -0.9903770261031343 -0.7641745453877876 -2.3616277862602377 7.049622490894705 -3.184993099893088 -2.0591517248123816 -4.964326309587946 15.218889413208217" Properties=species:S:1:pos:R:3 unique_starting_index=51 config_type=initial n_minim_iter=13 stress="0.02916893780378437 -0.0016480031407217308 0.0011441467113176397 -0.0016480031407217308 0.04507005591687333 -0.003943193344226653 0.0011441467113176397 -0.003943193344226653 0.01349278975180945" pbc="T T T"
Si       3.69322702       5.10618591       1.26449314
Si      -1.48567348      -0.20057432       8.13950370
Si       0.62518183       6.16715098      -4.01034342
Si      -1.99080634       2.69174179       1.91628767
Si      -0.53136897       0.35678834       6.56586788
Si       4.67709166      -1.45184240       5.65839913
Si      -1.06129663       1.16748350       1.18947612
Si       0.28372932       0.18337072       0.34602404
Si      -0.64934038      -1.45792596       7.01004405
Si       4.18250706      -1.18346632      10.31998783
Si      -2.22297167       0.74859164       9.57139501
Si       4.77746202      -0.01363690       1.93205462
Si      -0.54937529       1.95420128       2.79749848
Si       3.04268111      -3.42396350      14.57499699
Si       3.16766081      -2.20223913      11.48848557
Si       4.43496216       3.43122803       1.73504656
Si       2.14664593      -0.14281784       0.30072201
Si       3.58044203       0.48650827      10.14696967
Si       2.86258406      -0.81471162       8.99250866
Si       0.84539253      -0.98811029       5.98133055
Si       3.95513925       0.33296720       0.24500128
Si       3.72097981      -1.10136138       0.87743498
22
Lattice="6.861629352370061 -0.9407761248452908 -0.7431384458976462 -2.3198989740773244 7.03383455727046 -3.1773939066620676 -2.039941894172083 -4.938269913384901 15.225822034255822" Properties=species:S:1:pos:R:3 unique_starting_index=51 config_type=initial n_minim_iter=14 stress="0.034139967230038946 0.006055437907912876 -0.0031328276345427186 0.006055437907912876 0.021284126153753434 0.0009742416486746614 -0.0031328276345427186 0.0009742416486746614 0.01786411661886403" pbc="T T T"
Si       3.72932260       5.14852601       1.29700699
Si      -1.43955810      -0.17012937       8.14337021
Si       0.67912144       6.21496973      -3.99627182
Si      -2.00136932       2.67663591       1.91980392
Si      -0.48111394       0.35597116       6.58739614
Si       4.69902180      -1.34375918       5.69533010
Si      -1.05342296       1.20264477       1.19502540
Si       0.29199719       0.18960615       0.36921861
Si      -0.67007101      -1.45491094       7.01385877
Si       4.29419941      -1.09993511      10.36026618
Si      -2.16847419       0.78726477       9.56762484
Si       4.73613294       0.03061042       1.94793466
Si      -0.54627014       1.96073273       2.83079951
Si       3.02754262      -3.38480283      14.58823070
Si       3.24107697      -2.09995049      11.50527160
Si       4.42043348       3.44842315       1.76058405
Si       2.13791717      -0.17970364       0.32161466
Si       3.63383823       0.56101747      10.17655250
Si       2.94869284      -0.77534968       9.04079604
Si       0.85069518      -1.00483719       5.99422816
Si       3.94833475       0.35535361       0.25224550
Si       3.72800353      -1.09338069       0.86117955
22
Lattice="6.861769842486143 -0.9231774280513001 -0.7395786560477838 -2.304321031471261 7.019551545131446 -3.1626000780548162 -2.041284169332778 -4.907194663264175 15.21120037390979" Properties=species:S:1:pos:R:3 unique_starting_index=51 config_type=initial n_minim_iter=15 stress="0.04226229219291571 0.003752622754849757 -0.005094275060170978 0.003752622754849757 0.003451732752747332 0.005787054893579778 -0.005094275060170978 0.005787054893579778 0.01596306056531159" pbc="T T T"
Si       3.74370835       5.15982022       1.31216449
Si      -1.42592837      -0.14847718       8.14440978
Si       0.69742612       6.21724883      -3.99964705
Si      -2.01464391       2.66863026       1.92180840
Si      -0.46195749       0.36310796       6.59030962
Si       4.70536071      -1.28778513       5.69972587
Si      -1.04820586       1.21359980       1.19548415
Si       0.28214224       0.18964790       0.37656756
Si      -0.68810075      -1.44368220       7.00700392
Si       4.34217974      -1.05363255      10.36441724
Si      -2.14315704       0.81441097       9.56328725
Si       4.71785228       0.04532219       1.94526377
Si      -0.55503117       1.96248038       2.84886014
Si       3.01162611      -3.35125491      14.57251517
Si       3.27262266      -2.03903984      11.49471556
Si       4.41152272       3.45164307       1.76721272
Si       2.14215033      -0.20133657       0.33403241
Si       3.64667697       0.60891718      10.18593060
Si       2.98819029      -0.75068974       9.05435944
Si       0.84320064      -1.01438352       5.99112559
Si       3.94381462       0.37074467       0.25740688
Si       3.73647540      -1.08326467       0.85086046
22
Lattice="6.859495188187609 -0.8824946735173793 -0.7376961449675635 -2.268618476859846 6.988646600529154 -3.1684071713125803 -2.0578586414266735 -4.892660883895819 15.257711556313113" Properties=species:S:1:pos:R:3 unique_starting_index=51 config_type=initial n_minim_iter=16 stress="0.04050923791898431 0.0075912369502384855 -0.012919118404046123 0.0075912369502384855 -0.019940356749714505 0.0033535976419441244 -0.012919118404046123 0.0033535976419441244 0.020225588428588372" pbc="T T T"
Si       3.77523328       5.16757169       1.32564509
Si      -1.41104828      -0.14749463       8.17401966
Si       0.74487753       6.22127481      -4.02232590
Si      -2.02047829       2.64114418       1.92615662
Si      -0.44001346       0.35839600       6.61437555
Si       4.70420374      -1.21910029       5.72485923
Si      -1.04463876       1.21499088       1.20223314
Si       0.27974587       0.18039028       0.37842342
Si      -0.71228766      -1.44211401       7.02412413
Si       4.38544188      -1.00759612      10.41004300
Si      -2.11426079       0.82699445       9.59829137
Si       4.70983166       0.07675294       1.95112460
Si      -0.56950882       1.95046462       2.87465744
Si       2.98782328      -3.31532392      14.61043454
Si       3.30139582      -1.97645578      11.52622236
Si       4.41208985       3.47198607       1.77856659
Si       2.13796491      -0.21551129       0.34839769
Si       3.66249651       0.65457690      10.23418857
Si       3.02876932      -0.72772036       9.10416215
Si       0.82554056      -1.03655130       6.00903567
Si       3.92664209       0.39055957       0.26181590
Si       3.74208541      -1.06074501       0.83865476
22
Lattice="6.833637812493211 -0.8489129041866019 -0.7066570900486158 -2.235538928054553 7.011344103599001 -3.16211156341216 -2.0052830555681096 -4.890515246691614 15.24706437877484" Properties=species:S:1:pos:R:3 unique_starting_index=51 config_type=initial n_minim_iter=17 stress="0.022768435214305213 0.0020289676142671268 -0.012007021942104708 0.0020289676142671268 -0.017770132194046412 0.010674609238098993 -0.012007021942104708 0.010674609238098993 0.026459946327723468" pbc="T T T"
Si       3.80136219       5.23091346       1.35943803
Si      -1.35217454      -0.12751503       8.18260791
Si       0.78938297       6.28496431      -4.02880613
Si      -2.03515704       2.64403720       1.91799367
Si      -0.37651243       0.35819325       6.62124239
Si       4.71206925      -1.11291676       5.75893411
Si      -1.03984422       1.22349261       1.20168184
Si       0.26642875       0.17145512       0.39598401
Si      -0.72425525      -1.44580771       7.01161405
Si       4.49872703      -0.93319190      10.45338975
Si      -2.02143939       0.88063082       9.60233836
Si       4.69340184       0.11791885       1.96702434
Si      -0.60580316       1.94803651       2.90375413
Si       3.00069923      -3.27919610      14.61147565
Si       3.39598120      -1.88300388      11.53163069
Si       4.39561593       3.50358290       1.80372671
Si       2.11283069      -0.25212723       0.37528805
Si       3.73355061       0.72551005      10.26272352
Si       3.13581740      -0.69489644       9.16015806
Si       0.81529179      -1.09154221       6.01014125
Si       3.89467488       0.42666877       0.29695092
Si       3.75199944      -1.05035919       0.81713505
22
Lattice="6.81677264103575 -0.7753324183217531 -0.6696456244604428 -2.1708524391551456 7.013761169742506 -3.153703818374926 -1.9666140521065534 -4.875706120168918 15.252857639447502" Properties=species:S:1:pos:R:3 unique_starting_index=51 config_type=initial n_minim_iter=18 stress="0.026153237703998924 -1.6873306127880282e-06 -0.015884038364848238 -1.6873306127880282e-06 -0.014658502864272003 0.01221235187664796 -0.015884038364848238 0.01221235187664796 0.03475959989789313" pbc="T T T"
Si       3.86213200       5.31854796       1.40606727
Si      -1.28778298      -0.10217003       8.20041618
Si       0.86663751       6.35701570      -4.03292068
Si      -2.04590328       2.63321704       1.90404420
Si      -0.30364781       0.35055627       6.63985154
Si       4.73906603      -0.94581111       5.81797349
Si      -1.05282559       1.23103368       1.19956245
Si       0.26210868       0.15046743       0.40314556
Si      -0.75633519      -1.44560274       7.00487323
Si       4.66705805      -0.78495282      10.51934426
Si      -1.90292505       0.93423128       9.60533631
Si       4.67130565       0.17112503       1.98851049
Si      -0.65163788       1.93849381       2.94295291
Si       3.00944425      -3.20755810      14.64354203
Si       3.50720569      -1.74668786      11.56277789
Si       4.39299011       3.56545716       1.84225637
Si       2.10805666      -0.28180245       0.40595980
Si       3.83750398       0.83646695      10.32330163
Si       3.27792069      -0.63204574       9.24416594
Si       0.80957262      -1.14843008       6.01971765