16
Lattice="5.063317960964981 -2.0423450008107216e-07 1.6087525651590782 -1.1536555198157715e-06 17.237763284850132 5.819335350607297e-06 0.7941843648293478 -8.61888372554321 6.327955483171023" Properties=species:S:1:pos:R:3 unique_starting_index=69 config_type=initial n_minim_iter=1 energy=-2637.0206990693955 free_energy=-2637.0206990693955 pbc="T T T"
Si       2.78551430       1.81172902       6.40878465
Si       3.07198647      10.43061233       1.52792918
Si       3.07198671       6.80715205       1.52792795
Si       2.78551454      -1.81173125       6.40878342
Si       2.26823298      12.06128297       1.53947374
Si       3.58926757       3.44239978       6.39724119
Si       3.58926803      -3.44240189       6.39723886
Si       2.26823344       5.17648130       1.53947142
Si       4.16134276       4.93067246       7.49639333
Si       1.69615874      -3.68820697       0.44031679
Si       1.69615825       3.68820862       0.44031928
Si       4.16134227      12.30708804       7.49639582
Si       0.89300462      11.91996045       0.25187863
Si       4.96449595       3.30107657       7.68483621
Si       4.96449639      -3.30107937       7.68483398
Si       0.89300506       5.31780451       0.25187640
16
Lattice="5.067140267267725 -2.040744398888479e-07 1.6090361960315158 -1.153886834989237e-06 17.241219561274175 5.8205021621622504e-06 0.7950275466109329 -8.620611863816547 6.328304275308698" Properties=species:S:1:pos:R:3 unique_starting_index=69 config_type=initial n_minim_iter=2 stress="0.001013962431980208 -5.748554907847769e-10 0.0018170665068420607 -5.748554907847769e-10 0.0004376309204989661 -1.1291030428963895e-10 0.0018170665068420607 -1.1291030428963895e-10 0.0011323131593622814" pbc="T T T"
Si       2.78786674       1.81205504       6.40922022
Si       3.07429952      10.43266649       1.52812603
Si       3.07429976       6.80855418       1.52812481
Si       2.78786699      -1.81205727       6.40921899
Si       2.26990285      12.06372992       1.53968271
Si       3.59226319       3.44311858       6.39766464
Si       3.59226365      -3.44312070       6.39766232
Si       2.26990331       5.17749063       1.53968039
Si       4.16476883       4.93168396       7.49688648
Si       1.69739816      -3.68892360       0.44045605
Si       1.69739767       3.68892525       0.44045854
Si       4.16476834      12.30953282       7.49688897
Si       0.89360664      11.92231485       0.25196688
Si       4.96855942       3.30170283       7.68538038
Si       4.96855987      -3.30170563       7.68537815
Si       0.89360708       5.31890639       0.25196465
16
Lattice="5.067845359092404 -2.0278057363317828e-07 1.605343346832139 -1.1539232467841225e-06 17.241763619640768 5.8206858319538565e-06 0.7914006623978149 -8.62088389230998 6.325541789789456" Properties=species:S:1:pos:R:3 unique_starting_index=69 config_type=initial n_minim_iter=3 stress="7.297603823531967e-05 2.573887864901609e-10 -0.0011846963320117031 2.573887864901609e-10 0.0022028959802361057 8.314460478141653e-10 -0.0011846963320117031 8.314460478141653e-10 -0.0004948310898511968" pbc="T T T"
Si       2.78498911       1.81198737       6.40523010
Si       3.07425536      10.43287085       1.52566082
Si       3.07425560       6.80889388       1.52565960
Si       2.78498935      -1.81198960       6.40522887
Si       2.26939366      12.06424906       1.53786137
Si       3.58985059       3.44336570       6.39303064
Si       3.58985105      -3.44336781       6.39302832
Si       2.26939412       5.17751555       1.53785905
Si       4.16170651       4.93187892       7.49135507
Si       1.69753870      -3.68900067       0.43953213
Si       1.69753820       3.68900233       0.43953462
Si       4.16170601      12.30988192       7.49135756
Si       0.89324234      11.92252155       0.25149392
Si       4.96600193       3.30163750       7.67939801
Si       4.96600237      -3.30164030       7.67939578
Si       0.89324278       5.31924375       0.25149169
16
Lattice="5.069166493804428 -2.0286049347794344e-07 1.6058419902490029 -1.1526826467970755e-06 17.22322674297365 5.814427925876124e-06 0.7922734699612773 -8.611615453872957 6.325408343690117" Properties=species:S:1:pos:R:3 unique_starting_index=69 config_type=initial n_minim_iter=4 stress="0.0012234287682396888 5.095105866121417e-10 -0.0007277310874710365 5.095105866121417e-10 -0.0027189174740292576 -9.261427778877724e-10 -0.0007277310874710365 -9.261427778877724e-10 -0.00011980357149775074" pbc="T T T"
Si       2.78651825       1.80990667       6.40533861
Si       3.07492016      10.42152171       1.52591750
Si       3.07492041       6.80170613       1.52591627
Si       2.78651849      -1.80990890       6.40533739
Si       2.26986355      12.05151330       1.53835513
Si       3.59157465       3.43989838       6.39290207
Si       3.59157511      -3.43990049       6.39289975
Si       2.26986401       5.17171443       1.53835281
Si       4.16377389       4.92658651       7.49103631
Si       1.69766526      -3.68502465       0.44021608
Si       1.69766476       3.68502630       0.44021857
Si       4.16377340      12.29663746       7.49103880
Si       0.89307402      11.90936353       0.25188557
Si       4.96836419       3.29774793       7.67937154
Si       4.96836463      -3.29775072       7.67936931
Si       0.89307446       5.31386488       0.25188335
16
Lattice="5.0656984073635005 -2.0609991658906685e-07 1.6147501264675972 -1.152647341127848e-06 17.222699211446848 5.814249835315779e-06 0.802317486583113 -8.611351688016521 6.327123938539849" Properties=species:S:1:pos:R:3 unique_starting_index=69 config_type=initial n_minim_iter=5 stress="-0.0010760833665185092 -7.482569310633204e-10 0.0017901749192627571 -7.482569310633204e-10 0.001073798622149927 -1.387828324086804e-10 0.0017901749192627571 -1.387828324086804e-10 0.0018397989227585524" pbc="T T T"
Si       2.79546663       1.80864926       6.41063032
Si       3.07254771      10.42000053       1.53124952
Si       3.07254796       6.80269978       1.53124830
Si       2.79546687      -1.80865149       6.41062909
Si       2.26903749      12.05255072       1.54411675
Si       3.59897663       3.44119956       6.39776419
Si       3.59897709      -3.44120168       6.39776187
Si       2.26903795       5.17014948       1.54411442
Si       4.17360162       4.92703649       7.49542014
Si       1.69441346      -3.68431091       0.44645599
Si       1.69441296       3.68431255       0.44645848
Si       4.17360113      12.29565995       7.49542262
Si       0.89117607      11.90681496       0.25556415
Si       4.97683808       3.29546312       7.68631669
Si       4.97683852      -3.29546592       7.68631446
Si       0.89117651       5.31588592       0.25556193
16
Lattice="5.061465856375199 -2.0810058318070986e-07 1.6198373243724289 -1.151514737173683e-06 17.2057759941614 5.808536688525116e-06 0.810764573246733 -8.602890075883163 6.3184587585159075" Properties=species:S:1:pos:R:3 unique_starting_index=69 config_type=initial n_minim_iter=6 stress="0.0005601174750510438 -3.4685150009827325e-10 0.0011263748501592217 -3.4685150009827325e-10 6.062539079093078e-05 1.0986030918117007e-09 0.0011263748501592217 1.0986030918117007e-09 -0.0029702921129815376" pbc="T T T"
Si       2.80402076       1.80455533       6.40500820
Si       3.06820812      10.40744499       1.53329365
Si       3.06820836       6.79833210       1.53329243
Si       2.80402100      -1.80455756       6.40500698
Si       2.26681242      12.04315833       1.54773412
Si       3.60541624       3.44026878       6.39056883
Si       3.60541670      -3.44027090       6.39056651
Si       2.26681288       5.16261865       1.54773179
Si       4.18306224       4.92313432       7.48360288
Si       1.68916737      -3.67975147       0.45469526
Si       1.68916687       3.67975311       0.45469775
Si       4.18306175      12.28263890       7.48360537
Si       0.89054704      11.89136695       0.26156690
Si       4.98168163       3.28847672       7.67673595
Si       4.98168207      -3.28847952       7.67673373
Si       0.89054748       5.31441071       0.26156468
16
Lattice="5.055026645309387 -2.1015380260666296e-07 1.6246427322246917 -1.1506686988430773e-06 17.193134605231627 5.804269053991669e-06 0.80663973776755 -8.596569391385051 6.34716414166413" Properties=species:S:1:pos:R:3 unique_starting_index=69 config_type=initial n_minim_iter=7 stress="0.0008332005554667315 1.1286143364707409e-10 -0.00021182088852899505 1.1286143364707409e-10 0.00021481864671131598 -6.996533104414089e-10 -0.00021182088852899505 -6.996533104414089e-10 0.002245323691812021" pbc="T T T"
Si       2.80091956       1.80103685       6.43277685
Si       3.06074527      10.39760583       1.53903578
Si       3.06074552       6.79552987       1.53903456
Si       2.80091980      -1.80103910       6.43277563
Si       2.26330612      12.03523963       1.55536324
Si       3.59835849       3.43867077       6.41645049
Si       3.59835895      -3.43867290       6.41644816
Si       2.26330658       5.15789595       1.55536092
Si       4.17797495       4.91988399       7.50991891
Si       1.68369062      -3.67668110       0.46189001
Si       1.68369012       3.67668274       0.46189249
Si       4.17797445      12.27324783       7.50992140
Si       0.88924861      11.88101411       0.26650156
Si       4.97241603       3.28444457       7.70531207
Si       4.97241647      -3.28444739       7.70530985
Si       0.88924905       5.31212215       0.26649934
16
Lattice="5.054352177251128 -2.12744380584058e-07 1.6321827110018445 -1.1493963349135231e-06 17.17412311371603 5.797850921736931e-06 0.8164264283608829 -8.587063644473648 6.34568715633988" Properties=species:S:1:pos:R:3 unique_starting_index=69 config_type=initial n_minim_iter=8 stress="0.0019379138536316856 -1.7336888570929183e-10 0.0008665671935320603 -1.7336888570929183e-10 0.0001566647175805897 1.8929196453721485e-10 0.0008665671935320603 1.8929196453721485e-10 -0.000232237316824883" pbc="T T T"
Si       2.81659827       1.79553320       6.43310043
Si       3.05417878      10.38259642       1.54477518
Si       3.05417902       6.79152777       1.54477396
Si       2.81659852      -1.79553545       6.43309922
Si       2.26666844      12.02215764       1.55747554
Si       3.60410840       3.43509453       6.42040118
Si       3.60410886      -3.43509666       6.42039886
Si       2.26666890       5.15196645       1.55747322
Si       4.19288306       4.91460204       7.50214934
Si       1.67789472      -3.67245731       0.47572258
Si       1.67789423       3.67245893       0.47572506
Si       4.19288257      12.25951829       7.50215182
Si       0.88706582      11.86683963       0.27386119
Si       4.98371104       3.27977584       7.70401542
Si       4.98371148      -3.27977866       7.70401320
Si       0.88706625       5.30728513       0.27385898
16
Lattice="5.0545495915130125 -2.1299138791303985e-07 1.6329535208360602 -1.1485861611097115e-06 17.162017603884454 5.793764195511175e-06 0.8140691382205019 -8.581010893276755 6.356235793139587" Properties=species:S:1:pos:R:3 unique_starting_index=69 config_type=initial n_minim_iter=9 stress="0.0014303596430076811 -3.656951536034322e-11 0.0003852914478690859 -3.656951536034322e-11 3.267505624859209e-05 -6.89494307033393e-11 0.0003852914478690859 -6.89494307033393e-11 0.00031331875896220687" pbc="T T T"
Si       2.81749725       1.79450256       6.44038412
Si       3.05111993      10.37551303       1.54881093
Si       3.05112017       6.78650565       1.54880971
Si       2.81749749      -1.79450482       6.44038291
Si       2.26844000      12.01313699       1.55669172
Si       3.60017696       3.43212663       6.43250444
Si       3.60017742      -3.43212878       6.43250212
Si       2.26844046       5.14888158       1.55668940
Si       4.19330613       4.91256338       7.50336252
Si       1.67531178      -3.66844322       0.48582884
Si       1.67531129       3.66844483       0.48583132
Si       4.19330564      12.24945144       7.50336499
Si       0.88612191      11.85439191       0.27668377
Si       4.98249507       3.27338087       7.71251227
Si       4.98249551      -3.27338369       7.71251006
Si       0.88612235       5.30762734       0.27668156
16
Lattice="5.054848685891835 -2.1162347403552648e-07 1.6289608442447232 -1.148997059540972e-06 17.168157191416356 5.7958368726687016e-06 0.8082326528859488 -8.584080688382674 6.359047925381743" Properties=species:S:1:pos:R:3 unique_starting_index=69 config_type=initial n_minim_iter=10 stress="-0.001396995595315686 4.309119309936295e-11 -0.0003886337495074561 4.309119309936295e-11 -8.101190161854511e-05 -1.6657944595507754e-10 -0.0003886337495074561 -1.6657944595507754e-10 0.00033539956944022214" pbc="T T T"
Si       2.81149789       1.79442237       6.43624255
Si       3.05158190      10.37850264       1.55177196
Si       3.05158214       6.78965563       1.55177075
Si       2.81149813      -1.79442463       6.43624134
Si       2.26948535      12.01967380       1.55396936
Si       3.59359422       3.43559364       6.43404625
Si       3.59359468      -3.43559579       6.43404393
Si       2.26948581       5.14848436       1.55396704
Si       4.19165355       4.91223399       7.49327187
Si       1.67142697      -3.67184241       0.49473895
Si       1.67142648       3.67184402       0.49474143
Si       4.19165306      12.25592042       7.49327435
Si       0.88622847      11.85735148       0.27508397
Si       4.97685112       3.27327064       7.71293154
Si       4.97685156      -3.27327347       7.71292933
Si       0.88622891       5.31080737       0.27508176
16
Lattice="5.057763079187468 -2.0494896903928376e-07 1.6097677019886723 -1.150324404991221e-06 17.18799020647035 5.802532344811795e-06 0.7923108074611632 -8.59399718889163 6.335102988998185" Properties=species:S:1:pos:R:3 unique_starting_index=69 config_type=initial n_minim_iter=11 stress="-0.00431445007789948 1.434044888586058e-10 -0.0012673386211475405 1.434044888586058e-10 -6.487030581907545e-05 5.1207822219950556e-11 -0.0012673386211475405 5.1207822219950556e-11 -0.00046777795369777684" pbc="T T T"
Si       2.79771108       1.79871830       6.39927722
Si       3.05236125      10.39271506       1.54559922
Si       3.05236150       6.79527623       1.54559801
Si       2.79771132      -1.79872052       6.39927600
Si       2.27254193      12.03261720       1.54564749
Si       3.57753019       3.43862055       6.39923006
Si       3.57753065      -3.43862267       6.39922773
Si       2.27254239       5.15537398       1.54564517
Si       4.18700895       4.91613000       7.44113744
Si       1.66306412      -3.67786293       0.50373530
Si       1.66306363       3.67786454       0.50373778
Si       4.18700845      12.27185747       7.44113993
Si       0.88794056      11.86983336       0.26761858
Si       4.96213158       3.27583602       7.67725886
Si       4.96213201      -3.27583882       7.67725665
Si       0.88794100       5.31815851       0.26761637
16
Lattice="5.062897197937371 -1.9858424713465433e-07 1.5919322347000389 -1.1515449332551407e-06 17.20622717271011 5.808689003360163e-06 0.7774592962354233 -8.603115665957374 6.314225484219189" Properties=species:S:1:pos:R:3 unique_starting_index=69 config_type=initial n_minim_iter=12 stress="-0.0015411816585354035 -3.4349838937988254e-11 -0.0002238910110824819 -3.4349838937988254e-11 0.00010098245922493314 7.946194848669436e-11 -0.0002238910110824819 7.946194848669436e-11 -0.00017875835260126687" pbc="T T T"
Si       2.78705626       1.80181072       6.37018963
Si       3.05329868      10.40492596       1.53597385
Si       3.05329892       6.80130231       1.53597263
Si       2.78705651      -1.80181293       6.37018841
Si       2.27699658      12.04622787       1.53952507
Si       3.56335814       3.44311274       6.36663952
Si       3.56335861      -3.44311484       6.36663719
Si       2.27699704       5.16000029       1.53952275
Si       4.17516398       4.91926479       7.39958743
Si       1.66519170      -3.68384664       0.50657235
Si       1.66519120       3.68384824       0.50657484
Si       4.17516349      12.28695967       7.39958992
Si       0.89033787      11.88190400       0.26142483
Si       4.95001688       3.27878819       7.64473965
Si       4.95001732      -3.27879097       7.64473743
Si       0.89033831       5.32432484       0.26142262
16
Lattice="5.0632899630943955 -1.9898963719908976e-07 1.5932109260448237 -1.1512783700680786e-06 17.202244222020294 5.807344390085727e-06 0.7779804014024283 -8.60112419178734 6.317808951762399" Properties=species:S:1:pos:R:3 unique_starting_index=69 config_type=initial n_minim_iter=13 stress="0.0002331945073541834 -3.1092957389679875e-11 0.00012568421742339915 -3.1092957389679875e-11 6.324678640920105e-05 2.650936215497717e-12 0.00012568421742339915 2.650936215497717e-12 8.03338523020711e-05" pbc="T T T"
Si       2.78686792       1.80100548       6.37428998
Si       3.05440089      10.40212924       1.53673566
Si       3.05440114       6.80011607       1.53673445
Si       2.78686816      -1.80100769       6.37428876
Si       2.27746330      12.04321548       1.53964426
Si       3.56380530       3.44209183       6.37138248
Si       3.56380576      -3.44209393       6.37138016
Si       2.27746376       5.15902973       1.53964194
Si       4.17639822       4.91836290       7.40610299
Si       1.66487133      -3.68275705       0.50491895
Si       1.66487084       3.68275866       0.50492143
Si       4.17639773      12.28387861       7.40610547
Si       0.89005048      11.87891501       0.26304378
Si       4.95121814       3.27779068       7.64798286
Si       4.95121857      -3.27779346       7.64798065
Si       0.89005092       5.32333087       0.26304156
16
Lattice="5.066110190516398 -1.9637328538325026e-07 1.5860199876594723 -1.1511455931506704e-06 17.200260287985753 5.806674629412319e-06 0.7708720344019822 -8.600132223719738 6.313288519186682" Properties=species:S:1:pos:R:3 unique_starting_index=69 config_type=initial n_minim_iter=14 stress="0.0012985260798806452 1.3572532860375389e-11 0.00021940258158583084 1.3572532860375389e-11 -1.1533442012062408e-05 -8.456845504686337e-11 0.00021940258158583084 -8.456845504686337e-11 0.00028249115182552026" pbc="T T T"
Si       2.77901109       1.80015210       6.36696869
Si       3.05796959      10.40028390       1.53234558
Si       3.05796983       6.79997748       1.53234436
Si       2.77901133      -1.80015431       6.36696747
Si       2.28103619      12.04119033       1.53630015
Si       3.55594427       3.44105864       6.36301523
Si       3.55594474      -3.44106074       6.36301290
Si       2.28103665       5.15907095       1.53629782
Si       4.17126737       4.91732683       7.39902408
Si       1.66571404      -3.68280115       0.50028648
Si       1.66571355       3.68280276       0.50028897
Si       4.17126688      12.28293074       7.39902657
Si       0.88971563      11.87670596       0.26460558
Si       4.94726485       3.27657360       7.63470968
Si       4.94726529      -3.27657638       7.63470747
Si       0.88971607       5.32355598       0.26460337
16
Lattice="5.070191992732774 -1.909159012550085e-07 1.5706635773751052 -1.151634721907864e-06 17.20756878553853 5.809141921626345e-06 0.7578527054317976 -8.60378646748921 6.295876256210607" Properties=species:S:1:pos:R:3 unique_starting_index=69 config_type=initial n_minim_iter=15 stress="0.0002522627294877638 -1.8101737954384834e-11 9.180699600551508e-05 -1.8101737954384834e-11 5.908016771331948e-05 2.0129907297678673e-11 9.180699600551508e-05 2.0129907297678673e-11 1.767789554131148e-05" pbc="T T T"
Si       2.76612169       1.80048702       6.34290039
Si       3.06192147      10.40427306       1.52364521
Si       3.06192171       6.80329683       1.52364399
Si       2.76612193      -1.80048921       6.34289917
Si       2.28650571      12.04573162       1.53031635
Si       3.54153723       3.44194569       6.33623036
Si       3.54153769      -3.44194777       6.33622803
Si       2.28650617       5.16183816       1.53031403
Si       4.16203242       4.91753045       7.36736792
Si       1.66601147      -3.68625179       0.49917397
Si       1.66601097       3.68625340       0.49917646
Si       4.16203193      12.29003564       7.36737041
Si       0.88974654      11.88017140       0.26407499
Si       4.93829642       3.27638480       7.60247161
Si       4.93829686      -3.27638755       7.60246940
Si       0.88974698       5.32739904       0.26407277
16
Lattice="5.07018079229222 -1.9099326264305203e-07 1.5708905131348998 -1.1521101067051043e-06 17.214671919059732 5.811539884398536e-06 0.7581904476134661 -8.607338034167826 6.295700373387664" Properties=species:S:1:pos:R:3 unique_starting_index=69 config_type=initial n_minim_iter=16 stress="-0.0011221393892696728 3.647144717959829e-11 -0.0002770236708752691 3.647144717959829e-11 -0.0002702083969505047 -5.6851458720135355e-11 -0.0002770236708752691 -5.6851458720135355e-11 -0.00015670195823065802" pbc="T T T"
Si       2.76507876       1.80129597       6.34432090
Si       3.06329094      10.40863358       1.52227576
Si       3.06329118       6.80603944       1.52227454
Si       2.76507900      -1.80129817       6.34431968
Si       2.28641501      12.04943119       1.53029906
Si       3.54195447       3.44209369       6.33629871
Si       3.54195493      -3.44209577       6.33629638
Si       2.28641547       5.16524173       1.53029673
Si       4.16130623       4.91847425       7.36791815
Si       1.66706421      -3.68885956       0.49867480
Si       1.66706371       3.68886116       0.49867729
Si       4.16130573      12.29619497       7.36792064
Si       0.88974404      11.88534507       0.26399530
Si       4.93862546       3.27800690       7.60260235
Si       4.93862590      -3.27800965       7.60260014
Si       0.88974448       5.32932852       0.26399309
16
Lattice="5.072070477309906 -1.9023225463495138e-07 1.5690109118316413 -1.1532364641819617e-06 17.231501799257078 5.8172215214988994e-06 0.7568794855464842 -8.61575297356616 6.293365977374262" Properties=species:S:1:pos:R:3 unique_starting_index=69 config_type=initial n_minim_iter=17 stress="-0.00021558199523568668 8.10734620107103e-11 -0.00026796539894183264 8.10734620107103e-11 -7.576787422697629e-05 -3.5072281684092545e-11 -0.00026796539894183264 -3.5072281684092545e-11 -2.4978492391890597e-05" pbc="T T T"
Si       2.76185811       1.80201196       6.34443227
Si       3.06709031      10.41776451       1.51795039
Si       3.06709055       6.81373840       1.51794917
Si       2.76185835      -1.80201415       6.34443106
Si       2.28864761      12.05817113       1.52938521
Si       3.54030059       3.44241869       6.33299857
Si       3.54030105      -3.44242077       6.33299624
Si       2.28864807       5.17333166       1.52938288
Si       4.16256586       4.91942861       7.35982167
Si       1.66638329      -3.69632015       0.50255728
Si       1.66638280       3.69632175       0.50255978
Si       4.16256536      12.31207051       7.35982416
Si       0.88938588      11.89534552       0.26530004
Si       4.93956234       3.27959241       7.59708362
Si       4.93956278      -3.27959516       7.59708140
Si       0.88938632       5.33615794       0.26529783
16
Lattice="5.072604518287463 -1.902954572826017e-07 1.569303998957111 -1.1534473821763635e-06 17.234653308753416 5.8182854467687415e-06 0.7579954444806267 -8.61732872753211 6.291270138966426" Properties=species:S:1:pos:R:3 unique_starting_index=69 config_type=initial n_minim_iter=18 stress="0.00025202350519761577 -8.094911540287575e-11 0.00027195992274707493 -8.094911540287575e-11 8.921438596675829e-05 3.806669859263058e-11 0.00027195992274707493 3.806669859263058e-11 3.0393628052610182e-05" pbc="T T T"
Si       2.76212230       1.80168685       6.34326411
Si       3.06847612      10.41901516       1.51731580
Si       3.06847636       6.81563926       1.51731458
Si       2.76212254      -1.80168904       6.34326290
Si       2.28919940      12.05918782       1.52938559
Si       3.54139880       3.44185963       6.33119543
Si       3.54139926      -3.44186171       6.33119311
Si       2.28919986       5.17546649       1.52938327
Si       4.16369483       4.91936026       7.35868602
Si       1.66690433      -3.69796424       0.50189018
Si       1.66690383       3.69796585       0.50189268
Si       4.16369433      12.31529036       7.35868852
Si       0.88931819      11.89708551       0.26569930
Si       4.94128003       3.27975666       7.59488162
Si       4.94128047      -3.27975940       7.59487940
Si       0.88931863       5.33756946       0.26569708
16
Lattice="5.073000191197217 -1.8989888936775277e-07 1.5682077444118123 -1.1549572497279615e-06 17.25721354614464 5.825901608103298e-06 0.7586021442744577 -8.628608844152705 6.285243896885468" Properties=species:S:1:pos:R:3 unique_starting_index=69 config_type=initial n_minim_iter=19 stress="0.0002541736690479951 1.1957013767405785e-10 -0.0002970324816242467 1.1957013767405785e-10 -3.459667046779361e-05 -5.407148734707059e-11 -0.0002970324816242467 -5.407148734707059e-11 6.670986358426008e-05" pbc="T T T"
Si       2.76255800       1.79657411       6.33833096
Si       3.06904279      10.42518253       1.51512646
Si       3.06904303       6.83203213       1.51512525
Si       2.76255824      -1.79657629       6.33832975
Si       2.28863050      12.06535522       1.52868430
Si       3.54297007       3.43674691       6.32477423
Si       3.54297053      -3.43674898       6.32477191
Si       2.28863096       5.19185933       1.52868198
Si       4.16409589       4.91504004       7.35244587
Si       1.66750564      -3.71356458       0.50100784
Si       1.66750514       3.71356619       0.50101034
Si       4.16409539      12.34217082       7.35244837
Si       0.88985417      11.90439973       0.26367501
Si       4.94174642       3.27579076       7.58978342
Si       4.94174686      -3.27579350       7.58978120
Si       0.88985461       5.35281548       0.26367279
16
Lattice="5.0753475451231305 -1.869972882382998e-07 1.5600781089548497 -1.1610620166530476e-06 17.34843014564241 5.856695624685799e-06 0.7563491917835682 -8.674217136042008 6.261515972645382" Properties=species:S:1:pos:R:3 unique_starting_index=69 config_type=initial n_minim_iter=20 stress="-0.0006549468945597232 -1.357420322568403e-10 0.0003268025290088845 -1.357420322568403e-10 -0.0002756610255200044 -1.0271846352919272e-10 0.0003268025290088845 -1.0271846352919272e-10 9.342018118501936e-05" pbc="T T T"
Si       2.75989556       1.79487688       6.31020144
Si       3.07179962      10.46909360       1.51139846
Si       3.07179986       6.87933767       1.51139724
Si       2.75989580      -1.79487904       6.31020023
Si       2.29198219      12.10932588       1.52466979
Si       3.53971278       3.43510928       6.29693121
Si       3.53971324      -3.43511132       6.29692889
Si       2.29198265       5.23910528       1.52466747
Si       4.16470830       4.91379045       7.31766071
Si       1.66698763      -3.76042249       0.50393544
Si       1.66698713       3.76042411       0.50393798
Si       4.16470780      12.43463705       7.31766325
Si       0.89031522      11.94817017       0.26257769
Si       4.94137977       3.27395291       7.55902320
Si       4.94138021      -3.27395562       7.55902099
Si       0.89031565       5.40026165       0.26257548
16
Lattice="5.08297651436882 -1.7914429733154267e-07 1.538328753832993 -1.198751104106034e-06 17.91157538266964 6.0468090889788704e-06 0.7670999727264365 -8.95578971480354 6.145895401558973" Properties=species:S:1:pos:R:3 unique_starting_index=69 config_type=initial n_minim_iter=21 stress="-0.0026466655916489532 5.879360664695816e-11 7.807847601992382e-05 5.879360664695816e-11 -0.003919447594818294 -2.0535640132014565e-09 7.807847601992382e-05 -2.0535640132014565e-09 0.0021790227203817426" pbc="T T T"
Si       2.76883383       1.78953896       6.18515629
Si       3.08124106      10.74532825       1.49907389
Si       3.08124130       7.16624832       1.49907268
Si       2.76883407      -1.78954097       6.18515508
Si       2.30137686      12.38389464       1.51365717
Si       3.54869782       3.42810546       6.17057412
Si       3.54869828      -3.42810736       6.17057180
Si       2.30137732       5.52768182       1.51365485
Si       4.18229082       4.90750693       7.17575856
Si       1.66778486      -4.04827867       0.50846768
Si       1.66778431       4.04828035       0.50847041
Si       4.18229028      13.00406596       7.17576129
Si       0.89113230      12.22402602       0.26071292
Si       4.95894240       3.26823619       7.42351826
Si       4.95894283      -3.26823874       7.42351605
Si       0.89113274       5.68755109       0.26071072
