10
Lattice="4.646878082341013 0.0699018075055848 4.597842703917304e-07 -0.07243607513714777 4.815349158156532 -4.231759333732758e-08 -0.036218964560690445 2.407674647375973 9.358400195934118" Properties=species:S:1:pos:R:3 unique_starting_index=99 config_type=initial n_minim_iter=1 energy=-1628.4647217044114 free_energy=-1628.4647217044114 pbc="T T T"
Si       3.23347685       3.75889164       6.52944869
Si       3.26969525       1.35121703       2.82895214
Si       0.93559720       2.02483954       4.03368569
Si       0.89937904       4.43251412       5.32471467
Si       3.23126702       3.90581081       4.08691478
Si       3.26748494       1.49813624       5.27148606
Si       0.94036410       1.70796559       1.57518131
Si       0.90414545       4.11564021       7.78321906
Si       0.90216560       4.24728748       2.88354490
Si       0.93838328       1.83961293       6.47485546
