1
Lattice="2.6498915484221652 -8.294428345687389e-18 9.60735633270092e-50 1.3249457742110822 2.2948733982072764 -2.2798802190261813e-51 1.223047498621508e-51 -9.45823678309602e-51 2.4675625808222184" Properties=species:S:1:pos:R:3 cutoff=-1.0 nneightol=1.2 n_minim_iter=4 stress="0.0017288727163803147 -2.7502759372836553e-16 -6.124507316248641e-18 -2.7502759372836553e-16 0.0017288727163803184 2.0197188460467263e-18 -6.124507316248641e-18 2.0197188460467263e-18 -0.006853811080530013" pbc="T T T"
Si       0.00000000       0.00000000       0.00000000
