65
Lattice="10.97699622870867 0.0 0.0 0.0 10.97699622870867 0.0 0.0 0.0 10.97699622870867" Properties=species:S:1:pos:R:3:forces:R:3 cutoff=-1.0 nneightol=1.2 Zs=14 interstitial_position="mean 1 3 4 5 7 18" interstitial_constraint="plane atoms 4 5 7" bulk_struct_test=bulk_Si_diamond supercell_a1_in_bulk_lattice_coords="2 2 -2" n_minim_iter=0 energy=-10602.180675766489 stress="0.0012085456382743619 -0.0017276964940764776 0.0017276959848960154 -0.0017276964940764776 0.0012085456742022152 -0.0017276964942375271 0.0017276959848960154 -0.0017276964942375271 0.0012085456388686356" pbc="T T T"
Si       0.00000000       0.00000000       0.00000000      -0.20495165      -0.10128699      -0.20495165
Si       2.74424906       2.74424906       0.00000000       0.11189632      -0.11189643      -1.72411176
Si       2.74424906       0.00000000       2.74424906       0.08002228      -0.25469554       0.08002228
Si       0.00000000       2.74424906       2.74424906      -1.72411176      -0.11189643       0.11189632
Si       1.37212453       1.37212453       1.37212453      -0.11189638      -1.72411178      -0.11189638
Si       4.11637358       4.11637358       1.37212453       1.72411185       0.11189644      -0.11189639
Si       4.11637358       1.37212453       4.11637358      -0.12175300       0.12175306      -0.12175300
Si       1.37212453       4.11637358       4.11637358      -0.11189639       0.11189644       1.72411185
Si       0.00000000       0.00000000       5.48849811       0.06274497      -0.02715638       0.02715639
Si       2.74424906       2.74424906       5.48849811       0.08002228      -0.08002242       0.25469555
Si       2.74424906       0.00000000       8.23274717      -0.06544824       0.04403528       0.02685747
Si       0.00000000       2.74424906       8.23274717       0.02420514      -0.03511562       0.00206613
Si       1.37212453       1.37212453       6.86062264      -0.03511556       0.02420513      -0.00206613
Si       4.11637358       4.11637358       6.86062264      -0.02420507       0.03511562      -0.00206614
Si       4.11637358       1.37212453       9.60487170       0.20495171      -0.20495166      -0.10128699
Si       1.37212453       4.11637358       9.60487170      -0.08002235       0.08002241      -0.25469554
Si       0.00000000       5.48849811       0.00000000       0.12175307      -0.12175306       0.12175307
Si       2.74424906       8.23274717       0.00000000       0.03511548      -0.00206613       0.02420514
Si       2.74424906       5.48849811       2.74424906       0.11189631       1.72411178       0.11189631
Si       0.00000000       8.23274717       2.74424906       0.02420514      -0.00206613       0.03511548
Si       1.37212453       6.86062264       1.37212453      -0.08002235       0.25469554      -0.08002235
Si       4.11637358       9.60487170       1.37212453      -0.02420507       0.00206613      -0.03511556
Si       4.11637358       6.86062264       4.11637358       0.20495172       0.10128699       0.20495172
Si       1.37212453       9.60487170       4.11637358      -0.03511556       0.00206613      -0.02420507
Si       0.00000000       5.48849811       5.48849811      -0.20495165       0.20495166       0.10128699
Si       2.74424906       8.23274717       5.48849811      -0.06544824      -0.02685747      -0.04403527
Si       2.74424906       5.48849811       8.23274717       0.03511548      -0.02420513       0.00206613
Si       0.00000000       8.23274717       8.23274717      -0.03355855      -0.00630505       0.00630505
Si       1.37212453       6.86062264       6.86062264       0.06544816      -0.04403528      -0.02685747
Si       4.11637358       9.60487170       6.86062264       0.03355862       0.00630505      -0.00630505
Si       4.11637358       6.86062264       9.60487170      -0.06274490       0.02715638      -0.02715638
Si       1.37212453       9.60487170       9.60487170       0.06544816       0.02685747       0.04403528
Si       5.48849811       0.00000000       0.00000000       0.02715639      -0.02715638       0.06274497
Si       8.23274717       2.74424906       0.00000000       0.00206613      -0.03511562       0.02420514
Si       8.23274717       0.00000000       2.74424906       0.02685747       0.04403528      -0.06544824
Si       5.48849811       2.74424906       2.74424906       0.25469555      -0.08002242       0.08002228
Si       6.86062264       1.37212453       1.37212453      -0.00206613       0.02420513      -0.03511556
Si       9.60487170       4.11637358       1.37212453      -0.25469554       0.08002241      -0.08002235
Si       9.60487170       1.37212453       4.11637358      -0.10128699      -0.20495166       0.20495171
Si       6.86062264       4.11637358       4.11637358      -0.00206614       0.03511562      -0.02420507
Si       5.48849811       0.00000000       5.48849811       0.00247298      -0.00247297       0.00247298
Si       8.23274717       2.74424906       5.48849811       0.02685747       0.06544810      -0.04403528
Si       8.23274717       0.00000000       8.23274717       0.00945829      -0.01403031       0.00945829
Si       5.48849811       2.74424906       8.23274717      -0.04403528       0.06544810       0.02685747
Si       6.86062264       1.37212453       6.86062264      -0.00630505      -0.03355856      -0.00630505
Si       9.60487170       4.11637358       6.86062264       0.04403528      -0.06544810      -0.02685747
Si       9.60487170       1.37212453       9.60487170      -0.02715638       0.06274496      -0.02715638
Si       6.86062264       4.11637358       9.60487170      -0.02685747      -0.06544810       0.04403528
Si       5.48849811       5.48849811       0.00000000       0.10128699       0.20495166      -0.20495165
Si       8.23274717       8.23274717       0.00000000       0.00630505      -0.00630505      -0.03355855
Si       8.23274717       5.48849811       2.74424906       0.00206613      -0.02420513       0.03511548
Si       5.48849811       8.23274717       2.74424906      -0.04403527      -0.02685747      -0.06544824
Si       6.86062264       6.86062264       1.37212453      -0.02685747      -0.04403528       0.06544816
Si       9.60487170       9.60487170       1.37212453       0.04403528       0.02685747       0.06544816
Si       9.60487170       6.86062264       4.11637358      -0.02715638       0.02715638      -0.06274490
Si       6.86062264       9.60487170       4.11637358      -0.00630505       0.00630505       0.03355862
Si       5.48849811       5.48849811       5.48849811       0.02715639      -0.06274496       0.02715639
Si       8.23274717       8.23274717       5.48849811       0.00945829      -0.00945829       0.01403032
Si       8.23274717       5.48849811       8.23274717       0.00630505       0.03355856       0.00630505
Si       5.48849811       8.23274717       8.23274717       0.01403032      -0.00945829       0.00945829
Si       6.86062264       6.86062264       6.86062264      -0.00945829       0.01403031      -0.00945829
Si       9.60487170       9.60487170       6.86062264      -0.01403031       0.00945829      -0.00945829
Si       9.60487170       6.86062264       9.60487170      -0.00247297       0.00247297      -0.00247297
Si       6.86062264       9.60487170       9.60487170      -0.00945829       0.00945829      -0.01403031
Si       2.05818679       3.43031132       2.05818679      -0.00000002      -0.00000004      -0.00000002
