16
Lattice="2.7352312604386793 -2.7352312604386793 0.0 2.7352312604386793 2.7352312604386793 0.0 0.0 0.0 31.550394659114517" Properties=species:S:1:pos:R:3:travel:I:3:map_shift:I:3:n_neighb:I:1:orig_index:I:1:forces:R:3 cutoff=2.0 nneightol=1.2 supercell_a1_in_bulk_lattice_coords="1 0 -1" bulk_struct_test=bulk_Si_diamond n_minim_iter=0 pbc="T T T"
Si       0.00000000      -0.00000000       0.00500295        0        0        0        0        0        0       29        1       0.00000000       0.00000000       0.00124945
Si       1.36761563       1.36761563       1.36261268        0        0        0       -1        0        0       29        2       0.00000000      -0.00000000      -0.00124945
Si      -0.00000000       2.73523126       2.72600141        0        0        0       -1        0        0       29        3       0.00000000       0.00000000       0.00016629
Si      -1.36761563       1.36761563       4.08860082        1        0        0        0        0        0       29        4      -0.00000000       0.00000000      -0.00063925
Si      -0.00000000       0.00000000       5.44875881        1       -1        0        0        0        0       29        5       0.00000000      -0.00000000       0.00018994
Si       1.36761563       1.36761563       6.92235454        1       -1        0        0        0        0       29        6      -0.00000000       0.00000000      -0.00119134
Si       0.00000000       2.73523126       8.32432937        1       -1        0        0        0        0       29        7       0.00000000      -0.00000000       0.00066994
Si      -1.36761563       1.36761563       9.78441703        2       -1        0        0        0        0       29        8      -0.00000000      -0.00000000       0.00069723
Si       0.00000000       0.00000000      11.11876573        2       -2        0        0        0        0       29        9      -0.00000000       0.00000000       0.00010791
Si       1.36761563       1.36761563      -9.75115010        2       -2        1        0        0        0       29       10       0.00000000       0.00000000      -0.00010791
Si      -0.00000000       2.73523126      -8.41680140        2       -2        1        0        0        0       35       11      -0.00000000      -0.00000000      -0.00069723
Si      -1.36761563       1.36761563      -6.95671374        3       -2        1        0        0        0       35       12      -0.00000000       0.00000000      -0.00066994
Si      -0.00000000       0.00000000      -5.55473891        3       -3        1        0        0        0       35       13       0.00000000      -0.00000000       0.00119134
Si       1.36761563       1.36761563      -4.08114318        3       -3        1        0        0        0       35       14      -0.00000000       0.00000000      -0.00018994
Si      -0.00000000       2.73523126      -2.72098519        3       -2        1        0        0        0       29       97       0.00000000      -0.00000000       0.00063925
Si      -1.36761563       1.36761563      -1.35838578        4       -2        1        0        0        0       29       98      -0.00000000       0.00000000      -0.00016629
