65
Lattice="10.940925041754717 0.0 0.0 0.0 10.940925041754717 0.0 0.0 0.0 10.940925041754717" Properties=species:S:1:pos:R:3:forces:R:3 cutoff=-1.0 nneightol=1.2 Zs=14 interstitial_position="mean 1 3 4 5 7 18" interstitial_constraint="plane atoms 4 5 7" bulk_struct_test=bulk_Si_diamond supercell_a1_in_bulk_lattice_coords="2 2 -2" n_minim_iter=0 energy=-10603.252719226908 stress="-0.02148014473817392 0.0002914602200681896 -0.00029146115239028303 0.0002914602200681896 -0.021480144683255206 0.00029146022006914715 -0.00029146115239028303 0.00029146022006914715 -0.02148014473817382" pbc="T T T"
Si       0.00000000       0.00000000       0.00000000      -0.12400999      -0.02042234      -0.12400999
Si       2.73523126       2.73523126       0.00000000       0.31610457      -0.31610472      -2.57979140
Si       2.73523126       0.00000000       2.73523126       0.01776367      -0.95180872       0.01776367
Si       0.00000000       2.73523126       2.73523126      -2.57979140      -0.31610472       0.31610457
Si       1.36761563       1.36761563       1.36761563      -0.31610464      -2.57979141      -0.31610464
Si       4.10284688       4.10284688       1.36761563       2.57979150       0.31610473      -0.31610465
Si       4.10284688       1.36761563       4.10284688       0.82599658      -0.82599648       0.82599658
Si       1.36761563       4.10284688       4.10284688      -0.31610465       0.31610473       2.57979150
Si       0.00000000       0.00000000       5.47046252      -0.19830526       0.04379698      -0.04379698
Si       2.73523126       2.73523126       5.47046252       0.01776366      -0.01776384       0.95180872
Si       2.73523126       0.00000000       8.20569378       0.03419486      -0.04366880       0.05076878
Si       0.00000000       2.73523126       8.20569378      -0.05215002      -0.00010564       0.12443967
Si       1.36761563       1.36761563       6.83807815      -0.00010555      -0.05215002      -0.12443967
Si       4.10284688       4.10284688       6.83807815       0.05215011       0.00010565      -0.12443965
Si       4.10284688       1.36761563       9.57330941       0.12401006      -0.12400998      -0.02042234
Si       1.36761563       4.10284688       9.57330941      -0.01776374       0.01776384      -0.95180875
Si       0.00000000       5.47046252       0.00000000      -0.82599650       0.82599649      -0.82599650
Si       2.73523126       8.20569378       0.00000000       0.00010547      -0.12443968      -0.05215001
Si       2.73523126       5.47046252       2.73523126       0.31610459       2.57979141       0.31610459
Si       0.00000000       8.20569378       2.73523126      -0.05215001      -0.12443968       0.00010547
Si       1.36761563       6.83807815       1.36761563      -0.01776374       0.95180876      -0.01776374
Si       4.10284688       9.57330941       1.36761563       0.05215011       0.12443966      -0.00010556
Si       4.10284688       6.83807815       4.10284688       0.12401006       0.02042232       0.12401006
Si       1.36761563       9.57330941       4.10284688      -0.00010556       0.12443966       0.05215011
Si       0.00000000       5.47046252       5.47046252      -0.12400999       0.12400998       0.02042233
Si       2.73523126       8.20569378       5.47046252       0.03419486      -0.05076878       0.04366880
Si       2.73523126       5.47046252       8.20569378       0.00010547       0.05215001       0.12443967
Si       0.00000000       8.20569378       8.20569378      -0.05891825       0.01812505      -0.01812505
Si       1.36761563       6.83807815       6.83807815      -0.03419494       0.04366879      -0.05076878
Si       4.10284688       9.57330941       6.83807815       0.05891833      -0.01812505       0.01812505
Si       4.10284688       6.83807815       9.57330941       0.19830534      -0.04379698       0.04379698
Si       1.36761563       9.57330941       9.57330941      -0.03419494       0.05076879      -0.04366880
Si       5.47046252       0.00000000       0.00000000      -0.04379698       0.04379698      -0.19830526
Si       8.20569378       2.73523126       0.00000000       0.12443967      -0.00010564      -0.05215002
Si       8.20569378       0.00000000       2.73523126       0.05076878      -0.04366880       0.03419486
Si       5.47046252       2.73523126       2.73523126       0.95180872      -0.01776384       0.01776366
Si       6.83807815       1.36761563       1.36761563      -0.12443967      -0.05215002      -0.00010555
Si       9.57330941       4.10284688       1.36761563      -0.95180875       0.01776384      -0.01776374
Si       9.57330941       1.36761563       4.10284688      -0.02042234      -0.12400998       0.12401006
Si       6.83807815       4.10284688       4.10284688      -0.12443965       0.00010565       0.05215011
Si       5.47046252       0.00000000       5.47046252       0.13681400      -0.13681400       0.13681400
Si       8.20569378       2.73523126       5.47046252       0.05076878      -0.03419502       0.04366880
Si       8.20569378       0.00000000       8.20569378       0.00994594      -0.03490567       0.00994594
Si       5.47046252       2.73523126       8.20569378       0.04366880      -0.03419502       0.05076878
Si       6.83807815       1.36761563       6.83807815       0.01812505      -0.05891825       0.01812505
Si       9.57330941       4.10284688       6.83807815      -0.04366879       0.03419502      -0.05076878
Si       9.57330941       1.36761563       9.57330941       0.04379698      -0.19830526       0.04379698
Si       6.83807815       4.10284688       9.57330941      -0.05076878       0.03419502      -0.04366879
Si       5.47046252       5.47046252       0.00000000       0.02042233       0.12400998      -0.12400999
Si       8.20569378       8.20569378       0.00000000      -0.01812505       0.01812505      -0.05891825
Si       8.20569378       5.47046252       2.73523126       0.12443967       0.05215001       0.00010547
Si       5.47046252       8.20569378       2.73523126       0.04366880      -0.05076878       0.03419486
Si       6.83807815       6.83807815       1.36761563      -0.05076878       0.04366879      -0.03419494
Si       9.57330941       9.57330941       1.36761563      -0.04366880       0.05076879      -0.03419494
Si       9.57330941       6.83807815       4.10284688       0.04379698      -0.04379698       0.19830534
Si       6.83807815       9.57330941       4.10284688       0.01812505      -0.01812505       0.05891833
Si       5.47046252       5.47046252       5.47046252      -0.04379698       0.19830526      -0.04379698
Si       8.20569378       8.20569378       5.47046252       0.00994594      -0.00994595       0.03490567
Si       8.20569378       5.47046252       8.20569378      -0.01812505       0.05891824      -0.01812505
Si       5.47046252       8.20569378       8.20569378       0.03490567      -0.00994595       0.00994594
Si       6.83807815       6.83807815       6.83807815      -0.00994595       0.03490567      -0.00994595
Si       9.57330941       9.57330941       6.83807815      -0.03490567       0.00994595      -0.00994595
Si       9.57330941       6.83807815       9.57330941      -0.13681398       0.13681398      -0.13681398
Si       6.83807815       9.57330941       9.57330941      -0.00994595       0.00994595      -0.03490567
Si       2.05142345       3.41903907       2.05142345      -0.00000001      -0.00000003      -0.00000001
