65
Lattice="10.98441779588428 0.0 0.0 0.0 10.98441779588428 0.0 0.0 0.0 10.98441779588428" Properties=species:S:1:pos:R:3:forces:R:3 cutoff=-1.0 nneightol=1.2 Zs=14 interstitial_position="mean 4 5 6 7" bulk_struct_test=bulk_Si_diamond supercell_a1_in_bulk_lattice_coords="2 2 -2" n_minim_iter=0 pbc="T T T"
Si      -0.05939739      -0.05939739      -0.05939739      -0.00085034      -0.00085034      -0.00085034
Si       2.74610445       2.74610445      -0.04526157       0.00000000       0.00000000       0.00295968
Si       2.74610445      -0.04526157       2.74610445       0.00000000       0.00295968       0.00000000
Si      -0.04526157       2.74610445       2.74610445       0.00295968       0.00000000       0.00000000
Si       1.31271700       1.31271700       1.31271700      -0.00015372      -0.00015372      -0.00015372
Si       4.17949190       4.17949190       1.31271700       0.00015372       0.00015372      -0.00015372
Si       4.17949190       1.31271700       4.17949190       0.00015372      -0.00015372       0.00015372
Si       1.31271700       4.17949190       4.17949190      -0.00015372       0.00015372       0.00015372
Si      -0.00806611      -0.00806611       5.50027500       0.00362173       0.00362173      -0.00362173
Si       2.74610445       2.74610445       5.53747046       0.00000000       0.00000000      -0.00295968
Si       2.74610445      -0.00233655       8.23831334       0.00000000       0.00245487       0.00000000
Si      -0.00233655       2.74610445       8.23831334       0.00245487       0.00000000       0.00000000
Si       1.35851740       1.35851740       6.87737235       0.00059352       0.00059352      -0.00159172
Si       4.13369149       4.13369149       6.87737235      -0.00059353      -0.00059353      -0.00159172
Si       4.13369149       1.35851740       9.59925434      -0.00059353       0.00059352       0.00159172
Si       1.35851740       4.13369149       9.59925434       0.00059352      -0.00059353       0.00159172
Si      -0.00806611       5.50027500      -0.00806611       0.00362173      -0.00362173       0.00362173
Si       2.74610445       8.23831334      -0.00233655       0.00000000       0.00000000       0.00245487
Si       2.74610445       5.53747046       2.74610445       0.00000000      -0.00295968       0.00000000
Si      -0.00233655       8.23831334       2.74610445       0.00245487       0.00000000       0.00000000
Si       1.35851740       6.87737235       1.35851740       0.00059352      -0.00159172       0.00059352
Si       4.13369149       9.59925434       1.35851740      -0.00059353       0.00159172       0.00059352
Si       4.13369149       6.87737235       4.13369149      -0.00059353      -0.00159172      -0.00059353
Si       1.35851740       9.59925434       4.13369149       0.00059352       0.00159172      -0.00059353
Si      -0.05939739       5.55160629       5.55160629      -0.00085034       0.00085034       0.00085034
Si       2.74610445       8.23831335       5.49454544       0.00000000      -0.00000000      -0.00245487
Si       2.74610445       5.49454544       8.23831335       0.00000000      -0.00245487      -0.00000000
Si      -0.00039585       8.23831334       8.23831334       0.00245674       0.00000000       0.00000000
Si       1.37988556       6.87841233       6.87841233       0.00422248       0.00008968       0.00008968
Si       4.11232333       9.59821436       6.87841233      -0.00422248      -0.00008968       0.00008968
Si       4.11232333       6.87841233       9.59821436      -0.00422248       0.00008968      -0.00008968
Si       1.37988556       9.59821436       9.59821436       0.00422248      -0.00008968      -0.00008968
Si       5.50027500      -0.00806611      -0.00806611      -0.00362173       0.00362173       0.00362173
Si       8.23831334       2.74610445      -0.00233655       0.00000000       0.00000000       0.00245487
Si       8.23831334      -0.00233655       2.74610445       0.00000000       0.00245487       0.00000000
Si       5.53747046       2.74610445       2.74610445      -0.00295968       0.00000000       0.00000000
Si       6.87737235       1.35851740       1.35851740      -0.00159172       0.00059352       0.00059352
Si       9.59925434       4.13369149       1.35851740       0.00159172      -0.00059353       0.00059352
Si       9.59925434       1.35851740       4.13369149       0.00159172       0.00059352      -0.00059353
Si       6.87737235       4.13369149       4.13369149      -0.00159172      -0.00059353      -0.00059353
Si       5.55160629      -0.05939739       5.55160629       0.00085034      -0.00085034       0.00085034
Si       8.23831335       2.74610445       5.49454544      -0.00000000       0.00000000      -0.00245487
Si       8.23831334      -0.00039585       8.23831334       0.00000000       0.00245674       0.00000000
Si       5.49454544       2.74610445       8.23831335      -0.00245487       0.00000000      -0.00000000
Si       6.87841233       1.37988556       6.87841233       0.00008968       0.00422248       0.00008968
Si       9.59821436       4.11232333       6.87841233      -0.00008968      -0.00422248       0.00008968
Si       9.59821436       1.37988556       9.59821436      -0.00008968       0.00422248      -0.00008968
Si       6.87841233       4.11232333       9.59821436       0.00008968      -0.00422248      -0.00008968
Si       5.55160629       5.55160629      -0.05939739       0.00085034       0.00085034      -0.00085034
Si       8.23831334       8.23831334      -0.00039585       0.00000000       0.00000000       0.00245674
Si       8.23831335       5.49454544       2.74610445      -0.00000000      -0.00245487       0.00000000
Si       5.49454544       8.23831335       2.74610445      -0.00245487      -0.00000000       0.00000000
Si       6.87841233       6.87841233       1.37988556       0.00008968       0.00008968       0.00422248
Si       9.59821436       9.59821436       1.37988556      -0.00008968      -0.00008968       0.00422248
Si       9.59821436       6.87841233       4.11232333      -0.00008968       0.00008968      -0.00422248
Si       6.87841233       9.59821436       4.11232333       0.00008968      -0.00008968      -0.00422248
Si       5.50027500       5.50027500       5.50027500      -0.00362173      -0.00362173      -0.00362173
Si       8.23831335       8.23831335       5.49260474       0.00000000       0.00000000      -0.00245674
Si       8.23831335       5.49260474       8.23831335       0.00000000      -0.00245674       0.00000000
Si       5.49260474       8.23831335       8.23831335      -0.00245674       0.00000000       0.00000000
Si       6.86876938       6.86876938       6.86876938      -0.00007321      -0.00007321      -0.00007321
Si       9.60785731       9.60785731       6.86876938       0.00007321       0.00007321      -0.00007321
Si       9.60785731       6.86876938       9.60785731       0.00007321      -0.00007321       0.00007321
Si       6.86876938       9.60785731       9.60785731      -0.00007321       0.00007321       0.00007321
Si       2.74610445       2.74610445       2.74610445       0.00000000       0.00000000       0.00000000
