12
Lattice="3.846660889654819 0.0 0.0 0.0 5.44 0.0 0.0 0.0 -21.539982668964456" Properties=species:S:1:pos:R:3:forces:R:3 bulk_struct_test=bulk_Si_diamond n_minim_iter=0 pbc="T T T"
Si      -0.00000000      -0.91482460      -0.91260599       0.00000000      -0.00058861       0.00630476
Si      -0.00000001       1.38471130      -1.81012702       0.00000005      -0.00201366       0.00079192
Si       1.92333045       2.93613423      -1.76289782      -0.00000005      -0.00081415      -0.00008078
Si       1.92333044       4.08013572      -3.84129295       0.00000006       0.00032122      -0.00632471
Si       0.00000000       0.02661235      -3.80034766      -0.00000006       0.00018269       0.00849054
Si      -0.00000002       1.35982151      -5.77055782       0.00000038      -0.00761260       0.00245861
Si       1.92333046       2.72017849      -5.76942483      -0.00000038       0.00761256      -0.00245875
Si       1.92333044       4.05338765      -7.73963501       0.00000006      -0.00018271      -0.00849050
Si      -0.00000000      -0.00013572      -7.69868972      -0.00000006      -0.00032114       0.00632476
Si      -0.00000001       1.14386578      -9.77708485       0.00000005       0.00081409       0.00008082
Si       1.92333045       2.69528869      -9.72985565      -0.00000005       0.00201371      -0.00079191
Si       1.92333044       4.99482460     -10.62737667      -0.00000000       0.00058860      -0.00630476
