2
Lattice="2.7453847969318512 6.308045624147055e-17 2.7453847969318512 2.7453847969318512 2.7453847969318512 1.7131089694907875e-16 -5.975165329478013e-17 2.7453847969318512 2.7453847969318512" Properties=species:S:1:pos:R:3 n_minim_iter=2 stress="0.008480400500981781 2.8738599836256638e-12 3.2095256753010004e-15 2.8738599836256638e-12 0.008480400500995517 1.0558508917419321e-15 3.2095256753010004e-15 1.0558508917419321e-15 0.008480400491432947" pbc="T T T"
Si       0.00000000       0.00000000       0.00000000
Si       1.37269240       1.37269240       1.37269240
