65
Lattice="10.982754685698184 0.0 0.0 0.0 10.982754685698184 0.0 0.0 0.0 10.982754685698184" Properties=species:S:1:pos:R:3:forces:R:3 cutoff=-1.0 nneightol=1.2 Zs=14 interstitial_position="mean 4 5 6 7" bulk_struct_test=bulk_Si_diamond supercell_a1_in_bulk_lattice_coords="2 2 -2" n_minim_iter=0 energy=-10602.650062569333 stress="0.0019012107787833514 -2.689652130899997e-10 -2.690402890259932e-10 -2.689652130899997e-10 0.001901210778768057 -2.6904227515575e-10 -2.690402890259932e-10 -2.6904227515575e-10 0.001901210778676751" pbc="T T T"
Si       0.00000000       0.00000000       0.00000000      -0.20792525      -0.20792525      -0.20792525
Si       2.74568867       2.74568867       0.00000000      -0.00000006      -0.00000006      -0.64796090
Si       2.74568867       0.00000000       2.74568867      -0.00000006      -0.64796090      -0.00000006
Si       0.00000000       2.74568867       2.74568867      -0.64796090      -0.00000006      -0.00000006
Si       1.37284434       1.37284434       1.37284434      -0.63770930      -0.63770930      -0.63770930
Si       4.11853300       4.11853300       1.37284434       0.63770936       0.63770936      -0.63770930
Si       4.11853300       1.37284434       4.11853300       0.63770936      -0.63770930       0.63770936
Si       1.37284434       4.11853300       4.11853300      -0.63770930       0.63770936       0.63770936
Si       0.00000000       0.00000000       5.49137734      -0.03154845      -0.03154845       0.03154846
Si       2.74568867       2.74568867       5.49137734      -0.00000006      -0.00000006       0.64796089
Si       2.74568867       0.00000000       8.23706601      -0.00000007       0.03170379      -0.00000000
Si       0.00000000       2.74568867       8.23706601       0.03170379      -0.00000007      -0.00000000
Si       1.37284434       1.37284434       6.86422167      -0.08847492      -0.08847492       0.05041075
Si       4.11853300       4.11853300       6.86422167       0.08847498       0.08847498       0.05041075
Si       4.11853300       1.37284434       9.60991035       0.08847498      -0.08847492      -0.05041075
Si       1.37284434       4.11853300       9.60991035      -0.08847492       0.08847498      -0.05041075
Si       0.00000000       5.49137734       0.00000000      -0.03154845       0.03154846      -0.03154845
Si       2.74568867       8.23706601       0.00000000      -0.00000007      -0.00000000       0.03170379
Si       2.74568867       5.49137734       2.74568867      -0.00000006       0.64796089      -0.00000006
Si       0.00000000       8.23706601       2.74568867       0.03170379      -0.00000000      -0.00000007
Si       1.37284434       6.86422167       1.37284434      -0.08847492       0.05041075      -0.08847492
Si       4.11853300       9.60991035       1.37284434       0.08847498      -0.05041075      -0.08847492
Si       4.11853300       6.86422167       4.11853300       0.08847498       0.05041075       0.08847498
Si       1.37284434       9.60991035       4.11853300      -0.08847492      -0.05041075       0.08847498
Si       0.00000000       5.49137734       5.49137734      -0.20792525       0.20792526       0.20792526
Si       2.74568867       8.23706601       5.49137734      -0.00000007       0.00000000      -0.03170378
Si       2.74568867       5.49137734       8.23706601      -0.00000007      -0.03170378       0.00000000
Si       0.00000000       8.23706601       8.23706601      -0.02576100       0.00000000       0.00000000
Si       1.37284434       6.86422167       6.86422167       0.04714170       0.00478708       0.00478708
Si       4.11853300       9.60991035       6.86422167      -0.04714164      -0.00478708       0.00478708
Si       4.11853300       6.86422167       9.60991035      -0.04714164       0.00478708      -0.00478708
Si       1.37284434       9.60991035       9.60991035       0.04714170      -0.00478708      -0.00478708
Si       5.49137734       0.00000000       0.00000000       0.03154846      -0.03154845      -0.03154845
Si       8.23706601       2.74568867       0.00000000      -0.00000000      -0.00000007       0.03170379
Si       8.23706601       0.00000000       2.74568867      -0.00000000       0.03170379      -0.00000007
Si       5.49137734       2.74568867       2.74568867       0.64796089      -0.00000006      -0.00000006
Si       6.86422167       1.37284434       1.37284434       0.05041075      -0.08847492      -0.08847492
Si       9.60991035       4.11853300       1.37284434      -0.05041075       0.08847498      -0.08847492
Si       9.60991035       1.37284434       4.11853300      -0.05041075      -0.08847492       0.08847498
Si       6.86422167       4.11853300       4.11853300       0.05041075       0.08847498       0.08847498
Si       5.49137734       0.00000000       5.49137734       0.20792526      -0.20792525       0.20792526
Si       8.23706601       2.74568867       5.49137734       0.00000000      -0.00000007      -0.03170378
Si       8.23706601       0.00000000       8.23706601       0.00000000      -0.02576100       0.00000000
Si       5.49137734       2.74568867       8.23706601      -0.03170378      -0.00000007       0.00000000
Si       6.86422167       1.37284434       6.86422167       0.00478708       0.04714170       0.00478708
Si       9.60991035       4.11853300       6.86422167      -0.00478708      -0.04714164       0.00478708
Si       9.60991035       1.37284434       9.60991035      -0.00478708       0.04714170      -0.00478708
Si       6.86422167       4.11853300       9.60991035       0.00478708      -0.04714164      -0.00478708
Si       5.49137734       5.49137734       0.00000000       0.20792526       0.20792526      -0.20792525
Si       8.23706601       8.23706601       0.00000000       0.00000000       0.00000000      -0.02576100
Si       8.23706601       5.49137734       2.74568867       0.00000000      -0.03170378      -0.00000007
Si       5.49137734       8.23706601       2.74568867      -0.03170378       0.00000000      -0.00000007
Si       6.86422167       6.86422167       1.37284434       0.00478708       0.00478708       0.04714170
Si       9.60991035       9.60991035       1.37284434      -0.00478708      -0.00478708       0.04714170
Si       9.60991035       6.86422167       4.11853300      -0.00478708       0.00478708      -0.04714164
Si       6.86422167       9.60991035       4.11853300       0.00478708      -0.00478708      -0.04714164
Si       5.49137734       5.49137734       5.49137734       0.03154846       0.03154846       0.03154846
Si       8.23706601       8.23706601       5.49137734       0.00000000       0.00000000       0.02576101
Si       8.23706601       5.49137734       8.23706601       0.00000000       0.02576101       0.00000000
Si       5.49137734       8.23706601       8.23706601       0.02576101       0.00000000       0.00000000
Si       6.86422167       6.86422167       6.86422167      -0.01190491      -0.01190491      -0.01190491
Si       9.60991035       9.60991035       6.86422167       0.01190491       0.01190491      -0.01190491
Si       9.60991035       6.86422167       9.60991035       0.01190491      -0.01190491       0.01190491
Si       6.86422167       9.60991035       9.60991035      -0.01190491       0.01190491       0.01190491
Si       2.74568867       2.74568867       2.74568867      -0.00000000      -0.00000000      -0.00000000
