18
Lattice="0.0 -2.7352312604386797 2.7352312604386797 2.7352312604386797 -2.7352312604386797 0.0 21.993524374196166 21.993524374196166 21.993524374196166" Properties=species:S:1:pos:R:3:travel:I:3:map_shift:I:3:n_neighb:I:1:orig_index:I:1:forces:R:3 cutoff=2.0 nneightol=1.2 bulk_struct_test=bulk_Si_diamond supercell_a1_in_bulk_lattice_coords="1 -1 0" n_minim_iter=0 pbc="T T T"
Si       0.01777072       0.01777072       0.01777072        0        0        0        0        0        0       21        1      -0.00099005      -0.00099005      -0.00099005
Si       1.38307941       1.38307941       1.38307941        0        0        0        0        0        0       21        2       0.00217411       0.00217411       0.00217411
Si       2.74569228       0.01046102       2.74569228        0       -1        0        0        0        0       20        3       0.00062615       0.00062615       0.00062615
Si      -1.45137072      -4.18660198      -1.45137072        0       -1        1        0        0        0       20        4       0.00169971       0.00169971       0.00169971
Si      -2.80761143      -0.07238017      -2.80761143        1       -1        1        0        0        0       20        5      -0.00034100      -0.00034100      -0.00034100
Si      -1.35180537       1.38342589      -1.35180537        1       -1        1        0        0        0       20        6      -0.00231577      -0.00231577      -0.00231577
Si       5.46889563       5.46889563       5.46889563        0        0        0        0        0        0       21        1      -0.00197855      -0.00197855      -0.00197855
Si       6.83349254       6.83349254       6.83349254        0        0        0        0        0        0       21        2       0.00214911       0.00214911       0.00214911
Si       8.19792163       5.46269037       8.19792163        0       -1        0        0        0        0       20        3       0.00181314       0.00181314       0.00181314
Si       4.11061904       1.37538778       4.11061904        0       -1        1        0        0        0       20        4      -0.00181314      -0.00181314      -0.00181314
Si       2.73981687       5.47504813       2.73981687        1       -1        1        0        0        0       20        5      -0.00214911      -0.00214911      -0.00214911
Si       4.10441378       6.83964504       4.10441378        1       -1        1        0        0        0       20        6       0.00197855       0.00197855       0.00197855
Si      10.92511478      10.92511478      10.92511478        0        0        0        0        0        0       21        1       0.00231577       0.00231577       0.00231577
Si      12.38092084      12.38092084      12.38092084        0        0        0        0        0        0       21        2       0.00034100       0.00034100       0.00034100
Si      13.75991139      11.02468013      13.75991139        0       -1        0        0        0        0       20        3      -0.00169971      -0.00169971      -0.00169971
Si       9.56284839       6.82761713       9.56284839        0       -1        1        0        0        0       20        4      -0.00062615      -0.00062615      -0.00062615
Si       8.19023000      10.92546126       8.19023000        1       -1        1        0        0        0       20        5      -0.00217411      -0.00217411      -0.00217411
Si       9.55553869      12.29076995       9.55553869        1       -1        1        0        0        0       20        6       0.00099005       0.00099005       0.00099005
