65
Lattice="10.98441779588428 0.0 0.0 0.0 10.98441779588428 0.0 0.0 0.0 10.98441779588428" Properties=species:S:1:pos:R:3:forces:R:3 cutoff=-1.0 nneightol=1.2 Zs=14 interstitial_position="mean 4 5 6 7" bulk_struct_test=bulk_Si_diamond supercell_a1_in_bulk_lattice_coords="2 2 -2" n_minim_iter=0 energy=-10602.668401113357 stress="0.0020517512826625367 -2.6017783636654926e-10 -2.601784981574539e-10 -2.6017783636654926e-10 0.0020517512826625367 -2.6017848410272327e-10 -2.601784981574539e-10 -2.6017848410272327e-10 0.002051751282662322" pbc="T T T"
Si       0.00000000       0.00000000       0.00000000      -0.25832534      -0.25832534      -0.25832534
Si       2.74610445       2.74610445       0.00000000      -0.00000006      -0.00000006      -0.61230485
Si       2.74610445       0.00000000       2.74610445      -0.00000006      -0.61230485      -0.00000006
Si       0.00000000       2.74610445       2.74610445      -0.61230485      -0.00000006      -0.00000006
Si       1.37305223       1.37305223       1.37305223      -0.61946943      -0.61946943      -0.61946943
Si       4.11915667       4.11915667       1.37305223       0.61946948       0.61946948      -0.61946942
Si       4.11915667       1.37305223       4.11915667       0.61946948      -0.61946942       0.61946948
Si       1.37305223       4.11915667       4.11915667      -0.61946942       0.61946948       0.61946948
Si       0.00000000       0.00000000       5.49220889      -0.02611558      -0.02611558       0.02611559
Si       2.74610445       2.74610445       5.49220889      -0.00000006      -0.00000006       0.61230485
Si       2.74610445       0.00000000       8.23831334      -0.00000007       0.00768878      -0.00000000
Si       0.00000000       2.74610445       8.23831334       0.00768878      -0.00000007      -0.00000000
Si       1.37305223       1.37305223       6.86526112      -0.08094486      -0.08094486       0.01405034
Si       4.11915667       4.11915667       6.86526112       0.08094492       0.08094492       0.01405034
Si       4.11915667       1.37305223       9.61136557       0.08094492      -0.08094486      -0.01405035
Si       1.37305223       4.11915667       9.61136557      -0.08094486       0.08094492      -0.01405035
Si       0.00000000       5.49220889       0.00000000      -0.02611558       0.02611559      -0.02611558
Si       2.74610445       8.23831334       0.00000000      -0.00000007      -0.00000000       0.00768878
Si       2.74610445       5.49220889       2.74610445      -0.00000006       0.61230485      -0.00000006
Si       0.00000000       8.23831334       2.74610445       0.00768878      -0.00000000      -0.00000007
Si       1.37305223       6.86526112       1.37305223      -0.08094486       0.01405034      -0.08094486
Si       4.11915667       9.61136557       1.37305223       0.08094492      -0.01405035      -0.08094486
Si       4.11915667       6.86526112       4.11915667       0.08094492       0.01405034       0.08094492
Si       1.37305223       9.61136557       4.11915667      -0.08094486      -0.01405035       0.08094492
Si       0.00000000       5.49220889       5.49220889      -0.25832534       0.25832535       0.25832535
Si       2.74610445       8.23831334       5.49220889      -0.00000007       0.00000000      -0.00768877
Si       2.74610445       5.49220889       8.23831334      -0.00000007      -0.00768877       0.00000000
Si       0.00000000       8.23831334       8.23831334      -0.02539903       0.00000000       0.00000000
Si       1.37305223       6.86526112       6.86526112       0.03845715       0.00918811       0.00918811
Si       4.11915667       9.61136557       6.86526112      -0.03845709      -0.00918811       0.00918811
Si       4.11915667       6.86526112       9.61136557      -0.03845709       0.00918811      -0.00918811
Si       1.37305223       9.61136557       9.61136557       0.03845715      -0.00918811      -0.00918811
Si       5.49220889       0.00000000       0.00000000       0.02611559      -0.02611558      -0.02611558
Si       8.23831334       2.74610445       0.00000000      -0.00000000      -0.00000007       0.00768878
Si       8.23831334       0.00000000       2.74610445      -0.00000000       0.00768878      -0.00000007
Si       5.49220889       2.74610445       2.74610445       0.61230485      -0.00000006      -0.00000006
Si       6.86526112       1.37305223       1.37305223       0.01405034      -0.08094486      -0.08094486
Si       9.61136557       4.11915667       1.37305223      -0.01405035       0.08094492      -0.08094486
Si       9.61136557       1.37305223       4.11915667      -0.01405035      -0.08094486       0.08094492
Si       6.86526112       4.11915667       4.11915667       0.01405034       0.08094492       0.08094492
Si       5.49220889       0.00000000       5.49220889       0.25832535      -0.25832534       0.25832535
Si       8.23831334       2.74610445       5.49220889       0.00000000      -0.00000007      -0.00768877
Si       8.23831334       0.00000000       8.23831334       0.00000000      -0.02539903       0.00000000
Si       5.49220889       2.74610445       8.23831334      -0.00768877      -0.00000007       0.00000000
Si       6.86526112       1.37305223       6.86526112       0.00918811       0.03845715       0.00918811
Si       9.61136557       4.11915667       6.86526112      -0.00918811      -0.03845709       0.00918811
Si       9.61136557       1.37305223       9.61136557      -0.00918811       0.03845715      -0.00918811
Si       6.86526112       4.11915667       9.61136557       0.00918811      -0.03845709      -0.00918811
Si       5.49220889       5.49220889       0.00000000       0.25832535       0.25832535      -0.25832534
Si       8.23831334       8.23831334       0.00000000       0.00000000       0.00000000      -0.02539903
Si       8.23831334       5.49220889       2.74610445       0.00000000      -0.00768877      -0.00000007
Si       5.49220889       8.23831334       2.74610445      -0.00768877       0.00000000      -0.00000007
Si       6.86526112       6.86526112       1.37305223       0.00918811       0.00918811       0.03845715
Si       9.61136557       9.61136557       1.37305223      -0.00918811      -0.00918811       0.03845715
Si       9.61136557       6.86526112       4.11915667      -0.00918811       0.00918811      -0.03845709
Si       6.86526112       9.61136557       4.11915667       0.00918811      -0.00918811      -0.03845709
Si       5.49220889       5.49220889       5.49220889       0.02611559       0.02611559       0.02611559
Si       8.23831334       8.23831334       5.49220889       0.00000000       0.00000000       0.02539904
Si       8.23831334       5.49220889       8.23831334       0.00000000       0.02539904       0.00000000
Si       5.49220889       8.23831334       8.23831334       0.02539904       0.00000000       0.00000000
Si       6.86526112       6.86526112       6.86526112      -0.00372856      -0.00372856      -0.00372856
Si       9.61136557       9.61136557       6.86526112       0.00372856       0.00372856      -0.00372856
Si       9.61136557       6.86526112       9.61136557       0.00372856      -0.00372856       0.00372856
Si       6.86526112       9.61136557       9.61136557      -0.00372856       0.00372856       0.00372856
Si       2.74610445       2.74610445       2.74610445       0.00000000       0.00000000       0.00000000
