12
Lattice="3.846660889654819 0.0 0.0 0.0 5.44 0.0 0.0 0.0 -21.539982668964456" Properties=species:S:1:pos:R:3:forces:R:3 bulk_struct_test=bulk_Si_diamond n_minim_iter=0 energy=-1953.273418882068 stress="0.012754456143792184 4.285442913661961e-10 -3.03256266904114e-10 4.285442913661961e-10 0.01869161492033717 6.159880794788657e-07 -3.03256266904114e-10 6.159880794788657e-07 2.780028651576278e-07" free_energy=-1953.273418882068 pbc="T T T"
Si       0.00000000      -0.94562377      -0.94748076      -0.00000006      -0.00010569      -0.00003301
Si       0.00000002       1.35412806      -1.84821161      -0.00000022       0.00005363       0.00001492
Si       1.92333041       2.95894262      -1.67250087       0.00000029       0.00000575      -0.00001596
Si       1.92333041       4.06352547      -3.77522449       0.00000064       0.00009283       0.00000599
Si       0.00000003       0.01834632      -3.85983505      -0.00000066      -0.00002335       0.00004935
Si       0.00000004       1.35943154      -5.82059187      -0.00000082       0.00006752       0.00006136
Si       1.92333040       2.72056845      -5.71939081       0.00000082      -0.00006736      -0.00006123
Si       1.92333041       4.06165372      -7.68014759       0.00000066       0.00002292      -0.00004978
Si       0.00000003       0.01647454      -7.76475820      -0.00000064      -0.00009299      -0.00000557
Si       0.00000003       1.12105735      -9.86748177      -0.00000029      -0.00000541       0.00001551
Si       1.92333042       2.72587193      -9.69177108       0.00000022      -0.00005339      -0.00001461
Si       1.92333044       5.02562378     -10.59250190       0.00000006       0.00010553       0.00003302
