18
Lattice="0.0 -2.74610444897107 2.74610444897107 2.74610444897107 -2.74610444897107 0.0 22.080953814065175 22.080953814065175 22.080953814065175" Properties=species:S:1:pos:R:3:travel:I:3:map_shift:I:3:n_neighb:I:1:orig_index:I:1:forces:R:3 cutoff=2.0 nneightol=1.2 bulk_struct_test=bulk_Si_diamond supercell_a1_in_bulk_lattice_coords="1 -1 0" n_minim_iter=0 pbc="T T T"
Si       0.04047187       0.04047187       0.04047187        0        0        0        0        0        0       21        1      -0.00160858      -0.00160858      -0.00160858
Si       1.40729689       1.40729689       1.40729689        0        0        0        0        0        0       21        2       0.00171543       0.00171543       0.00171543
Si       2.77241641       0.02631196       2.77241641        0       -1        0        0        0        0       20        3      -0.00325749      -0.00325749      -0.00325749
Si      -1.23095807      -3.97706252      -1.23095807        0       -1        1        0        0        0       20        4       0.00316545       0.00316545       0.00316545
Si      -2.69686047       0.04924398      -2.69686047        1       -1        1        0        0        0       20        5      -0.00300556      -0.00300556      -0.00300556
Si      -1.31679126       1.42931319      -1.31679126        1       -1        1        0        0        0       20        6      -0.00053549      -0.00053549      -0.00053549
Si       5.48855687       5.48855687       5.48855687        0        0        0        0        0        0       21        1      -0.00323579      -0.00323579      -0.00323579
Si       6.85421501       6.85421501       6.85421501        0        0        0        0        0        0       21        2       0.00132355       0.00132355       0.00132355
Si       8.21966948       5.47356503       8.21966948        0       -1        0        0        0        0       20        3      -0.00449132      -0.00449132      -0.00449132
Si       4.13780054       1.39169609       4.13780054        0       -1        1        0        0        0       20        4       0.00449132       0.00449132       0.00449132
Si       2.75715056       5.50325501       2.75715056        1       -1        1        0        0        0       20        5      -0.00132355      -0.00132355      -0.00132355
Si       4.12280870       6.86891315       4.12280870        1       -1        1        0        0        0       20        6       0.00323579       0.00323579       0.00323579
Si      10.92815683      10.92815683      10.92815683        0        0        0        0        0        0       21        1       0.00053549       0.00053549       0.00053549
Si      12.30822604      12.30822604      12.30822604        0        0        0        0        0        0       21        2       0.00300556       0.00300556       0.00300556
Si      13.58842809      10.84232364      13.58842809        0       -1        0        0        0        0       20        3      -0.00316545      -0.00316545      -0.00316545
Si       9.58505361       6.83894916       9.58505361        0       -1        1        0        0        0       20        4       0.00325749       0.00325749       0.00325749
Si       8.20406869      10.95017313       8.20406869        1       -1        1        0        0        0       20        5      -0.00171543      -0.00171543      -0.00171543
Si       9.57089370      12.31699815       9.57089370        1       -1        1        0        0        0       20        6       0.00160858       0.00160858       0.00160858
