64
Lattice="10.985629486570017 0.0 0.0 0.0 10.985629486570017 0.0 0.0 0.0 10.985629486570017" Properties=species:S:1:pos:R:3:forces:R:3 cutoff=-1.0 nneightol=1.2 Zs=14 interstitial_position="mean 1 3 4 5 7 18" interstitial_constraint="plane atoms 4 5 7" bulk_struct_test=bulk_Si_diamond supercell_a1_in_bulk_lattice_coords="2 2 -2" n_minim_iter=0 energy=-10443.2375217206 stress="0.00928487372646908 -2.483404995615191e-10 -2.483404355942363e-10 -2.483404995615191e-10 0.009284873726468908 -2.4834043031879235e-10 -2.483404355942363e-10 -2.4834043031879235e-10 0.009284873726469165" pbc="T T T"
Si       0.00000000       0.00000000       0.00000000      -0.00000000      -0.00000000      -0.00000000
Si       2.74640737       2.74640737       0.00000000      -0.00000007      -0.00000007      -0.00000000
Si       2.74640737       0.00000000       2.74640737      -0.00000007      -0.00000000      -0.00000007
Si       0.00000000       2.74640737       2.74640737      -0.00000000      -0.00000007      -0.00000007
Si       1.37320369       1.37320369       1.37320369      -0.00000001      -0.00000001      -0.00000001
Si       4.11961105       4.11961105       1.37320369       0.00000007       0.00000007      -0.00000001
Si       4.11961105       1.37320369       4.11961105       0.00000007      -0.00000001       0.00000007
Si       1.37320369       4.11961105       4.11961105      -0.00000001       0.00000007       0.00000007
Si       0.00000000       0.00000000       5.49281474      -0.00000000      -0.00000000       0.00000001
Si       2.74640737       2.74640737       5.49281474      -0.00000007      -0.00000007       0.00000001
Si       2.74640737       0.00000000       8.23922211      -0.00000007      -0.00000000       0.00000000
Si       0.00000000       2.74640737       8.23922211      -0.00000000      -0.00000007       0.00000000
Si       1.37320369       1.37320369       6.86601843      -0.00000001      -0.00000001       0.00000000
Si       4.11961105       4.11961105       6.86601843       0.00000007       0.00000007       0.00000000
Si       4.11961105       1.37320369       9.61242580       0.00000007      -0.00000001      -0.00000000
Si       1.37320369       4.11961105       9.61242580      -0.00000001       0.00000007      -0.00000000
Si       0.00000000       5.49281474       0.00000000      -0.00000000       0.00000001      -0.00000000
Si       2.74640737       8.23922211       0.00000000      -0.00000007       0.00000000      -0.00000000
Si       2.74640737       5.49281474       2.74640737      -0.00000007       0.00000001      -0.00000007
Si       0.00000000       8.23922211       2.74640737      -0.00000000       0.00000000      -0.00000007
Si       1.37320369       6.86601843       1.37320369      -0.00000001       0.00000000      -0.00000001
Si       4.11961105       9.61242580       1.37320369       0.00000007      -0.00000000      -0.00000001
Si       4.11961105       6.86601843       4.11961105       0.00000007       0.00000000       0.00000007
Si       1.37320369       9.61242580       4.11961105      -0.00000001      -0.00000000       0.00000007
Si       0.00000000       5.49281474       5.49281474      -0.00000000       0.00000001       0.00000001
Si       2.74640737       8.23922211       5.49281474      -0.00000007       0.00000000       0.00000001
Si       2.74640737       5.49281474       8.23922211      -0.00000007       0.00000001       0.00000000
Si       0.00000000       8.23922211       8.23922211      -0.00000000       0.00000000       0.00000000
Si       1.37320369       6.86601843       6.86601843      -0.00000001       0.00000000       0.00000000
Si       4.11961105       9.61242580       6.86601843       0.00000007      -0.00000000       0.00000000
Si       4.11961105       6.86601843       9.61242580       0.00000007       0.00000000      -0.00000000
Si       1.37320369       9.61242580       9.61242580      -0.00000001      -0.00000000      -0.00000000
Si       5.49281474       0.00000000       0.00000000       0.00000001      -0.00000000      -0.00000000
Si       8.23922211       2.74640737       0.00000000       0.00000000      -0.00000007      -0.00000000
Si       8.23922211       0.00000000       2.74640737       0.00000000      -0.00000000      -0.00000007
Si       5.49281474       2.74640737       2.74640737       0.00000001      -0.00000007      -0.00000007
Si       6.86601843       1.37320369       1.37320369       0.00000000      -0.00000001      -0.00000001
Si       9.61242580       4.11961105       1.37320369      -0.00000000       0.00000007      -0.00000001
Si       9.61242580       1.37320369       4.11961105      -0.00000000      -0.00000001       0.00000007
Si       6.86601843       4.11961105       4.11961105       0.00000000       0.00000007       0.00000007
Si       5.49281474       0.00000000       5.49281474       0.00000001      -0.00000000       0.00000001
Si       8.23922211       2.74640737       5.49281474       0.00000000      -0.00000007       0.00000001
Si       8.23922211       0.00000000       8.23922211       0.00000000      -0.00000000       0.00000000
Si       5.49281474       2.74640737       8.23922211       0.00000001      -0.00000007       0.00000000
Si       6.86601843       1.37320369       6.86601843       0.00000000      -0.00000001       0.00000000
Si       9.61242580       4.11961105       6.86601843      -0.00000000       0.00000007       0.00000000
Si       9.61242580       1.37320369       9.61242580      -0.00000000      -0.00000001      -0.00000000
Si       6.86601843       4.11961105       9.61242580       0.00000000       0.00000007      -0.00000000
Si       5.49281474       5.49281474       0.00000000       0.00000001       0.00000001      -0.00000000
Si       8.23922211       8.23922211       0.00000000       0.00000000       0.00000000      -0.00000000
Si       8.23922211       5.49281474       2.74640737       0.00000000       0.00000001      -0.00000007
Si       5.49281474       8.23922211       2.74640737       0.00000001       0.00000000      -0.00000007
Si       6.86601843       6.86601843       1.37320369       0.00000000       0.00000000      -0.00000001
Si       9.61242580       9.61242580       1.37320369      -0.00000000      -0.00000000      -0.00000001
Si       9.61242580       6.86601843       4.11961105      -0.00000000       0.00000000       0.00000007
Si       6.86601843       9.61242580       4.11961105       0.00000000      -0.00000000       0.00000007
Si       5.49281474       5.49281474       5.49281474       0.00000001       0.00000001       0.00000001
Si       8.23922211       8.23922211       5.49281474       0.00000000       0.00000000       0.00000001
Si       8.23922211       5.49281474       8.23922211       0.00000000       0.00000001       0.00000000
Si       5.49281474       8.23922211       8.23922211       0.00000001       0.00000000       0.00000000
Si       6.86601843       6.86601843       6.86601843       0.00000000       0.00000000       0.00000000
Si       9.61242580       9.61242580       6.86601843      -0.00000000      -0.00000000       0.00000000
Si       9.61242580       6.86601843       9.61242580      -0.00000000       0.00000000      -0.00000000
Si       6.86601843       9.61242580       9.61242580       0.00000000      -0.00000000      -0.00000000
