2
Lattice="4.809808514906029 1.9487609668378174e-17 1.8199207224246884e-16 1.9487609668377496e-17 4.80980851490603 -1.7427418824061097e-16 2.4049042574530146 2.404904257453015 1.3265017938512034" Properties=species:S:1:pos:R:3 cutoff=-1.0 nneightol=1.2 n_minim_iter=2 stress="-0.0017176640719550613 -2.9111811428587996e-17 -7.394116028329055e-18 -2.9111811428587996e-17 -0.0017176640719549455 -1.2801254363083893e-16 -7.394116028329055e-18 -1.2801254363083893e-16 -0.0019677222941114976" pbc="T T T"
Si      -0.00000000      -1.20245213      -0.33162545
Si      -0.00000000       1.20245213       0.33162545
