63
Lattice="10.98441779588428 0.0 0.0 0.0 10.98441779588428 0.0 0.0 0.0 10.98441779588428" Properties=species:S:1:pos:R:3:forces:R:3 cutoff=-1.0 nneightol=1.2 vacancies=0 relax_radial_0=0.13 relax_symm_break_0=0.01 bulk_struct_test=bulk_Si_diamond supercell_a1_in_bulk_lattice_coords="2 2 -2" n_minim_iter=0 pbc="T T T"
Si       2.71151420       2.71160007       0.01309924      -0.00102584      -0.00126543      -0.00005762
Si       2.71199634       0.01258144       2.71218649      -0.00127851       0.00071313      -0.00159461
Si       0.01210623       2.71249496       2.71259405       0.00154492      -0.00165228      -0.00175937
Si       1.27369062       1.27492565       1.27631355      -0.00257683      -0.00351784      -0.00459938
Si       4.11281581       4.11269656       1.37113310      -0.00087726      -0.00081456      -0.00133868
Si       4.11255155       1.37182897       4.11230729      -0.00068733      -0.00158785      -0.00074640
Si       1.37251035       4.11213477       4.11201011      -0.00185932      -0.00054066      -0.00065015
Si       0.00048334       0.00024304       5.49221176       0.00098661       0.00046930       0.00001509
Si       2.74440888       2.74404746       5.49264496      -0.00020958      -0.00057823       0.00177864
Si       2.70955150      -0.01306827       8.27468487      -0.00001847       0.00026928       0.00044107
Si      -0.01307595       2.70753845       8.27678381       0.00044952       0.00084164      -0.00066020
Si       1.37186628       1.37181078       6.87645174       0.00075305       0.00086438      -0.00192851
Si       4.11873121       4.11817891       6.86679076      -0.00014334      -0.00009040       0.00002254
Si       4.10829322       1.37143861       9.61304354       0.00211826       0.00119230      -0.00125253
Si       1.37167160       4.10810408       9.61286596       0.00094672       0.00209811      -0.00111689
Si       0.00048337       5.49232684       0.00000249       0.00098625       0.00032859      -0.00001440
Si       2.71009166       8.27402021      -0.01251405      -0.00031346       0.00080721      -0.00050407
Si       2.74483767       5.49239374       2.74409400      -0.00043367       0.00182954      -0.00106592
Si      -0.01246869       8.27816736       2.70613477      -0.00013223      -0.00128469       0.00146006
Si       1.37216855       6.87599146       1.37204373       0.00041782      -0.00099529       0.00061093
Si       4.10883470       9.61303248       1.37145515       0.00150131      -0.00119968       0.00115444
Si       4.11905332       6.86706259       4.11791529      -0.00037623       0.00011696      -0.00018228
Si       1.37195726       9.61265523       4.10852602       0.00062789      -0.00086451       0.00116403
Si       0.00078533       5.49370884       5.49219813       0.00156901      -0.00096087       0.00002007
Si       2.74461911       8.24095075       5.49247167      -0.00021997       0.00115302      -0.00176546
Si       2.74419883       5.49223983       8.24096852       0.00000944      -0.00170736       0.00068566
Si       0.01156744       8.27317890       8.27329824       0.00208855       0.00115012       0.00105054
Si       1.37256039       6.87392064       6.87377965      -0.00213451       0.00002076      -0.00009995
Si       4.11170885       9.61395893       6.87297635      -0.00038089       0.00130424       0.00030696
Si       4.11147320       6.87335289       9.61324151      -0.00018511       0.00024488       0.00156329
Si       1.26831112       9.71206503       9.71358470       0.00029979       0.00281257       0.00164253
Si       5.49244667       0.00024396       0.00000156       0.00071308       0.00046909      -0.00001449
Si       8.27538754       2.70866473      -0.01193361       0.00017846       0.00027367      -0.00113867
Si       8.27743183      -0.01187972       2.70672163      -0.00082415      -0.00095980       0.00116006
Si       5.49211940       2.74490987       2.74452595       0.00205058      -0.00106772      -0.00131909
Si       6.87551592       1.37242110       1.37234702      -0.00027456       0.00024270       0.00036252
Si       9.61284756       4.10919114       1.37170907      -0.00104058       0.00083007       0.00096373
Si       9.61265784       1.37197477       4.10905941      -0.00089224       0.00070244       0.00059557
Si       6.86733550       4.11880309       4.11822338       0.00013921      -0.00038671      -0.00028950
Si       5.49522509       0.00039096       5.49219856      -0.00192503       0.00081450       0.00001902
Si       8.24118248       2.74444926       5.49318487       0.00149210      -0.00064286      -0.00197161
Si       8.27495418       0.01146195       8.27522457       0.00035830       0.00189385       0.00008655
Si       5.49274156       2.74362449       8.24118146      -0.00160296      -0.00008756       0.00041287
Si       6.87519266       1.37191384       6.87487596      -0.00053274      -0.00211750      -0.00057734
Si       9.61466537       4.11040509       6.87416109       0.00131171       0.00015946      -0.00017037
Si       9.71601289       1.26395880       9.71917234       0.00108036       0.00231698      -0.00131645
Si       6.87492162       4.10996061       9.61320648      -0.00040411       0.00044015       0.00181793
Si       5.49522541       5.49370916       0.00001910      -0.00192600      -0.00096218      -0.00006176
Si       8.27694151       8.27709055       0.01137105      -0.00060159      -0.00076543       0.00172127
Si       8.24141455       5.49367803       2.74383274       0.00127943      -0.00196635      -0.00068859
Si       5.49346181       8.24140193       2.74342404      -0.00169191       0.00069571      -0.00039672
Si       6.87633255       6.87616419       1.37124170      -0.00106030      -0.00103359      -0.00214600
Si       9.72159204       9.72323437       1.25976532      -0.00190313      -0.00312456       0.00421346
Si       9.61464442       6.87571189       4.10887089       0.00155633      -0.00080236       0.00079788
Si       6.87608967       9.61389930       4.10866118      -0.00092778       0.00184072       0.00089877
Si       5.49272294       5.49247205       5.49220295      -0.00056881      -0.00034075       0.00006429
Si       8.24101445       8.24059331       5.49053397       0.00151064       0.00121985       0.00213772
Si       8.24077356       5.49100723       8.23994832       0.00171539       0.00213387       0.00119209
Si       5.49144554       8.24010951       8.23970575       0.00215276       0.00163304       0.00140705
Si       6.86704141       6.86646027       6.86587213       0.00027307       0.00035822       0.00045803
Si       9.61259198       9.61252295       6.87485705      -0.00078625      -0.00075394      -0.00006109
Si       9.61238539       6.87494991       9.61223498      -0.00061850       0.00017537      -0.00049225
Si       6.87500761       9.61207942       9.61199984       0.00032266      -0.00034472      -0.00024428
