4
Lattice="1.9272495806894976 -3.3380941926200243 3.078568412220296e-35 1.9272495806894978 3.3380941926200243 -3.078568412220289e-35 2.333829793896608e-49 -5.841790299305888e-35 6.335426985323825" Properties=species:S:1:pos:R:3 cutoff=-1.0 nneightol=1.2 n_minim_iter=2 stress="0.0002405055636502682 -9.005705522829349e-17 -1.1353303474806216e-17 -9.005705522829349e-17 0.0002405055636500939 -5.041167528872834e-17 -1.1353303474806216e-17 -5.041167528872834e-17 -0.00030787504787903466" pbc="T T T"
Si       1.92724958       1.11269806       0.39519713
Si       1.92724958      -1.11269806       3.56291062
Si       1.92724958       1.11269806       2.77251637
Si       1.92724958      -1.11269806      -0.39519713
