63
Lattice="10.98238468530221 0.0 0.0 0.0 10.98238468530221 0.0 0.0 0.0 10.98238468530221" Properties=species:S:1:pos:R:3:forces:R:3 cutoff=-1.0 nneightol=1.2 vacancies=0 relax_radial_0=0.13 relax_symm_break_0=0.01 bulk_struct_test=bulk_Si_diamond supercell_a1_in_bulk_lattice_coords="2 2 -2" n_minim_iter=0 pbc="T T T"
Si       2.70900212       2.70912059       0.01296829      -0.00133885      -0.00149948       0.00023932
Si       2.70958921       0.01232792       2.70985509      -0.00159024       0.00119423      -0.00183582
Si       0.01176145       2.71019099       2.71033763       0.00210451      -0.00190885      -0.00200742
Si       1.27179989       1.27322316       1.27487390      -0.00261820      -0.00371053      -0.00497690
Si       4.11118009       4.11110652       1.36926027      -0.00102123      -0.00095569      -0.00329111
Si       4.11092278       1.36993455       4.11077414      -0.00088956      -0.00348290      -0.00088427
Si       1.37058720       4.11056000       4.11047396      -0.00372621      -0.00079983      -0.00079005
Si       0.00048324       0.00023993       5.49119181       0.00107138       0.00053198       0.00004556
Si       2.74347058       2.74314086       5.49059468       0.00033292       0.00003552       0.00285650
Si       2.70680455      -0.01297407       8.27532382      -0.00038656       0.00002861       0.00069222
Si      -0.01301239       2.70458523       8.27766109       0.00027136       0.00046084      -0.00029731
Si       1.37153650       1.37150524       6.87508098       0.00115425       0.00144325      -0.00105705
Si       4.11743302       4.11682719       6.86616209       0.00179651       0.00207578      -0.00237303
Si       4.10762461       1.37107976       9.61133785       0.00135698       0.00157540      -0.00180565
Si       1.37131187       4.10744046       9.61113755       0.00124598       0.00118765      -0.00176305
Si       0.00048286       5.49130604       0.00000346       0.00106950       0.00043743      -0.00002431
Si       2.70747075       8.27448374      -0.01229359      -0.00069796       0.00106959      -0.00091049
Si       2.74395079       5.49025999       2.74325893       0.00002598       0.00298112      -0.00050098
Si      -0.01230435       8.27913053       2.70308928      -0.00046440      -0.00088424       0.00102481
Si       1.37188707       6.87453760       1.37181075       0.00078474      -0.00020369       0.00133718
Si       4.10825107       9.61127926       1.37114084       0.00067172      -0.00171833       0.00152765
Si       4.11781271       6.86644411       4.11655445       0.00139085      -0.00242076       0.00214772
Si       1.37164078       9.61085608       4.10793705       0.00090032      -0.00164270       0.00032848
Si       0.00050275       5.49283001       5.49117513       0.00257382      -0.00124328       0.00004391
Si       2.74367877       8.23978640       5.49259295       0.00018019       0.00060232      -0.00295249
Si       2.74320806       5.49227914       8.23987014       0.00050050      -0.00279103       0.00008487
Si       0.01114446       8.27348279       8.27365612       0.00272169       0.00139650       0.00132133
Si       1.37063386       6.87353564       6.87343052      -0.00419472       0.00016725       0.00016736
Si       4.10990832       9.61378837       6.87265895      -0.00053182       0.00351305       0.00040844
Si       4.10969101       6.87297323       9.61308375      -0.00039049       0.00032269       0.00368804
Si       1.26575900       9.71185527       9.71368321       0.00047916       0.00318862       0.00179002
Si       5.49142043       0.00024189       0.00000312       0.00087350       0.00054050      -0.00002260
Si       8.27591356       2.70596135      -0.01163036       0.00044279      -0.00014667      -0.00158298
Si       8.27821765      -0.01160937       2.70380318      -0.00048575      -0.00135456       0.00069729
Si       5.48991278       2.74409619       2.74374197       0.00313801      -0.00058823      -0.00080658
Si       6.87396901       1.37221061       1.37216769       0.00058897       0.00068867       0.00096769
Si       9.61103658       4.10867305       1.37142946      -0.00158405      -0.00013639       0.00123266
Si       9.61081810       1.37169115       4.10854049      -0.00154630       0.00091497      -0.00034110
Si       6.86674232       4.11755284       4.11691744      -0.00251440       0.00147086       0.00178332
Si       5.49447306       0.00025138       5.49117454      -0.00252012       0.00128512       0.00004576
Si       8.24002519       2.74352223       5.49339190       0.00097817      -0.00031753      -0.00302846
Si       8.27539133       0.01105459       8.27576192       0.00062758       0.00246155       0.00048808
Si       5.49281299       2.74261271       8.24013411      -0.00281558       0.00037595      -0.00007333
Si       6.87491513       1.37001745       6.87467229      -0.00036566      -0.00443876      -0.00037615
Si       9.61449477       4.10847737       6.87401715       0.00377719      -0.00001916      -0.00008957
Si       9.71610961       1.26097492       9.71988898       0.00150804       0.00253470      -0.00136505
Si       6.87464910       4.10808039       9.61305478      -0.00028903       0.00023984       0.00415245
Si       5.49447323       5.49283346       0.00002788      -0.00251566      -0.00127665      -0.00008161
Si       8.27761956       8.27781759       0.01099041      -0.00024793      -0.00033052       0.00222915
Si       8.24031290       5.49392042       2.74287935       0.00084317      -0.00313269      -0.00039161
Si       5.49364505       8.24034270       2.74242931      -0.00293743       0.00030886      -0.00004511
Si       6.87623596       6.87609703       1.36936051      -0.00093275      -0.00089184      -0.00473617
Si       9.72241324       9.72436726       1.25632064      -0.00172944      -0.00320336       0.00450288
Si       9.61448258       6.87569413       4.10682220       0.00424947      -0.00072150       0.00061488
Si       6.87600674       9.61373916       4.10663795      -0.00083652       0.00447314       0.00075347
Si       5.49176399       5.49147752       5.49119241      -0.00070304      -0.00035007       0.00002928
Si       8.23986344       8.23945087       5.48818544       0.00118490       0.00100897       0.00334093
Si       8.23956493       5.48869044       8.23876980       0.00130299       0.00322409       0.00095847
Si       5.48915228       8.23885465       8.23847294       0.00316471       0.00125203       0.00107191
Si       6.86639620       6.86575215       6.86510353      -0.00218944      -0.00189358      -0.00157430
Si       9.61074385       9.61070042       6.87327034      -0.00128455      -0.00110506       0.00089846
Si       9.61050246       6.87335453       9.61041193      -0.00121788       0.00109654      -0.00080321
Si       6.87339232       9.61018945       9.61014265       0.00125391      -0.00091971      -0.00068233
