2
Lattice="2.6998490997660856 2.7442197398145183e-17 2.6998490997660856 2.6998490997660856 2.6998490997660856 4.154628251141964e-18 1.664813859754394e-16 2.6998490997660856 2.6998490997660856" Properties=species:S:1:pos:R:3 n_minim_iter=1 energy=-326.3415758812615 free_energy=-326.3415758812615 pbc="T T T"
Si       0.00000000       0.00000000       0.00000000
Si       1.34992455       1.34992455       1.34992455
