2
Lattice="2.6268441509054523 2.6700149919325518e-17 2.6268441509054523 2.6268441509054523 2.6268441509054523 4.042285519455279e-18 1.6197966583469627e-16 2.6268441509054523 2.6268441509054523" Properties=species:S:1:pos:R:3 n_minim_iter=1 energy=-326.18969792181406 free_energy=-326.18969792181406 pbc="T T T"
Si       0.00000000       0.00000000       0.00000000
Si       1.31342208       1.31342208       1.31342208
