2
Lattice="2.601584469530182 2.644340180604227e-17 2.601584469530182 2.601584469530182 2.601584469530182 4.0034149818887045e-18 1.604220725732739e-16 2.601584469530182 2.601584469530182" Properties=species:S:1:pos:R:3 n_minim_iter=1 energy=-326.0907458428085 free_energy=-326.0907458428085 pbc="T T T"
Si       0.00000000       0.00000000       0.00000000
Si       1.30079223       1.30079223       1.30079223
