2
Lattice="2.769105982577434 2.814614824097335e-17 2.769105982577434 2.769105982577434 2.769105982577434 4.261203319333362e-18 1.707519882990177e-16 2.769105982577434 2.769105982577434" Properties=species:S:1:pos:R:3 n_minim_iter=1 energy=-326.3349969547339 free_energy=-326.3349969547339 pbc="T T T"
Si       0.00000000       0.00000000       0.00000000
Si       1.38455299       1.38455299       1.38455299
