2
Lattice="2.7464073716425044 2.791543173093063e-17 2.7464073716425044 2.7464073716425044 2.7464073716425044 4.226273852253106e-18 1.6935231888471906e-16 2.7464073716425044 2.7464073716425044" Properties=species:S:1:pos:R:3 n_minim_iter=1 energy=-326.35117255376855 free_energy=-326.35117255376855 pbc="T T T"
Si       0.00000000       0.00000000       0.00000000
Si       1.37320369       1.37320369       1.37320369
