2
Lattice="2.495276695658793 2.536285292803691e-17 2.495276695658793 2.495276695658793 2.495276695658793 3.839824623938569e-18 1.5386679304464915e-16 2.495276695658793 2.495276695658793" Properties=species:S:1:pos:R:3 n_minim_iter=1 stress="-0.26428624082542723 -1.2797967360180846e-16 4.689610419975051e-17 -1.2797967360180846e-16 -0.26428624082542723 -1.507328437158232e-16 4.689610419975051e-17 -1.507328437158232e-16 -0.26428624082542723" pbc="T T T"
Si       0.00000000       0.00000000       0.00000000
Si       1.24763835       1.24763835       1.24763835
