2
Lattice="2.8980836159511636 2.945712138954457e-17 2.8980836159511636 2.8980836159511636 2.8980836159511636 4.4596789005895e-18 1.787051643360604e-16 2.8980836159511636 2.8980836159511636" Properties=species:S:1:pos:R:3 n_minim_iter=1 stress="0.0634214613582147 1.3522045626366551e-18 2.3873045514977154e-17 1.3522045626366551e-18 0.06342146135821462 3.107305903550778e-17 2.3873045514977154e-17 3.107305903550778e-17 0.06342146135821462" pbc="T T T"
Si       0.00000000       0.00000000       0.00000000
Si       1.44904181       1.44904181       1.44904181
