2
Lattice="2.675955376768516 2.7199333356916835e-17 2.675955376768516 2.675955376768516 2.675955376768516 4.117859701151795e-18 1.6500802210443887e-16 2.675955376768516 2.675955376768516" Properties=species:S:1:pos:R:3 n_minim_iter=1 stress="-0.019942249499307424 -1.8719469565351202e-17 -3.9185306998654646e-17 -1.8719469565351202e-17 -0.01994224949930733 2.0506773666711358e-17 -3.9185306998654646e-17 2.0506773666711358e-17 -0.01994224949930724" pbc="T T T"
Si       0.00000000       0.00000000       0.00000000
Si       1.33797769       1.33797769       1.33797769
