2
Lattice="2.6516271631234867 2.6952053002896688e-17 2.6516271631234867 2.6516271631234867 2.6516271631234867 4.0804225407867166e-18 1.6350786614154379e-16 2.6516271631234867 2.6516271631234867" Properties=species:S:1:pos:R:3 n_minim_iter=1 stress="-0.037847766633315356 -9.182585287109619e-17 3.83271419809348e-18 -9.182585287109619e-17 -0.037847766633315454 2.5088191780629146e-17 3.83271419809348e-18 2.5088191780629146e-17 -0.037847766633315544" pbc="T T T"
Si       0.00000000       0.00000000       0.00000000
Si       1.32581358       1.32581358       1.32581358
