2
Lattice="2.835061718689342 2.88165450902194e-17 2.835061718689342 2.835061718689342 2.835061718689342 4.3626984601540624e-18 1.748190312911213e-16 2.835061718689342 2.835061718689342" Properties=species:S:1:pos:R:3 n_minim_iter=1 stress="0.040442058383641434 -1.502135980373899e-17 -5.864430165431312e-17 -1.502135980373899e-17 0.04044205838364136 1.8695546507388917e-18 -5.864430165431312e-17 1.8695546507388917e-18 0.040442058383640955" pbc="T T T"
Si       0.00000000       0.00000000       0.00000000
Si       1.41753086       1.41753086       1.41753086
