2
Lattice="2.918493327942199 2.9664572741305606e-17 2.918493327942199 2.918493327942199 2.918493327942199 4.49108612480917e-18 1.7996369287379293e-16 2.918493327942199 2.918493327942199" Properties=species:S:1:pos:R:3 n_minim_iter=1 stress="0.0634214613582147 1.3522045626366551e-18 2.3873045514977154e-17 1.3522045626366551e-18 0.06342146135821462 3.107305903550778e-17 2.3873045514977154e-17 3.107305903550778e-17 0.06342146135821462" pbc="T T T"
Si       0.00000000       0.00000000       0.00000000
Si       1.45924666       1.45924666       1.45924666
