2
Lattice="2.6748726145895643 0.0 0.0 0.0 2.6748726145895643 0.0 0.0 0.0 3.847584678581777" Properties=species:S:1:pos:R:3:tags:I:1 spacegroup="P 1" unit_cell=conventional n_minim_iter=1 stress="-0.10174480613697885 -6.859583592557803e-18 3.730497575942617e-18 -6.859583592557803e-18 -0.10174480613697888 1.8667846419016907e-18 3.730497575942617e-18 1.8667846419016907e-18 -0.10381972581059898" pbc="T T T"
Ti       1.33743631       1.33743631       1.92379234        0
Al       0.00000000       0.00000000       0.00000000        1
