2
Lattice="2.4637165967822727 3.3954096425053417e-65 1.6329797318217324e-50 -3.60743924772352e-65 2.4637165967822727 9.423096496120663e-17 -2.5287771462681205e-50 -1.3330901027356084e-16 3.7794765166768145" Properties=species:S:1:pos:R:3:tags:I:1 spacegroup="P 1" unit_cell=conventional n_minim_iter=2 stress="-0.3466611309216007 5.297942153334763e-18 1.2169738545704667e-17 5.297942153334763e-18 -0.3466611309216007 -2.0011717927254024e-17 1.2169738545704667e-17 -2.0011717927254024e-17 -0.3497123757055665" pbc="T T T"
Ti       1.23185830       1.23185830       1.88973826        0
Al      -0.00000000      -0.00000000       0.00000000        1
