2
Lattice="2.6994141011703237 0.0 0.0 0.0 2.6994141011703237 0.0 0.0 0.0 3.882885592443142" Properties=species:S:1:pos:R:3:tags:I:1 spacegroup="P 1" unit_cell=conventional n_minim_iter=1 stress="-0.0474130227485736 8.888532521765166e-18 5.4633882113138665e-18 8.888532521765166e-18 -0.047413022748573556 -5.119044361137477e-18 5.4633882113138665e-18 -5.119044361137477e-18 -0.04755977742404355" pbc="T T T"
Ti       1.34970705       1.34970705       1.94144280        0
Al       0.00000000       0.00000000       0.00000000        1
