2
Lattice="2.984413109131163 0.0 0.0 0.0 2.984413109131163 0.0 0.0 0.0 4.292833270123257" Properties=species:S:1:pos:R:3:tags:I:1 spacegroup="P 1" unit_cell=conventional n_minim_iter=1 stress="0.12367788322610292 -3.1758969097669276e-19 1.5879484548834638e-19 -3.1758969097669276e-19 0.12367788322610294 -3.943783050461876e-20 1.5879484548834638e-19 -3.943783050461876e-20 0.11738668705992782" pbc="T T T"
Ti       1.49220655       1.49220655       2.14641664        0
Al       0.00000000       0.00000000       0.00000001        1
