2
Lattice="2.9643828874268547 0.0 0.0 0.0 2.9643828874268547 0.0 0.0 0.0 4.264021440461636" Properties=species:S:1:pos:R:3:tags:I:1 spacegroup="P 1" unit_cell=conventional n_minim_iter=1 stress="0.11302243588038184 3.5879301823168665e-19 -1.8518349328087062e-19 3.5879301823168665e-19 0.11302243588038184 8.94696485594041e-19 -1.8518349328087062e-19 8.94696485594041e-19 0.10709225873873375" pbc="T T T"
Ti       1.48219144       1.48219144       2.13201073        0
Al       0.00000000       0.00000000       0.00000001        1
