2
Lattice="2.859915246553907 0.0 0.0 0.0 2.859915246553907 0.0 0.0 0.0 4.1137533147056695" Properties=species:S:1:pos:R:3:tags:I:1 spacegroup="P 1" unit_cell=conventional n_minim_iter=1 stress="0.05080699049709595 -1.5168038847530808e-18 -4.3009597715433965e-19 -1.5168038847530808e-18 0.05080699049709594 5.618488719105941e-18 -4.3009597715433965e-19 5.618488719105941e-18 0.051957400033174804" pbc="T T T"
Ti       1.42995762       1.42995762       2.05687666        0
Al       0.00000000       0.00000000       0.00000001        1
