2
Lattice="4.867407831307462 -2.986527886230932e-17 6.273128830642522e-15 -2.986527886228084e-17 4.867407831307462 -1.1674613125991287e-14 2.4337039156537292 2.4337039156537346 1.4884716642942573" Properties=species:S:1:pos:R:3:forces:R:3 cutoff=-1.0 nneightol=1.2 n_minim_iter=1 energy=-325.5974195997627 stress="0.038200541548390865 -1.8108152443294277e-17 -4.2871559363002144e-17 -1.8108152443294277e-17 0.03820054154839085 -1.7144058442265788e-18 -4.2871559363002144e-17 -1.7144058442265788e-18 0.04146455851938805" free_energy=-325.5974195997627 pbc="T T T"
Si      -0.00000000      -1.21685196      -0.37211792      -0.00000000      -0.00000000      -0.00000000
Si      -0.00000000       1.21685196       0.37211792       0.00000000       0.00000000       0.00000000
