18
Lattice="0.0 -2.7471580324594207 2.7471580324594207 2.7471580324594207 -2.7471580324594207 0.0 22.089425497782177 22.089425497782177 22.089425497782177" Properties=species:S:1:pos:R:3:travel:I:3:map_shift:I:3:n_neighb:I:1:orig_index:I:1:forces:R:3 cutoff=2.0 nneightol=1.2 bulk_struct_test=bulk_Si_diamond supercell_a1_in_bulk_lattice_coords="1 -1 0" n_minim_iter=0 energy=-2934.774614322162 stress="0.0015933487659934103 -0.0007967921302611204 -0.0007967921302611038 -0.0007967921302611204 0.0015933487659933983 -0.0007967921302611358 -0.0007967921302611038 -0.0007967921302611358 0.0015933487659935146" free_energy=-2934.774614322162 pbc="T T T"
Si       0.04177818       0.04177818       0.04177818        0        0        0        0        0        0       21        1       0.00001371       0.00001371       0.00001371
Si       1.40941028       1.40941028       1.40941028        0        0        0        0        0        0       21        2      -0.00000069      -0.00000069      -0.00000069
Si       2.77489884       0.02774081       2.77489884        0       -1        0        0        0        0       20        3       0.00001429       0.00001429       0.00001429
Si      -1.21283977      -3.95999781      -1.21283977        0       -1        1        0        0        0       20        4       0.00002190       0.00002190       0.00002190
Si      -2.69551464       0.05164340      -2.69551464        1       -1        1        0        0        0       20        5      -0.00002248      -0.00002248      -0.00002248
Si      -1.31323934       1.43391869      -1.31323934        1       -1        1        0        0        0       20        6      -0.00000705      -0.00000705      -0.00000705
Si       5.49020290       5.49020290       5.49020290        0        0        0        0        0        0       21        1      -0.00005668      -0.00005668      -0.00005668
Si       6.85606150       6.85606150       6.85606150        0        0        0        0        0        0       21        2       0.00002753       0.00002753       0.00002753
Si       8.22136662       5.47420859       8.22136662        0       -1        0        0        0        0       20        3       0.00003424       0.00003424       0.00003424
Si       4.14084453       1.39368649       4.14084453        0       -1        1        0        0        0       20        4      -0.00003424      -0.00003424      -0.00003424
Si       2.75899161       5.50614964       2.75899161        1       -1        1        0        0        0       20        5      -0.00002753      -0.00002753      -0.00002753
Si       4.12485021       6.87200825       4.12485021        1       -1        1        0        0        0       20        6       0.00005668       0.00005668       0.00005668
Si      10.92829246      10.92829246      10.92829246        0        0        0        0        0        0       21        1       0.00000705       0.00000705       0.00000705
Si      12.31056775      12.31056775      12.31056775        0        0        0        0        0        0       21        2       0.00002248       0.00002248       0.00002248
Si      13.57505092      10.82789289      13.57505092        0       -1        0        0        0        0       20        3      -0.00002190      -0.00002190      -0.00002190
Si       9.58731231       6.84015427       9.58731231        0       -1        1        0        0        0       20        4      -0.00001429      -0.00001429      -0.00001429
Si       8.20564284      10.95280087       8.20564284        1       -1        1        0        0        0       20        5       0.00000069       0.00000069       0.00000069
Si       9.57327493      12.32043297       9.57327493        1       -1        1        0        0        0       20        6      -0.00001371      -0.00001371      -0.00001371
