1
Lattice="2.539896796650936 2.0612733241964627e-17 2.4124053748399997e-52 1.269948398325468 2.199615148890429 -2.0849976440053459e-50 -1.9445155296652669e-50 2.9238939731240817e-49 2.3898334913172192" Properties=species:S:1:pos:R:3:forces:R:3 cutoff=-1.0 nneightol=1.2 n_minim_iter=2 energy=-162.7491098959998 stress="-0.10717044458091914 2.5855496628099436e-17 5.197084749366721e-19 2.5855496628099436e-17 -0.10717044458091814 -9.135500535996188e-18 5.197084749366721e-19 -9.135500535996188e-18 -0.10717100571779707" free_energy=-162.7491098959998 pbc="T T T"
Si       0.00000000       0.00000000       0.00000000      -0.00000000      -0.00000000      -0.00000000
