1
Lattice="2.4052081966314374 2.2821870339501583e-17 -6.777888203944657e-52 1.2026040983157182 2.0829713996733816 -1.6224082094325372e-50 -1.9450004034293554e-50 4.463127612622039e-49 2.2842710921865614" Properties=species:S:1:pos:R:3:forces:R:3 cutoff=-1.0 nneightol=1.2 n_minim_iter=1 energy=-162.4684079188794 stress="-0.2726555585060291 -4.627721345235659e-16 5.640303872145367e-17 -4.627721345235659e-16 -0.2726555585060299 -4.4667686061593346e-17 5.640303872145367e-17 -4.4667686061593346e-17 -0.28133738503068106" free_energy=-162.4684079188794 pbc="T T T"
Si       0.00000000       0.00000000       0.00000000       0.00000000      -0.00000000       0.00000000
