2
Lattice="2.5235645882256414 -5.977564483433211e-17 2.5235645882256414 2.5235645882256414 2.5235645882256414 3.817997268714363e-17 5.381018351577915e-17 2.5235645882256414 2.5235645882256414" Properties=species:S:1:pos:R:3:forces:R:3 n_minim_iter=1 energy=-325.6034720239887 stress="-0.21368882567354172 5.843414829553066e-17 -3.8279074435941417e-19 5.843414829553066e-17 -0.21368882567354192 -5.0650492079426874e-17 -3.8279074435941417e-19 -5.0650492079426874e-17 -0.21368882567354155" free_energy=-325.6034720239887 pbc="T T T"
Si       0.00000000       0.00000000       0.00000000      -0.00000000      -0.00000000      -0.00000000
Si       1.26178229       1.26178229       1.26178229       0.00000000       0.00000000       0.00000000
